 Gaussian 09, Revision E.01,
 Gaussian 09:  EM64L-G09RevE.01 30-Nov-2015

 ---------------------------------------------
 #p b3lyp/6-311++G(3df,2p) freq symmetry=Loose
 ---------------------------------------------

 ---------
 b3lyp opt
 ---------
 Symbolic Z-matrix:
 Charge =  0 Multiplicity = 1

                         Standard orientation:
 ---------------------------------------------------------------------
 Center     Atomic      Atomic             Coordinates (Angstroms)
 Number     Number       Type             X           Y           Z
 ---------------------------------------------------------------------
      1          6           0        1.118938    0.000016    0.000326
      2          6           0       -0.201174   -0.000057   -0.000965
      3          6           0       -1.481037    0.000020    0.000358
      4          1           0        1.689714    0.924184    0.000848
      5          1           0        1.689931   -0.924062    0.000841
 ---------------------------------------------------------------------

 SCF Done:  E(RB3LYP) =  -115.375415766     A.U. after   11 cycles

 The electronic state is 1-A.
 Alpha  occ. eigenvalues --  -10.26643 -10.22011 -10.19323  -0.82797  -0.71888
 Alpha  occ. eigenvalues --   -0.54523  -0.50204  -0.35704  -0.29586  -0.28544
 Alpha virt. eigenvalues --   -0.15572  -0.01642  -0.00098   0.03263   0.03571
 Alpha virt. eigenvalues --    0.03805   0.07367   0.08790   0.09061   0.09197
 Alpha virt. eigenvalues --    0.10037   0.11532   0.12480   0.13135   0.16009

 Mulliken charges:
               1
     1  C   -0.599507
     2  C    0.826562
     3  C   -0.606958
     4  H    0.189953
     5  H    0.189950
 Sum of Mulliken charges =  -0.00000

 Dipole moment (field-independent basis, Debye):
    X=              4.3963    Y=              0.0001    Z=             -0.0008  Tot=              4.3963
 Quadrupole moment (field-independent basis, Debye-Ang):
   XX=            -20.7074   YY=            -18.1088   ZZ=            -18.1178
   XY=              0.0000   XZ=              0.0071   YZ=             -0.0000

  Exact polarizability:  58.961  -0.000  27.815   0.012   0.000  26.129
 Approx polarizability: 111.697  -0.001  37.428   0.030   0.000  37.404

                      1                      2                      3
                      A                      A                      A
 Frequencies --    235.1145               291.2694              1051.4562
 Red. masses --      6.0888                 3.7308                 1.3501
 Frc consts  --      0.1983                 0.1865                 0.8794
 IR Inten    --      3.2680                 1.3584                19.1713

                      4                      5                      6
                      A                      A                      A
 Frequencies --   1054.6853              1149.2994              1491.3298
 Red. masses --      1.4169                 3.8385                 1.2440
 Frc consts  --      0.9286                 2.9873                 1.6301
 IR Inten    --      3.1159                 0.5067                 8.7943

                      7                      8                      9
                      A                      A                      A
 Frequencies --   2040.7897              3093.7709              3169.1980
 Red. masses --     10.7918                 1.0572                 1.1164
 Frc consts  --     26.4813                 5.9619                 6.6066
 IR Inten    --    298.7825                 8.6625                 0.0986

 - Thermochemistry -
 -------------------
 Temperature   298.150 Kelvin.  Pressure   1.00000 Atm.
 Atom     1 has atomic number  6 and mass  12.00000

 Molecular mass:    38.01565 amu.
 Principal axes and moments of inertia in atomic units:
                           1         2         3
     Eigenvalues --     6.14719 168.88104 175.02812
           X            1.00000   0.00000  -0.00006
           Y           -0.00000   1.00000  -0.00000
           Z            0.00006   0.00000   1.00000
 This molecule is an asymmetric top.
 Rotational symmetry number  1.
 Rotational temperatures (Kelvin)     14.09000     0.51287     0.49486
 Rotational constants (GHZ):         293.58823    10.68646    10.31115
 Zero-point vibrational energy      81208.0 (Joules/Mol)
                                   19.40917 (Kcal/Mol)
 Warning -- explicit consideration of   2 degrees of freedom as
           vibrations may cause significant error
 Vibrational temperatures:    338.28   419.07  1512.81  1517.45  1653.58
          (Kelvin)           2145.69  2936.24  4451.24  4559.76

 Zero-point correction=                           0.030930 (Hartree/Particle)
 Thermal correction to Energy=                    0.034788
 Thermal correction to Enthalpy=                  0.035732
 Thermal correction to Gibbs Free Energy=         0.007133
 Sum of electronic and zero-point Energies=           -115.344485
 Sum of electronic and thermal Energies=              -115.340628
 Sum of electronic and thermal Enthalpies=            -115.339684
 Sum of electronic and thermal Free Energies=         -115.368283

                     E (Thermal)             CV                S
                      KCal/Mol        Cal/Mol-Kelvin    Cal/Mol-Kelvin
 Total                   21.830             10.412             60.192
 Electronic               0.000              0.000              0.000
 Translational            0.889              2.981             36.835
 Rotational               0.889              2.981             19.836
 Vibrational             20.052              4.450              3.521
 Vibration     1          0.655              1.787              1.840
 Vibration     2          0.687              1.690              1.467

 Normal termination of Gaussian 09 at Sun Jun 19 00:31:37 2016.
