 Gaussian 09, Revision E.01,
 Gaussian 09:  EM64L-G09RevE.01 30-Nov-2015

 ---------------------------------------------
 #p b3lyp/6-311++G(3df,2p) freq symmetry=Loose
 ---------------------------------------------

 ---------
 b3lyp opt
 ---------
 Symbolic Z-matrix:
 Charge =  1 Multiplicity = 2

                         Standard orientation:
 ---------------------------------------------------------------------
 Center     Atomic      Atomic             Coordinates (Angstroms)
 Number     Number       Type             X           Y           Z
 ---------------------------------------------------------------------
      1         16           0        0.000000    0.000000    0.816458
      2         16           0        0.000000   -1.493670   -0.408234
      3         16           0        0.000000    1.493670   -0.408234
 ---------------------------------------------------------------------

 SCF Done:  E(UB3LYP) =  -1194.30546796     A.U. after   13 cycles

 The electronic state is 2-B2.
 Alpha  occ. eigenvalues --  -89.22142 -89.15641 -89.15641  -8.29842  -8.23814
 Alpha  occ. eigenvalues --   -8.23809  -6.25954  -6.25927  -6.25586  -6.20248
 Alpha  occ. eigenvalues --   -6.20248  -6.19690  -6.19690  -6.19620  -6.19619
 Alpha  occ. eigenvalues --   -1.14387  -0.99434  -0.85284  -0.67847  -0.66997
 Alpha  occ. eigenvalues --   -0.64407  -0.54331  -0.52441  -0.52381
 Alpha virt. eigenvalues --   -0.40733  -0.26674  -0.26069  -0.16617  -0.12213
 Alpha virt. eigenvalues --   -0.11651  -0.11368  -0.10941  -0.09168  -0.08698
 Alpha virt. eigenvalues --   -0.07899  -0.06882  -0.06255  -0.04638  -0.04488

  Beta  occ. eigenvalues --  -89.22181 -89.15272 -89.15272  -8.29879  -8.23481
  Beta  occ. eigenvalues --   -8.23477  -6.26008  -6.25989  -6.25626  -6.19730
  Beta  occ. eigenvalues --   -6.19730  -6.19395  -6.19395  -6.18871  -6.18871
  Beta  occ. eigenvalues --   -1.13610  -0.97316  -0.83721  -0.67013  -0.64971
  Beta  occ. eigenvalues --   -0.64319  -0.51559  -0.51128
  Beta virt. eigenvalues --   -0.42508  -0.40346  -0.25680  -0.25519  -0.16508
  Beta virt. eigenvalues --   -0.11856  -0.11491  -0.10935  -0.10822  -0.08927
  Beta virt. eigenvalues --   -0.08254  -0.07858  -0.06516  -0.06076  -0.04076

 Mulliken charges and spin densities:
               1          2
     1  S    0.412440  -0.068592
     2  S    0.293780   0.534296
     3  S    0.293780   0.534296
 Sum of Mulliken charges =   1.00000   1.00000

 Dipole moment (field-independent basis, Debye):
    X=              0.0000    Y=              0.0000    Z=              0.3267  Tot=              0.3267
 Quadrupole moment (field-independent basis, Debye-Ang):
   XX=            -34.0770   YY=            -23.2099   ZZ=            -31.3999
   XY=              0.0000   XZ=             -0.0000   YZ=              0.0000

  Exact polarizability:  34.561   0.000 303.038  -0.000   0.001  43.776
 Approx polarizability:  57.890   0.000 352.466  -0.000  -0.000  89.737

 ******    1 imaginary frequencies (negative Signs) ******

                      1                      2                      3
                     B2                     A1                     A1
 Frequencies --  -1112.3114               229.0401               636.4362
 Red. masses --     31.9721                31.9721                31.9721
 Frc consts  --     23.3063                 0.9882                 7.6301
 IR Inten    --  11788.9412                 1.0192                 0.7279

 - Thermochemistry -
 -------------------
 Temperature   298.150 Kelvin.  Pressure   1.00000 Atm.
 Atom     1 has atomic number 16 and mass  31.97207

 Molecular mass:    95.91622 amu.
 Principal axes and moments of inertia in atomic units:
                           1         2         3
     Eigenvalues --   114.16459 509.45752 623.62211
           X            0.00000   0.00000   1.00000
           Y            1.00000   0.00000  -0.00000
           Z           -0.00000   1.00000  -0.00000
 This molecule is an asymmetric top.
 Rotational symmetry number  2.
 Rotational temperatures (Kelvin)      0.75867     0.17001     0.13889
 Rotational constants (GHZ):          15.80824     3.54248     2.89397
    1 imaginary frequencies ignored.
 Zero-point vibrational energy       5176.7 (Joules/Mol)
                                    1.23726 (Kcal/Mol)
 Warning -- explicit consideration of   1 degrees of freedom as
           vibrations may cause significant error
 Vibrational temperatures:    329.54   915.69
          (Kelvin)

 Zero-point correction=                           0.001972 (Hartree/Particle)
 Thermal correction to Energy=                    0.005462
 Thermal correction to Enthalpy=                  0.006406
 Thermal correction to Gibbs Free Energy=        -0.025413
 Sum of electronic and zero-point Energies=          -1194.303496
 Sum of electronic and thermal Energies=             -1194.300006
 Sum of electronic and thermal Enthalpies=           -1194.299062
 Sum of electronic and thermal Free Energies=        -1194.330881

                     E (Thermal)             CV                S
                      KCal/Mol        Cal/Mol-Kelvin    Cal/Mol-Kelvin
 Total                    3.427              8.714             66.969
 Electronic               0.000              0.000              1.377
 Translational            0.889              2.981             39.594
 Rotational               0.889              2.981             23.721
 Vibrational              1.650              2.752              2.278
 Vibration     1          0.652              1.797              1.886

 Optimization completed.
    -- Stationary point found.
 Normal termination of Gaussian 09 at Sun Oct 23 21:15:48 2016.
