 Gaussian 09, Revision E.01,
 Gaussian 09:  EM64L-G09RevE.01 30-Nov-2015

 ---------------------------------------------
 #p b3lyp/6-311++G(3df,2p) freq symmetry=Loose
 ---------------------------------------------

 ---------
 b3lyp opt
 ---------
 Symbolic Z-matrix:
 Charge =  1 Multiplicity = 4

                         Standard orientation:
 ---------------------------------------------------------------------
 Center     Atomic      Atomic             Coordinates (Angstroms)
 Number     Number       Type             X           Y           Z
 ---------------------------------------------------------------------
      1         16           0        0.000000    1.251953    0.000000
      2         16           0       -1.084396   -0.625686    0.000000
      3         16           0        1.084396   -0.626267    0.000000
 ---------------------------------------------------------------------

 SCF Done:  E(UB3LYP) =  -1194.25633815     A.U. after   12 cycles

 The electronic state is 4-A'.
 Alpha  occ. eigenvalues --  -89.17881 -89.17880 -89.17878  -8.25752  -8.25751
 Alpha  occ. eigenvalues --   -8.25748  -6.22114  -6.22113  -6.22111  -6.21874
 Alpha  occ. eigenvalues --   -6.21858  -6.21856  -6.21705  -6.21703  -6.21698
 Alpha  occ. eigenvalues --   -1.12979  -0.93208  -0.93200  -0.66750  -0.65491
 Alpha  occ. eigenvalues --   -0.62894  -0.62889  -0.52883  -0.52878  -0.42325
 Alpha virt. eigenvalues --   -0.33022  -0.33009  -0.16620  -0.11885  -0.10933
 Alpha virt. eigenvalues --   -0.10819  -0.09883  -0.09869  -0.08192  -0.08183
 Alpha virt. eigenvalues --   -0.07261  -0.07259  -0.06760  -0.04752  -0.04749

  Beta  occ. eigenvalues --  -89.17161 -89.17160 -89.17156  -8.25103  -8.25101
  Beta  occ. eigenvalues --   -8.25097  -6.21577  -6.21561  -6.21559  -6.20581
  Beta  occ. eigenvalues --   -6.20578  -6.20571  -6.20502  -6.20501  -6.20497
  Beta  occ. eigenvalues --   -1.10223  -0.88136  -0.88131  -0.64602  -0.59081
  Beta  occ. eigenvalues --   -0.59068  -0.58730
  Beta virt. eigenvalues --   -0.40346  -0.40345  -0.32171  -0.30550  -0.30541
  Beta virt. eigenvalues --   -0.16095  -0.11176  -0.10411  -0.09457  -0.09438
  Beta virt. eigenvalues --   -0.09233  -0.07893  -0.07890  -0.05857  -0.05852

 Mulliken charges and spin densities:
               1          2
     1  S    0.333319   0.999403
     2  S    0.333367   0.999447
     3  S    0.333314   1.001150
 Sum of Mulliken charges =   1.00000   3.00000

 Dipole moment (field-independent basis, Debye):
    X=             -0.0005    Y=              0.0001    Z=              0.0000  Tot=              0.0005
 Quadrupole moment (field-independent basis, Debye-Ang):
   XX=            -27.8594   YY=            -27.8586   ZZ=            -34.1504
   XY=              0.0012   XZ=              0.0000   YZ=              0.0000

  Exact polarizability:  60.555  -0.005  60.546  -0.000   0.000  33.357
 Approx polarizability: 149.939   0.023 149.969  -0.000  -0.000  56.023

 ******    2 imaginary frequencies (negative Signs) ******

                      1                      2                      3
                     A'                     A'                     A'
 Frequencies --   -438.2351              -434.1689               541.9916
 Red. masses --     31.9721                31.9721                31.9721
 Frc consts  --      3.6177                 3.5509                 5.5336
 IR Inten    --      3.7968                 3.6646                 0.0000

 - Thermochemistry -
 -------------------
 Temperature   298.150 Kelvin.  Pressure   1.00000 Atm.
 Atom     1 has atomic number 16 and mass  31.97207

 Molecular mass:    95.91622 amu.
 Principal axes and moments of inertia in atomic units:
                           1         2         3
     Eigenvalues --   268.39224 268.55951 536.95175
           X            0.86950   0.49394   0.00000
           Y           -0.49394   0.86950   0.00000
           Z           -0.00000   0.00000   1.00000
 This molecule is an asymmetric top.
 Rotational symmetry number  1.
 Rotational temperatures (Kelvin)      0.32271     0.32251     0.16131
 Rotational constants (GHZ):           6.72427     6.72008     3.36109
    2 imaginary frequencies ignored.
 Zero-point vibrational energy       3241.8 (Joules/Mol)
                                    0.77482 (Kcal/Mol)
 Warning -- explicit consideration of   1 degrees of freedom as
           vibrations may cause significant error
 Vibrational temperatures:    779.80
          (Kelvin)

 Zero-point correction=                           0.001235 (Hartree/Particle)
 Thermal correction to Energy=                    0.004262
 Thermal correction to Enthalpy=                  0.005206
 Thermal correction to Gibbs Free Energy=        -0.027137
 Sum of electronic and zero-point Energies=          -1194.255103
 Sum of electronic and thermal Energies=             -1194.252076
 Sum of electronic and thermal Enthalpies=           -1194.251132
 Sum of electronic and thermal Free Energies=        -1194.283475

                     E (Thermal)             CV                S
                      KCal/Mol        Cal/Mol-Kelvin    Cal/Mol-Kelvin
 Total                    2.675              7.119             68.072
 Electronic               0.000              0.000              2.755
 Translational            0.889              2.981             39.594
 Rotational               0.889              2.981             25.163
 Vibrational              0.897              1.157              0.561
 Vibration     1          0.897              1.157              0.561

 Optimization completed.
    -- Stationary point found.
 Normal termination of Gaussian 09 at Sun Oct 23 21:16:11 2016.
