 Gaussian 09, Revision E.01,
 Gaussian 09:  EM64L-G09RevE.01 30-Nov-2015

 ---------------------------------------------
 #p b3lyp/6-311++G(3df,2p) freq symmetry=Loose
 ---------------------------------------------

 ---------
 b3lyp opt
 ---------
 Symbolic Z-matrix:
 Charge =  1 Multiplicity = 2

                         Standard orientation:
 ---------------------------------------------------------------------
 Center     Atomic      Atomic             Coordinates (Angstroms)
 Number     Number       Type             X           Y           Z
 ---------------------------------------------------------------------
      1         16           0       -1.493741   -0.408019    0.000000
      2         16           0        1.493741   -0.408372    0.000000
      3         16           0        0.000000    0.816391    0.000000
 ---------------------------------------------------------------------

 SCF Done:  E(UB3LYP) =  -1194.30546798     A.U. after   39 cycles

 The electronic state is 2-A'.
 Alpha  occ. eigenvalues --  -89.22140 -89.15659 -89.15623  -8.29840  -8.23829
 Alpha  occ. eigenvalues --   -8.23794  -6.25953  -6.25926  -6.25585  -6.20265
 Alpha  occ. eigenvalues --   -6.20232  -6.19708  -6.19673  -6.19645  -6.19595
 Alpha  occ. eigenvalues --   -1.14386  -0.99435  -0.85283  -0.67847  -0.66996
 Alpha  occ. eigenvalues --   -0.64407  -0.54330  -0.52442  -0.52382
 Alpha virt. eigenvalues --   -0.40731  -0.26675  -0.26067  -0.16617  -0.12213
 Alpha virt. eigenvalues --   -0.11651  -0.11368  -0.10941  -0.09168  -0.08698
 Alpha virt. eigenvalues --   -0.07899  -0.06881  -0.06255  -0.04639  -0.04489

  Beta  occ. eigenvalues --  -89.22180 -89.15280 -89.15265  -8.29878  -8.23487
  Beta  occ. eigenvalues --   -8.23471  -6.26006  -6.25988  -6.25625  -6.19739
  Beta  occ. eigenvalues --   -6.19721  -6.19398  -6.19393  -6.18881  -6.18861
  Beta  occ. eigenvalues --   -1.13610  -0.97317  -0.83720  -0.67013  -0.64970
  Beta  occ. eigenvalues --   -0.64319  -0.51560  -0.51127
  Beta virt. eigenvalues --   -0.42509  -0.40345  -0.25681  -0.25518  -0.16508
  Beta virt. eigenvalues --   -0.11855  -0.11491  -0.10935  -0.10822  -0.08927
  Beta virt. eigenvalues --   -0.08255  -0.07858  -0.06516  -0.06076  -0.04077

 Mulliken charges and spin densities:
               1          2
     1  S    0.293201   0.519366
     2  S    0.294387   0.549197
     3  S    0.412412  -0.068562
 Sum of Mulliken charges =   1.00000   1.00000

 Dipole moment (field-independent basis, Debye):
    X=              0.0074    Y=              0.3265    Z=              0.0000  Tot=              0.3266
 Quadrupole moment (field-independent basis, Debye-Ang):
   XX=            -23.2083   YY=            -31.4010   ZZ=            -34.0769
   XY=              0.0018   XZ=              0.0000   YZ=              0.0000

  Exact polarizability: 257.686  -4.517  43.904  -0.000  -0.000  34.560
 Approx polarizability: 352.453   0.076  89.729  -0.000  -0.000  57.889

 ******    1 imaginary frequencies (negative Signs) ******

                      1                      2                      3
                     A'                     A'                     A'
 Frequencies --   -959.0858               229.1196               635.2673
 Red. masses --     31.9721                31.9721                31.9721
 Frc consts  --     17.3275                 0.9889                 7.6021
 IR Inten    --   7326.0998                 1.1570                 1.3208

 - Thermochemistry -
 -------------------
 Temperature   298.150 Kelvin.  Pressure   1.00000 Atm.
 Atom     1 has atomic number 16 and mass  31.97207

 Molecular mass:    95.91622 amu.
 Principal axes and moments of inertia in atomic units:
                           1         2         3
     Eigenvalues --   114.14485 509.50605 623.65091
           X            1.00000   0.00015   0.00000
           Y           -0.00015   1.00000   0.00000
           Z           -0.00000   0.00000   1.00000
 This molecule is an asymmetric top.
 Rotational symmetry number  1.
 Rotational temperatures (Kelvin)      0.75881     0.17000     0.13888
 Rotational constants (GHZ):          15.81097     3.54214     2.89383
    1 imaginary frequencies ignored.
 Zero-point vibrational energy       5170.2 (Joules/Mol)
                                    1.23570 (Kcal/Mol)
 Warning -- explicit consideration of   1 degrees of freedom as
           vibrations may cause significant error
 Vibrational temperatures:    329.65   914.01
          (Kelvin)

 Zero-point correction=                           0.001969 (Hartree/Particle)
 Thermal correction to Energy=                    0.005460
 Thermal correction to Enthalpy=                  0.006404
 Thermal correction to Gibbs Free Energy=        -0.026070
 Sum of electronic and zero-point Energies=          -1194.303499
 Sum of electronic and thermal Energies=             -1194.300008
 Sum of electronic and thermal Enthalpies=           -1194.299064
 Sum of electronic and thermal Free Energies=        -1194.331538

                     E (Thermal)             CV                S
                      KCal/Mol        Cal/Mol-Kelvin    Cal/Mol-Kelvin
 Total                    3.426              8.716             68.348
 Electronic               0.000              0.000              1.377
 Translational            0.889              2.981             39.594
 Rotational               0.889              2.981             25.098
 Vibrational              1.649              2.755              2.279
 Vibration     1          0.652              1.797              1.886

 Optimization completed.
    -- Stationary point found.
 Normal termination of Gaussian 09 at Sun Oct 23 21:16:38 2016.
