 Gaussian 09, Revision E.01,
 Gaussian 09:  EM64L-G09RevE.01 30-Nov-2015

 ---------------------------------------------
 #p b3lyp/6-311++G(3df,2p) freq symmetry=Loose
 ---------------------------------------------

 ---------
 b3lyp opt
 ---------
 Symbolic Z-matrix:
 Charge =  0 Multiplicity = 3

                         Standard orientation:
 ---------------------------------------------------------------------
 Center     Atomic      Atomic             Coordinates (Angstroms)
 Number     Number       Type             X           Y           Z
 ---------------------------------------------------------------------
      1         16           0        0.000000    1.530146    0.000847
      2         16           0       -1.515234    0.216828   -0.000847
      3         16           0       -0.000000   -1.530146    0.000847
      4         16           0        1.515234   -0.216828   -0.000847
 ---------------------------------------------------------------------

 SCF Done:  E(UB3LYP) =  -1592.85696041     A.U. after   14 cycles

 The electronic state is 3-B.
 Alpha  occ. eigenvalues --  -88.91248 -88.91248 -88.91248 -88.91248  -7.99435
 Alpha  occ. eigenvalues --   -7.99430  -7.99428  -7.99426  -5.95767  -5.95763
 Alpha  occ. eigenvalues --   -5.95749  -5.95746  -5.95502  -5.95501  -5.95476
 Alpha  occ. eigenvalues --   -5.95474  -5.95150  -5.95150  -5.95147  -5.95147
 Alpha  occ. eigenvalues --   -0.87863  -0.79141  -0.70541  -0.60093  -0.46806
 Alpha  occ. eigenvalues --   -0.42884  -0.40164  -0.37320  -0.33300  -0.33058
 Alpha  occ. eigenvalues --   -0.28529  -0.23764  -0.21885
 Alpha virt. eigenvalues --   -0.09125  -0.08211  -0.01636   0.00833   0.03029
 Alpha virt. eigenvalues --    0.03887   0.03934   0.04105   0.04702   0.06666
 Alpha virt. eigenvalues --    0.07117   0.07286   0.09089   0.09717   0.10685

  Beta  occ. eigenvalues --  -88.90890 -88.90890 -88.90890 -88.90890  -7.99098
  Beta  occ. eigenvalues --   -7.99094  -7.99092  -7.99089  -5.95417  -5.95417
  Beta  occ. eigenvalues --   -5.95378  -5.95378  -5.95063  -5.95059  -5.95057
  Beta  occ. eigenvalues --   -5.95054  -5.94455  -5.94455  -5.94452  -5.94452
  Beta  occ. eigenvalues --   -0.85998  -0.76916  -0.68392  -0.57473  -0.44530
  Beta  occ. eigenvalues --   -0.41325  -0.37783  -0.36272  -0.31162  -0.30199
  Beta  occ. eigenvalues --   -0.25078
  Beta virt. eigenvalues --   -0.16224  -0.14494  -0.08078  -0.05022  -0.00654
  Beta virt. eigenvalues --    0.01006   0.03312   0.03979   0.04173   0.04234
  Beta virt. eigenvalues --    0.04964   0.06844   0.07219   0.07642   0.09256

 Mulliken charges and spin densities:
               1          2
     1  S   -0.000042   0.500083
     2  S    0.000042   0.499917
     3  S   -0.000042   0.500083
     4  S    0.000042   0.499917
 Sum of Mulliken charges =  -0.00000   2.00000

 Dipole moment (field-independent basis, Debye):
    X=              0.0000    Y=             -0.0000    Z=             -0.0000  Tot=              0.0000
 Quadrupole moment (field-independent basis, Debye-Ang):
   XX=            -49.6508   YY=            -50.1019   ZZ=            -54.0794
   XY=              1.5543   XZ=             -0.0000   YZ=              0.0000

  Exact polarizability: 101.659 -10.753 104.700  -0.000  -0.000  55.611
 Approx polarizability: 251.694 -23.649 258.315   0.000   0.000  93.330

 ******    1 imaginary frequencies (negative Signs) ******

                      1                      2                      3
                      B                      A                      A
 Frequencies --   -133.0413               101.2375               286.0334
 Red. masses --     31.9721                31.9721                31.9721
 Frc consts  --      0.3334                 0.1931                 1.5412
 IR Inten    --     19.8652                 0.0000                 0.0000

                      4                      5                      6
                      A                      B                      A
 Frequencies --    380.9246               510.4128               606.5327
 Red. masses --     31.9721                31.9721                31.9721
 Frc consts  --      2.7334                 4.9075                 6.9299
 IR Inten    --      0.0000                25.5343                 0.0000

 - Thermochemistry -
 -------------------
 Temperature   298.150 Kelvin.  Pressure   1.00000 Atm.
 Atom     1 has atomic number 16 and mass  31.97207

 Molecular mass:   127.88829 amu.
 Principal axes and moments of inertia in atomic units:
                           1         2         3
     Eigenvalues --   459.06546 610.588481069.65328
           X           -0.65601   0.75475   0.00000
           Y            0.75475   0.65601   0.00000
           Z            0.00000   0.00000   1.00000
 This molecule is an asymmetric top.
 Rotational symmetry number  2.
 Warning -- assumption of classical behavior for rotation
           may cause significant error
 Rotational temperatures (Kelvin)      0.18867     0.14185     0.08097
 Rotational constants (GHZ):           3.93134     2.95574     1.68722
    1 imaginary frequencies ignored.
 Zero-point vibrational energy      11275.6 (Joules/Mol)
                                    2.69494 (Kcal/Mol)
 Warning -- explicit consideration of   5 degrees of freedom as
           vibrations may cause significant error
 Vibrational temperatures:    145.66   411.54   548.06   734.37   872.66
          (Kelvin)

 Zero-point correction=                           0.004295 (Hartree/Particle)
 Thermal correction to Energy=                    0.008999
 Thermal correction to Enthalpy=                  0.009943
 Thermal correction to Gibbs Free Energy=        -0.025924
 Sum of electronic and zero-point Energies=          -1592.852666
 Sum of electronic and thermal Energies=             -1592.847962
 Sum of electronic and thermal Enthalpies=           -1592.847018
 Sum of electronic and thermal Free Energies=        -1592.882884

                     E (Thermal)             CV                S
                      KCal/Mol        Cal/Mol-Kelvin    Cal/Mol-Kelvin
 Total                    5.647             13.365             75.488
 Electronic               0.000              0.000              2.183
 Translational            0.889              2.981             40.451
 Rotational               0.889              2.981             25.819
 Vibrational              3.869              7.404              7.034
 Vibration     1          0.604              1.948              3.430
 Vibration     2          0.684              1.700              1.497
 Vibration     3          0.751              1.511              1.035
 Vibration     4          0.866              1.227              0.633
 Vibration     5          0.965              1.018              0.439

 Optimization completed.
    -- Stationary point found.
 Normal termination of Gaussian 09 at Sun Oct 23 21:26:26 2016.
