 Gaussian 09, Revision E.01,
 Gaussian 09:  EM64L-G09RevE.01 30-Nov-2015

 ---------------------------------------------
 #p b3lyp/6-311++G(3df,2p) freq symmetry=Loose
 ---------------------------------------------

 ---------
 b3lyp opt
 ---------
 Symbolic Z-matrix:
 Charge =  1 Multiplicity = 4

                         Standard orientation:
 ---------------------------------------------------------------------
 Center     Atomic      Atomic             Coordinates (Angstroms)
 Number     Number       Type             X           Y           Z
 ---------------------------------------------------------------------
      1         16           0       -0.000000    1.566843    0.000000
      2         16           0        1.528846    0.341406    0.000000
      3         16           0        0.000000   -1.566843    0.000000
      4         16           0       -1.528846   -0.341406   -0.000000
 ---------------------------------------------------------------------

 SCF Done:  E(UB3LYP) =  -1592.53490294     A.U. after   11 cycles

 The electronic state is 4-AG.
 Alpha  occ. eigenvalues --  -89.14524 -89.14524 -89.14523 -89.14523  -8.22572
 Alpha  occ. eigenvalues --   -8.22566  -8.22561  -8.22560  -6.18804  -6.18802
 Alpha  occ. eigenvalues --   -6.18785  -6.18784  -6.18639  -6.18639  -6.18635
 Alpha  occ. eigenvalues --   -6.18635  -6.18532  -6.18532  -6.18493  -6.18492
 Alpha  occ. eigenvalues --   -1.10094  -1.03503  -0.91145  -0.82966  -0.68311
 Alpha  occ. eigenvalues --   -0.63991  -0.62521  -0.59887  -0.57097  -0.53316
 Alpha  occ. eigenvalues --   -0.50088  -0.48290  -0.44886
 Alpha virt. eigenvalues --   -0.31666  -0.27667  -0.21415  -0.15587  -0.11856
 Alpha virt. eigenvalues --   -0.10650  -0.10451  -0.10179  -0.10069  -0.09057
 Alpha virt. eigenvalues --   -0.08936  -0.07025  -0.05885  -0.05774  -0.05430

  Beta  occ. eigenvalues --  -89.13993 -89.13993 -89.13993 -89.13993  -8.22083
  Beta  occ. eigenvalues --   -8.22078  -8.22072  -8.22071  -6.18343  -6.18343
  Beta  occ. eigenvalues --   -6.18291  -6.18291  -6.17991  -6.17988  -6.17985
  Beta  occ. eigenvalues --   -6.17983  -6.17419  -6.17419  -6.17415  -6.17414
  Beta  occ. eigenvalues --   -1.07363  -1.00524  -0.87418  -0.78948  -0.65361
  Beta  occ. eigenvalues --   -0.61977  -0.58296  -0.57625  -0.51925  -0.50812
  Beta virt. eigenvalues --   -0.40003  -0.39430  -0.33990  -0.27755  -0.26145
  Beta virt. eigenvalues --   -0.19787  -0.15124  -0.11354  -0.10216  -0.10161
  Beta virt. eigenvalues --   -0.09776  -0.08795  -0.07992  -0.07665  -0.06650

 Mulliken charges and spin densities:
               1          2
     1  S    0.249729   0.749793
     2  S    0.250271   0.750207
     3  S    0.249729   0.749793
     4  S    0.250271   0.750207
 Sum of Mulliken charges =   1.00000   3.00000

 Dipole moment (field-independent basis, Debye):
    X=              0.0000    Y=             -0.0000    Z=              0.0000  Tot=              0.0000
 Quadrupole moment (field-independent basis, Debye-Ang):
   XX=            -37.2776   YY=            -37.2274   ZZ=            -47.7872
   XY=              0.1043   XZ=              0.0000   YZ=             -0.0000

  Exact polarizability:  86.305   4.797  88.463   0.000  -0.000  45.084
 Approx polarizability: 215.025  -9.128 211.038   0.000  -0.000  77.472

 ******    1 imaginary frequencies (negative Signs) ******

                      1                      2                      3
                     BU                     AU                     AG
 Frequencies --   -107.6070               130.2683               249.3113
 Red. masses --     31.9721                31.9721                31.9721
 Frc consts  --      0.2181                 0.3197                 1.1709
 IR Inten    --      0.0449                 0.0000                 0.0000

                      4                      5                      6
                     AG                     BU                     AG
 Frequencies --    340.7136               581.6369               657.4354
 Red. masses --     31.9721                31.9721                31.9721
 Frc consts  --      2.1868                 6.3727                 8.1419
 IR Inten    --      0.0000                 0.2946                 0.0000

 - Thermochemistry -
 -------------------
 Temperature   298.150 Kelvin.  Pressure   1.00000 Atm.
 Atom     1 has atomic number 16 and mass  31.97207

 Molecular mass:   127.88829 amu.
 Principal axes and moments of inertia in atomic units:
                           1         2         3
     Eigenvalues --   438.32287 682.623741120.94662
           X            0.62494   0.78067   0.00000
           Y            0.78067  -0.62494   0.00000
           Z           -0.00000   0.00000   1.00000
 This molecule is an asymmetric top.
 Rotational symmetry number  2.
 Warning -- assumption of classical behavior for rotation
           may cause significant error
 Rotational temperatures (Kelvin)      0.19760     0.12688     0.07727
 Rotational constants (GHZ):           4.11738     2.64383     1.61002
    1 imaginary frequencies ignored.
 Zero-point vibrational energy      11719.6 (Joules/Mol)
                                    2.80105 (Kcal/Mol)
 Warning -- explicit consideration of   4 degrees of freedom as
           vibrations may cause significant error
 Vibrational temperatures:    187.43   358.70   490.21   836.84   945.90
          (Kelvin)

 Zero-point correction=                           0.004464 (Hartree/Particle)
 Thermal correction to Energy=                    0.009135
 Thermal correction to Enthalpy=                  0.010079
 Thermal correction to Gibbs Free Energy=        -0.025967
 Sum of electronic and zero-point Energies=          -1592.530439
 Sum of electronic and thermal Energies=             -1592.525768
 Sum of electronic and thermal Enthalpies=           -1592.524824
 Sum of electronic and thermal Free Energies=        -1592.560870

                     E (Thermal)             CV                S
                      KCal/Mol        Cal/Mol-Kelvin    Cal/Mol-Kelvin
 Total                    5.732             13.227             75.866
 Electronic               0.000              0.000              2.755
 Translational            0.889              2.981             40.451
 Rotational               0.889              2.981             25.931
 Vibrational              3.955              7.265              6.729
 Vibration     1          0.612              1.923              2.942
 Vibration     2          0.662              1.764              1.735
 Vibration     3          0.720              1.594              1.209
 Vibration     4          0.938              1.071              0.482

 Optimization completed.
    -- Stationary point found.
 Normal termination of Gaussian 09 at Sun Oct 23 21:35:33 2016.
