 Gaussian 09, Revision E.01,
 Gaussian 09:  EM64L-G09RevE.01 30-Nov-2015

 ---------------------------------------------
 #p b3lyp/6-311++G(3df,2p) freq symmetry=Loose
 ---------------------------------------------

 ---------
 b3lyp opt
 ---------
 Symbolic Z-matrix:
 Charge =  1 Multiplicity = 4

                         Standard orientation:
 ---------------------------------------------------------------------
 Center     Atomic      Atomic             Coordinates (Angstroms)
 Number     Number       Type             X           Y           Z
 ---------------------------------------------------------------------
      1         16           0       -1.383113   -0.000037    0.164593
      2         16           0       -0.000001   -1.631877   -0.164594
      3         16           0        1.383113    0.000037    0.164593
      4         16           0        0.000001    1.631877   -0.164594
 ---------------------------------------------------------------------

 SCF Done:  E(UB3LYP) =  -1592.48606935     A.U. after   15 cycles

 The electronic state is 4-A.
 Alpha  occ. eigenvalues --  -89.17189 -89.17189 -89.13564 -89.13564  -8.25115
 Alpha  occ. eigenvalues --   -8.25112  -8.21530  -8.21528  -6.21551  -6.21551
 Alpha  occ. eigenvalues --   -6.21253  -6.21253  -6.20880  -6.20880  -6.17807
 Alpha  occ. eigenvalues --   -6.17807  -6.17760  -6.17759  -6.17179  -6.17178
 Alpha  occ. eigenvalues --   -1.10953  -0.98137  -0.96993  -0.83492  -0.68239
 Alpha  occ. eigenvalues --   -0.65894  -0.63328  -0.59467  -0.57177  -0.54624
 Alpha  occ. eigenvalues --   -0.51609  -0.45671  -0.41826
 Alpha virt. eigenvalues --   -0.33127  -0.29352  -0.27246  -0.15652  -0.11263
 Alpha virt. eigenvalues --   -0.11015  -0.10956  -0.10271  -0.09739  -0.08685
 Alpha virt. eigenvalues --   -0.07969  -0.07456  -0.07003  -0.06627  -0.05066

  Beta  occ. eigenvalues --  -89.16482 -89.16482 -89.13194 -89.13194  -8.24447
  Beta  occ. eigenvalues --   -8.24444  -8.21196  -8.21194  -6.20874  -6.20874
  Beta  occ. eigenvalues --   -6.20086  -6.20086  -6.19806  -6.19806  -6.17589
  Beta  occ. eigenvalues --   -6.17588  -6.17103  -6.17103  -6.16490  -6.16490
  Beta  occ. eigenvalues --   -1.08037  -0.94891  -0.93633  -0.79588  -0.66044
  Beta  occ. eigenvalues --   -0.63037  -0.58008  -0.57989  -0.53867  -0.48469
  Beta virt. eigenvalues --   -0.42209  -0.35817  -0.33168  -0.32191  -0.26144
  Beta virt. eigenvalues --   -0.24856  -0.15125  -0.10618  -0.10564  -0.10260
  Beta virt. eigenvalues --   -0.09759  -0.09567  -0.07713  -0.06435  -0.06355

 Mulliken charges and spin densities:
               1          2
     1  S    0.363415   0.949227
     2  S    0.136585   0.550773
     3  S    0.363415   0.949227
     4  S    0.136585   0.550773
 Sum of Mulliken charges =   1.00000   3.00000

 Dipole moment (field-independent basis, Debye):
    X=             -0.0000    Y=             -0.0000    Z=             -0.1069  Tot=              0.1069
 Quadrupole moment (field-independent basis, Debye-Ang):
   XX=            -38.0185   YY=            -38.2969   ZZ=            -47.9615
   XY=             -0.0013   XZ=              0.0000   YZ=             -0.0000

  Exact polarizability:  80.608  -0.001  99.835  -0.000   0.000  46.896
 Approx polarizability: 194.124  -0.032 287.653   0.000   0.000  82.415

 ******    1 imaginary frequencies (negative Signs) ******

                      1                      2                      3
                      A                      A                      B
 Frequencies --   -887.8533               119.0748               173.5087
 Red. masses --     31.9721                31.9721                31.9721
 Frc consts  --     14.8492                 0.2671                 0.5671
 IR Inten    --      0.0000                 0.0242                25.8021

                      4                      5                      6
                      B                      A                      A
 Frequencies --    216.8252               337.3755               466.8447
 Red. masses --     31.9721                31.9721                31.9721
 Frc consts  --      0.8856                 2.1441                 4.1055
 IR Inten    --      8.3582                 0.3742                 0.1392

 - Thermochemistry -
 -------------------
 Temperature   298.150 Kelvin.  Pressure   1.00000 Atm.
 Atom     1 has atomic number 16 and mass  31.97207

 Molecular mass:   127.88829 amu.
 Principal axes and moments of inertia in atomic units:
                           1         2         3
     Eigenvalues --   449.20359 620.470391044.92926
           X            0.00007   1.00000   0.00000
           Y            1.00000  -0.00007   0.00000
           Z           -0.00000  -0.00000   1.00000
 This molecule is an asymmetric top.
 Rotational symmetry number  2.
 Warning -- assumption of classical behavior for rotation
           may cause significant error
 Rotational temperatures (Kelvin)      0.19282     0.13959     0.08289
 Rotational constants (GHZ):           4.01765     2.90867     1.72714
    1 imaginary frequencies ignored.
 Zero-point vibrational energy       7857.2 (Joules/Mol)
                                    1.87793 (Kcal/Mol)
 Warning -- explicit consideration of   5 degrees of freedom as
           vibrations may cause significant error
 Vibrational temperatures:    171.32   249.64   311.96   485.41   671.68
          (Kelvin)

 Zero-point correction=                           0.002993 (Hartree/Particle)
 Thermal correction to Energy=                    0.008288
 Thermal correction to Enthalpy=                  0.009232
 Thermal correction to Gibbs Free Energy=        -0.028050
 Sum of electronic and zero-point Energies=          -1592.483077
 Sum of electronic and thermal Energies=             -1592.477782
 Sum of electronic and thermal Enthalpies=           -1592.476838
 Sum of electronic and thermal Free Energies=        -1592.514119

                     E (Thermal)             CV                S
                      KCal/Mol        Cal/Mol-Kelvin    Cal/Mol-Kelvin
 Total                    5.201             14.510             78.466
 Electronic               0.000              0.000              2.755
 Translational            0.889              2.981             40.451
 Rotational               0.889              2.981             25.790
 Vibrational              3.423              8.548              9.469
 Vibration     1          0.609              1.933              3.115
 Vibration     2          0.627              1.875              2.397
 Vibration     3          0.646              1.815              1.985
 Vibration     4          0.718              1.601              1.225
 Vibration     5          0.824              1.324              0.746

 Optimization completed.
    -- Stationary point found.
 Normal termination of Gaussian 09 at Sun Oct 23 21:36:24 2016.
