 Gaussian 09, Revision E.01,
 Gaussian 09:  EM64L-G09RevE.01 30-Nov-2015

 ---------------------------------------------
 #p b3lyp/6-311++G(3df,2p) freq symmetry=Loose
 ---------------------------------------------

 ---------
 b3lyp opt
 ---------
 Symbolic Z-matrix:
 Charge =  0 Multiplicity = 3

                         Standard orientation:
 ---------------------------------------------------------------------
 Center     Atomic      Atomic             Coordinates (Angstroms)
 Number     Number       Type             X           Y           Z
 ---------------------------------------------------------------------
      1         16           0        1.156247    1.002422    0.000627
      2         16           0       -1.156134    1.002526   -0.000627
      3         16           0        1.155724   -1.002521   -0.000628
      4         16           0       -1.155838   -1.002428    0.000628
 ---------------------------------------------------------------------

 SCF Done:  E(UB3LYP) =  -1592.85695306     A.U. after   15 cycles

 The electronic state is 3-A.
 Alpha  occ. eigenvalues --  -88.91248 -88.91248 -88.91242 -88.91241  -7.99434
 Alpha  occ. eigenvalues --   -7.99430  -7.99423  -7.99423  -5.95765  -5.95761
 Alpha  occ. eigenvalues --   -5.95747  -5.95743  -5.95500  -5.95499  -5.95473
 Alpha  occ. eigenvalues --   -5.95472  -5.95150  -5.95150  -5.95143  -5.95143
 Alpha  occ. eigenvalues --   -0.87875  -0.79143  -0.70547  -0.60088  -0.46814
 Alpha  occ. eigenvalues --   -0.42890  -0.40171  -0.37319  -0.33299  -0.33060
 Alpha  occ. eigenvalues --   -0.28531  -0.23757  -0.21880
 Alpha virt. eigenvalues --   -0.09125  -0.08198  -0.01627   0.00833   0.03031
 Alpha virt. eigenvalues --    0.03914   0.03930   0.04102   0.04710   0.06676
 Alpha virt. eigenvalues --    0.07111   0.07290   0.09094   0.09714   0.10679

  Beta  occ. eigenvalues --  -88.90890 -88.90890 -88.90883 -88.90883  -7.99097
  Beta  occ. eigenvalues --   -7.99094  -7.99087  -7.99086  -5.95415  -5.95415
  Beta  occ. eigenvalues --   -5.95376  -5.95376  -5.95063  -5.95058  -5.95054
  Beta  occ. eigenvalues --   -5.95049  -5.94455  -5.94455  -5.94448  -5.94448
  Beta  occ. eigenvalues --   -0.86011  -0.76919  -0.68399  -0.57467  -0.44539
  Beta  occ. eigenvalues --   -0.41330  -0.37791  -0.36271  -0.31165  -0.30199
  Beta  occ. eigenvalues --   -0.25081
  Beta virt. eigenvalues --   -0.16216  -0.14489  -0.08076  -0.05010  -0.00645
  Beta virt. eigenvalues --    0.01006   0.03309   0.04021   0.04172   0.04233
  Beta virt. eigenvalues --    0.04972   0.06854   0.07222   0.07643   0.09259

 Mulliken charges and spin densities:
               1          2
     1  S   -0.000096   0.500356
     2  S   -0.000093   0.500361
     3  S    0.000098   0.499646
     4  S    0.000091   0.499638
 Sum of Mulliken charges =  -0.00000   2.00000

 Dipole moment (field-independent basis, Debye):
    X=              0.0000    Y=             -0.0016    Z=             -0.0000  Tot=              0.0016
 Quadrupole moment (field-independent basis, Debye-Ang):
   XX=            -51.4503   YY=            -48.3046   ZZ=            -54.0781
   XY=              0.0003   XZ=              0.0000   YZ=             -0.0000

  Exact polarizability: 114.006  -0.000  92.309   0.000  -0.000  55.597
 Approx polarizability: 278.666   0.001 231.029   0.000  -0.000  93.325

 ******    1 imaginary frequencies (negative Signs) ******

                      1                      2                      3
                      A                      A                      A
 Frequencies --   -133.9611               100.4793               285.9397
 Red. masses --     31.9721                31.9721                31.9721
 Frc consts  --      0.3380                 0.1902                 1.5402
 IR Inten    --     19.8764                 0.0000                 0.0000

                      4                      5                      6
                      A                      A                      A
 Frequencies --    381.1644               510.9355               606.8774
 Red. masses --     31.9721                31.9721                31.9721
 Frc consts  --      2.7368                 4.9176                 6.9378
 IR Inten    --      0.0000                25.4790                 0.0000

 - Thermochemistry -
 -------------------
 Temperature   298.150 Kelvin.  Pressure   1.00000 Atm.
 Atom     1 has atomic number 16 and mass  31.97207

 Molecular mass:   127.88829 amu.
 Principal axes and moments of inertia in atomic units:
                           1         2         3
     Eigenvalues --   458.96019 610.286421069.24626
           X            1.00000   0.00000  -0.00000
           Y           -0.00000   1.00000   0.00000
           Z            0.00000  -0.00000   1.00000
 This molecule is an asymmetric top.
 Rotational symmetry number  1.
 Warning -- assumption of classical behavior for rotation
           may cause significant error
 Rotational temperatures (Kelvin)      0.18872     0.14192     0.08100
 Rotational constants (GHZ):           3.93224     2.95720     1.68786
    1 imaginary frequencies ignored.
 Zero-point vibrational energy      11277.2 (Joules/Mol)
                                    2.69531 (Kcal/Mol)
 Warning -- explicit consideration of   5 degrees of freedom as
           vibrations may cause significant error
 Vibrational temperatures:    144.57   411.40   548.41   735.12   873.16
          (Kelvin)

 Zero-point correction=                           0.004295 (Hartree/Particle)
 Thermal correction to Energy=                    0.009000
 Thermal correction to Enthalpy=                  0.009944
 Thermal correction to Gibbs Free Energy=        -0.026582
 Sum of electronic and zero-point Energies=          -1592.852658
 Sum of electronic and thermal Energies=             -1592.847953
 Sum of electronic and thermal Enthalpies=           -1592.847009
 Sum of electronic and thermal Free Energies=        -1592.883536

                     E (Thermal)             CV                S
                      KCal/Mol        Cal/Mol-Kelvin    Cal/Mol-Kelvin
 Total                    5.648             13.363             76.877
 Electronic               0.000              0.000              2.183
 Translational            0.889              2.981             40.451
 Rotational               0.889              2.981             27.196
 Vibrational              3.870              7.402              7.047
 Vibration     1          0.604              1.949              3.445
 Vibration     2          0.684              1.700              1.498
 Vibration     3          0.751              1.510              1.035
 Vibration     4          0.866              1.226              0.631
 Vibration     5          0.966              1.017              0.438

 Optimization completed.
    -- Stationary point found.
 Normal termination of Gaussian 09 at Sun Oct 23 21:27:37 2016.
