 Gaussian 09, Revision E.01,
 Gaussian 09:  EM64L-G09RevE.01 30-Nov-2015

 ---------------------------------------------
 #p b3lyp/6-311++G(3df,2p) freq symmetry=Loose
 ---------------------------------------------

 ---------
 b3lyp opt
 ---------
 Symbolic Z-matrix:
 Charge =  1 Multiplicity = 4

                         Standard orientation:
 ---------------------------------------------------------------------
 Center     Atomic      Atomic             Coordinates (Angstroms)
 Number     Number       Type             X           Y           Z
 ---------------------------------------------------------------------
      1         16           0       -0.000000    2.316055    0.000000
      2         16           0        1.300431    0.974590    0.000000
      3         16           0        0.282880   -1.600979    0.000000
      4         16           0       -1.583311   -1.689666    0.000000
 ---------------------------------------------------------------------

 SCF Done:  E(UB3LYP) =  -1592.55890294     A.U. after   15 cycles

 The electronic state is 4-A'.
 Alpha  occ. eigenvalues --  -89.13040 -89.13040 -89.12449 -89.12449  -8.21177
 Alpha  occ. eigenvalues --   -8.21174  -8.20623  -8.20621  -6.17344  -6.17343
 Alpha  occ. eigenvalues --   -6.17193  -6.17192  -6.17153  -6.17152  -6.16851
 Alpha  occ. eigenvalues --   -6.16851  -6.16758  -6.16758  -6.16595  -6.16594
 Alpha  occ. eigenvalues --   -1.06759  -1.05711  -0.85653  -0.82748  -0.63439
 Alpha  occ. eigenvalues --   -0.60374  -0.60085  -0.59609  -0.58365  -0.55966
 Alpha  occ. eigenvalues --   -0.46070  -0.45940  -0.44031
 Alpha virt. eigenvalues --   -0.36063  -0.22067  -0.18280  -0.15457  -0.11184
 Alpha virt. eigenvalues --   -0.10316  -0.09767  -0.09266  -0.08495  -0.07173
 Alpha virt. eigenvalues --   -0.06913  -0.06436  -0.05928  -0.05852  -0.04785

  Beta  occ. eigenvalues --  -89.12658 -89.12657 -89.11810 -89.11809  -8.20832
  Beta  occ. eigenvalues --   -8.20829  -8.20047  -8.20045  -6.17051  -6.17050
  Beta  occ. eigenvalues --   -6.16880  -6.16878  -6.16263  -6.16263  -6.16144
  Beta  occ. eigenvalues --   -6.16143  -6.15820  -6.15820  -6.15422  -6.15422
  Beta  occ. eigenvalues --   -1.04736  -1.03678  -0.81392  -0.78380  -0.61575
  Beta  occ. eigenvalues --   -0.58095  -0.57886  -0.55030  -0.53605  -0.52808
  Beta virt. eigenvalues --   -0.37988  -0.35151  -0.33117  -0.32132  -0.20890
  Beta virt. eigenvalues --   -0.16929  -0.15177  -0.10969  -0.09858  -0.09385
  Beta virt. eigenvalues --   -0.08848  -0.07848  -0.06770  -0.05819  -0.05600

 Mulliken charges and spin densities:
               1          2
     1  S    0.271813   0.939376
     2  S    0.228161   0.560615
     3  S    0.227819   0.560409
     4  S    0.272206   0.939600
 Sum of Mulliken charges =   1.00000   3.00000

 Dipole moment (field-independent basis, Debye):
    X=             -0.3578    Y=              0.1417    Z=             -0.0000  Tot=              0.3848
 Quadrupole moment (field-independent basis, Debye-Ang):
   XX=            -37.4513   YY=            -27.6485   ZZ=            -47.9822
   XY=              4.5879   XZ=             -0.0000   YZ=              0.0000

  Exact polarizability:  90.626  27.103 148.518  -0.000   0.000  47.671
 Approx polarizability: 218.025  38.298 299.934  -0.000  -0.000  78.533

 ******    1 imaginary frequencies (negative Signs) ******

                      1                      2                      3
                     A"                     A'                     A'
 Frequencies --    -43.5076                56.0533               147.7323
 Red. masses --     31.9721                31.9721                31.9721
 Frc consts  --      0.0357                 0.0592                 0.4111
 IR Inten    --      0.0000                 0.1174                 0.1002

                      4                      5                      6
                     A'                     A'                     A'
 Frequencies --    152.5349               717.1140               740.8317
 Red. masses --     31.9721                31.9721                31.9721
 Frc consts  --      0.4383                 9.6872                10.3386
 IR Inten    --      0.1624                83.3892                 1.3955

 - Thermochemistry -
 -------------------
 Temperature   298.150 Kelvin.  Pressure   1.00000 Atm.
 Atom     1 has atomic number 16 and mass  31.97207

 Molecular mass:   127.88829 amu.
 Principal axes and moments of inertia in atomic units:
                           1         2         3
     Eigenvalues --   331.018351496.919271827.93762
           X            0.36745   0.93004   0.00000
           Y            0.93004  -0.36745   0.00000
           Z            0.00000  -0.00000   1.00000
 This molecule is an asymmetric top.
 Rotational symmetry number  1.
 Rotational temperatures (Kelvin)      0.26166     0.05786     0.04738
 Rotational constants (GHZ):           5.45209     1.20564     0.98731
    1 imaginary frequencies ignored.
 Zero-point vibrational energy      10851.7 (Joules/Mol)
                                    2.59362 (Kcal/Mol)
 Warning -- explicit consideration of   3 degrees of freedom as
           vibrations may cause significant error
 Vibrational temperatures:     80.65   212.55   219.46  1031.77  1065.89
          (Kelvin)

 Zero-point correction=                           0.004133 (Hartree/Particle)
 Thermal correction to Energy=                    0.009277
 Thermal correction to Enthalpy=                  0.010222
 Thermal correction to Gibbs Free Energy=        -0.028731
 Sum of electronic and zero-point Energies=          -1592.554770
 Sum of electronic and thermal Energies=             -1592.549625
 Sum of electronic and thermal Enthalpies=           -1592.548681
 Sum of electronic and thermal Free Energies=        -1592.587634

                     E (Thermal)             CV                S
                      KCal/Mol        Cal/Mol-Kelvin    Cal/Mol-Kelvin
 Total                    5.822             13.292             81.982
 Electronic               0.000              0.000              2.755
 Translational            0.889              2.981             40.451
 Rotational               0.889              2.981             28.295
 Vibrational              4.044              7.330             10.481
 Vibration     1          0.596              1.975              4.592
 Vibration     2          0.617              1.905              2.701
 Vibration     3          0.619              1.900              2.640

 Normal termination of Gaussian 09 at Sun Oct 23 21:41:51 2016.
