 Gaussian 09, Revision E.01,
 Gaussian 09:  EM64L-G09RevE.01 30-Nov-2015

 ---------------------------------------------
 #p b3lyp/6-311++G(3df,2p) freq symmetry=Loose
 ---------------------------------------------

 ---------
 b3lyp opt
 ---------
 Symbolic Z-matrix:
 Charge =  1 Multiplicity = 4

                         Standard orientation:
 ---------------------------------------------------------------------
 Center     Atomic      Atomic             Coordinates (Angstroms)
 Number     Number       Type             X           Y           Z
 ---------------------------------------------------------------------
      1         16           0       -0.000000    1.567621    0.000000
      2         16           0       -1.528925    0.341734   -0.000000
      3         16           0        1.530050   -0.343141    0.000000
      4         16           0       -0.001125   -1.566215   -0.000000
 ---------------------------------------------------------------------

 SCF Done:  E(UB3LYP) =  -1592.53490328     A.U. after   13 cycles

 The electronic state is 4-A'.
 Alpha  occ. eigenvalues --  -89.14532 -89.14530 -89.14519 -89.14517  -8.22575
 Alpha  occ. eigenvalues --   -8.22570  -8.22558  -8.22556  -6.18806  -6.18804
 Alpha  occ. eigenvalues --   -6.18783  -6.18782  -6.18643  -6.18641  -6.18633
 Alpha  occ. eigenvalues --   -6.18631  -6.18534  -6.18533  -6.18492  -6.18492
 Alpha  occ. eigenvalues --   -1.10075  -1.03496  -0.91135  -0.82973  -0.68296
 Alpha  occ. eigenvalues --   -0.63982  -0.62509  -0.59887  -0.57095  -0.53310
 Alpha  occ. eigenvalues --   -0.50083  -0.48298  -0.44891
 Alpha virt. eigenvalues --   -0.31683  -0.27669  -0.21427  -0.15582  -0.11853
 Alpha virt. eigenvalues --   -0.10646  -0.10451  -0.10176  -0.10065  -0.09058
 Alpha virt. eigenvalues --   -0.08932  -0.07024  -0.05884  -0.05774  -0.05431

  Beta  occ. eigenvalues --  -89.14003 -89.14001 -89.13987 -89.13985  -8.22087
  Beta  occ. eigenvalues --   -8.22083  -8.22068  -8.22066  -6.18345  -6.18344
  Beta  occ. eigenvalues --   -6.18290  -6.18290  -6.17998  -6.17996  -6.17978
  Beta  occ. eigenvalues --   -6.17976  -6.17425  -6.17423  -6.17410  -6.17408
  Beta  occ. eigenvalues --   -1.07343  -1.00517  -0.87409  -0.78954  -0.65346
  Beta  occ. eigenvalues --   -0.61968  -0.58296  -0.57613  -0.51921  -0.50804
  Beta virt. eigenvalues --   -0.40012  -0.39426  -0.33995  -0.27772  -0.26147
  Beta virt. eigenvalues --   -0.19800  -0.15121  -0.11351  -0.10212  -0.10161
  Beta virt. eigenvalues --   -0.09773  -0.08795  -0.07988  -0.07663  -0.06649

 Mulliken charges and spin densities:
               1          2
     1  S    0.249948   0.752389
     2  S    0.250051   0.747612
     3  S    0.250181   0.751938
     4  S    0.249820   0.748060
 Sum of Mulliken charges =   1.00000   3.00000

 Dipole moment (field-independent basis, Debye):
    X=             -0.0003    Y=             -0.0002    Z=             -0.0000  Tot=              0.0003
 Quadrupole moment (field-independent basis, Debye-Ang):
   XX=            -37.2673   YY=            -37.2265   ZZ=            -47.7903
   XY=             -0.1091   XZ=             -0.0000   YZ=              0.0000

  Exact polarizability:  86.366  -4.815  88.497  -0.000  -0.000  45.093
 Approx polarizability: 215.316   9.058 211.138   0.000   0.000  77.484

 ******    1 imaginary frequencies (negative Signs) ******

                      1                      2                      3
                     A'                     A"                     A'
 Frequencies --   -107.8065               130.6490               249.0983
 Red. masses --     31.9721                31.9721                31.9721
 Frc consts  --      0.2189                 0.3215                 1.1689
 IR Inten    --      0.0448                 0.0000                 0.0004

                      4                      5                      6
                     A'                     A'                     A'
 Frequencies --    340.1378               581.0502               656.9087
 Red. masses --     31.9721                31.9721                31.9721
 Frc consts  --      2.1794                 6.3599                 8.1289
 IR Inten    --      0.0000                 0.2946                 0.0000

 - Thermochemistry -
 -------------------
 Temperature   298.150 Kelvin.  Pressure   1.00000 Atm.
 Atom     1 has atomic number 16 and mass  31.97207

 Molecular mass:   127.88829 amu.
 Principal axes and moments of inertia in atomic units:
                           1         2         3
     Eigenvalues --   438.47582 683.134371121.61019
           X           -0.62545   0.78026   0.00000
           Y            0.78026   0.62545   0.00000
           Z           -0.00000  -0.00000   1.00000
 This molecule is an asymmetric top.
 Rotational symmetry number  1.
 Warning -- assumption of classical behavior for rotation
           may cause significant error
 Rotational temperatures (Kelvin)      0.19753     0.12679     0.07722
 Rotational constants (GHZ):           4.11594     2.64185     1.60906
    1 imaginary frequencies ignored.
 Zero-point vibrational energy      11710.5 (Joules/Mol)
                                    2.79888 (Kcal/Mol)
 Warning -- explicit consideration of   4 degrees of freedom as
           vibrations may cause significant error
 Vibrational temperatures:    187.97   358.40   489.38   836.00   945.14
          (Kelvin)

 Zero-point correction=                           0.004460 (Hartree/Particle)
 Thermal correction to Energy=                    0.009132
 Thermal correction to Enthalpy=                  0.010077
 Thermal correction to Gibbs Free Energy=        -0.026625
 Sum of electronic and zero-point Energies=          -1592.530443
 Sum of electronic and thermal Energies=             -1592.525771
 Sum of electronic and thermal Enthalpies=           -1592.524827
 Sum of electronic and thermal Free Energies=        -1592.561529

                     E (Thermal)             CV                S
                      KCal/Mol        Cal/Mol-Kelvin    Cal/Mol-Kelvin
 Total                    5.731             13.230             77.246
 Electronic               0.000              0.000              2.755
 Translational            0.889              2.981             40.451
 Rotational               0.889              2.981             27.310
 Vibrational              3.953              7.268              6.730
 Vibration     1          0.612              1.923              2.936
 Vibration     2          0.662              1.764              1.737
 Vibration     3          0.720              1.595              1.212
 Vibration     4          0.938              1.072              0.483

 Normal termination of Gaussian 09 at Sun Oct 23 21:41:42 2016.
