 Gaussian 09, Revision E.01,
 Gaussian 09:  EM64L-G09RevE.01 30-Nov-2015

 ---------------------------------------------
 #p b3lyp/6-311++G(3df,2p) freq symmetry=Loose
 ---------------------------------------------

 ---------
 b3lyp opt
 ---------
 Symbolic Z-matrix:
 Charge =  1 Multiplicity = 4

                         Standard orientation:
 ---------------------------------------------------------------------
 Center     Atomic      Atomic             Coordinates (Angstroms)
 Number     Number       Type             X           Y           Z
 ---------------------------------------------------------------------
      1         16           0        1.631961   -0.000293    0.165650
      2         16           0        0.000000    1.382775   -0.165645
      3         16           0       -1.631961    0.000293    0.165650
      4         16           0       -0.000000   -1.382775   -0.165645
 ---------------------------------------------------------------------

 SCF Done:  E(UB3LYP) =  -1592.48606958     A.U. after   17 cycles

 The electronic state is 4-A.
 Alpha  occ. eigenvalues --  -89.17189 -89.17188 -89.13567 -89.13567  -8.25114
 Alpha  occ. eigenvalues --   -8.25111  -8.21532  -8.21530  -6.21550  -6.21550
 Alpha  occ. eigenvalues --   -6.21252  -6.21252  -6.20880  -6.20879  -6.17809
 Alpha  occ. eigenvalues --   -6.17809  -6.17763  -6.17762  -6.17181  -6.17181
 Alpha  occ. eigenvalues --   -1.10950  -0.98130  -0.96991  -0.83497  -0.68230
 Alpha  occ. eigenvalues --   -0.65895  -0.63322  -0.59477  -0.57182  -0.54608
 Alpha  occ. eigenvalues --   -0.51604  -0.45681  -0.41825
 Alpha virt. eigenvalues --   -0.33122  -0.29365  -0.27257  -0.15648  -0.11263
 Alpha virt. eigenvalues --   -0.11013  -0.10954  -0.10271  -0.09740  -0.08677
 Alpha virt. eigenvalues --   -0.07953  -0.07459  -0.07006  -0.06632  -0.05069

  Beta  occ. eigenvalues --  -89.16481 -89.16481 -89.13197 -89.13197  -8.24446
  Beta  occ. eigenvalues --   -8.24444  -8.21199  -8.21196  -6.20874  -6.20873
  Beta  occ. eigenvalues --   -6.20085  -6.20085  -6.19805  -6.19805  -6.17591
  Beta  occ. eigenvalues --   -6.17591  -6.17106  -6.17106  -6.16493  -6.16493
  Beta  occ. eigenvalues --   -1.08033  -0.94888  -0.93626  -0.79593  -0.66035
  Beta  occ. eigenvalues --   -0.63035  -0.58006  -0.57995  -0.53869  -0.48466
  Beta virt. eigenvalues --   -0.42197  -0.35831  -0.33166  -0.32185  -0.26159
  Beta virt. eigenvalues --   -0.24867  -0.15121  -0.10619  -0.10561  -0.10258
  Beta virt. eigenvalues --   -0.09758  -0.09567  -0.07704  -0.06439  -0.06358

 Mulliken charges and spin densities:
               1          2
     1  S    0.136683   0.550989
     2  S    0.363317   0.949011
     3  S    0.136683   0.550989
     4  S    0.363317   0.949011
 Sum of Mulliken charges =   1.00000   3.00000

 Dipole moment (field-independent basis, Debye):
    X=             -0.0000    Y=              0.0000    Z=              0.1072  Tot=              0.1072
 Quadrupole moment (field-independent basis, Debye-Ang):
   XX=            -38.2945   YY=            -38.0201   ZZ=            -47.9602
   XY=              0.0088   XZ=             -0.0000   YZ=             -0.0000

  Exact polarizability:  99.859   0.002  80.602  -0.000   0.000  46.913
 Approx polarizability: 287.851   0.196 194.152   0.000   0.000  82.472

 ******    1 imaginary frequencies (negative Signs) ******

                      1                      2                      3
                      A                      A                      B
 Frequencies --   -885.9410               120.2322               172.0000
 Red. masses --     31.9721                31.9721                31.9721
 Frc consts  --     14.7853                 0.2723                 0.5573
 IR Inten    --      0.0000                 0.0233                25.8371

                      4                      5                      6
                      B                      A                      A
 Frequencies --    216.5922               337.3590               466.7163
 Red. masses --     31.9721                31.9721                31.9721
 Frc consts  --      0.8837                 2.1439                 4.1032
 IR Inten    --      8.3164                 0.3763                 0.1396

 - Thermochemistry -
 -------------------
 Temperature   298.150 Kelvin.  Pressure   1.00000 Atm.
 Atom     1 has atomic number 16 and mass  31.97207

 Molecular mass:   127.88829 amu.
 Principal axes and moments of inertia in atomic units:
                           1         2         3
     Eigenvalues --   449.14917 620.691771044.77825
           X            1.00000   0.00064   0.00000
           Y           -0.00064   1.00000   0.00000
           Z           -0.00000  -0.00000   1.00000
 This molecule is an asymmetric top.
 Rotational symmetry number  2.
 Warning -- assumption of classical behavior for rotation
           may cause significant error
 Rotational temperatures (Kelvin)      0.19284     0.13954     0.08290
 Rotational constants (GHZ):           4.01813     2.90763     1.72739
    1 imaginary frequencies ignored.
 Zero-point vibrational energy       7852.9 (Joules/Mol)
                                    1.87688 (Kcal/Mol)
 Warning -- explicit consideration of   5 degrees of freedom as
           vibrations may cause significant error
 Vibrational temperatures:    172.99   247.47   311.63   485.38   671.50
          (Kelvin)

 Zero-point correction=                           0.002991 (Hartree/Particle)
 Thermal correction to Energy=                    0.008287
 Thermal correction to Enthalpy=                  0.009231
 Thermal correction to Gibbs Free Energy=        -0.028051
 Sum of electronic and zero-point Energies=          -1592.483079
 Sum of electronic and thermal Energies=             -1592.477783
 Sum of electronic and thermal Enthalpies=           -1592.476839
 Sum of electronic and thermal Free Energies=        -1592.514120

                     E (Thermal)             CV                S
                      KCal/Mol        Cal/Mol-Kelvin    Cal/Mol-Kelvin
 Total                    5.200             14.511             78.466
 Electronic               0.000              0.000              2.755
 Translational            0.889              2.981             40.451
 Rotational               0.889              2.981             25.791
 Vibrational              3.423              8.550              9.469
 Vibration     1          0.609              1.932              3.097
 Vibration     2          0.626              1.877              2.414
 Vibration     3          0.645              1.816              1.987
 Vibration     4          0.718              1.601              1.225
 Vibration     5          0.824              1.324              0.747

 Optimization completed.
    -- Stationary point found.
 Normal termination of Gaussian 09 at Sun Oct 23 21:36:29 2016.
