 Gaussian 09, Revision E.01,
 Gaussian 09:  EM64L-G09RevE.01 30-Nov-2015

 ---------------------------------------------
 #p b3lyp/6-311++G(3df,2p) freq symmetry=Loose
 ---------------------------------------------

 ---------
 b3lyp opt
 ---------
 Symbolic Z-matrix:
 Charge =  0 Multiplicity = 3

                         Standard orientation:
 ---------------------------------------------------------------------
 Center     Atomic      Atomic             Coordinates (Angstroms)
 Number     Number       Type             X           Y           Z
 ---------------------------------------------------------------------
      1         16           0        1.156343    1.002492    0.000379
      2         16           0        1.155283   -1.002285   -0.000380
      3         16           0       -1.156582    1.002284   -0.000379
      4         16           0       -1.155044   -1.002491    0.000380
 ---------------------------------------------------------------------

 SCF Done:  E(UB3LYP) =  -1592.85695297     A.U. after   13 cycles

 The electronic state is 3-A.
 Alpha  occ. eigenvalues --  -88.91254 -88.91254 -88.91233 -88.91233  -7.99439
 Alpha  occ. eigenvalues --   -7.99436  -7.99417  -7.99415  -5.95768  -5.95765
 Alpha  occ. eigenvalues --   -5.95741  -5.95738  -5.95502  -5.95500  -5.95469
 Alpha  occ. eigenvalues --   -5.95468  -5.95156  -5.95156  -5.95135  -5.95135
 Alpha  occ. eigenvalues --   -0.87883  -0.79145  -0.70551  -0.60084  -0.46820
 Alpha  occ. eigenvalues --   -0.42893  -0.40176  -0.37318  -0.33299  -0.33062
 Alpha  occ. eigenvalues --   -0.28532  -0.23753  -0.21877
 Alpha virt. eigenvalues --   -0.09123  -0.08190  -0.01621   0.00833   0.03031
 Alpha virt. eigenvalues --    0.03913   0.03930   0.04102   0.04709   0.06676
 Alpha virt. eigenvalues --    0.07111   0.07292   0.09095   0.09715   0.10679

  Beta  occ. eigenvalues --  -88.90897 -88.90897 -88.90874 -88.90874  -7.99102
  Beta  occ. eigenvalues --   -7.99101  -7.99079  -7.99079  -5.95417  -5.95417
  Beta  occ. eigenvalues --   -5.95372  -5.95372  -5.95070  -5.95065  -5.95045
  Beta  occ. eigenvalues --   -5.95040  -5.94461  -5.94461  -5.94440  -5.94440
  Beta  occ. eigenvalues --   -0.86019  -0.76921  -0.68403  -0.57463  -0.44544
  Beta  occ. eigenvalues --   -0.41334  -0.37796  -0.36270  -0.31167  -0.30199
  Beta  occ. eigenvalues --   -0.25082
  Beta virt. eigenvalues --   -0.16211  -0.14485  -0.08075  -0.05002  -0.00639
  Beta virt. eigenvalues --    0.01006   0.03309   0.04021   0.04172   0.04233
  Beta virt. eigenvalues --    0.04971   0.06854   0.07222   0.07645   0.09259

 Mulliken charges and spin densities:
               1          2
     1  S   -0.000295   0.501143
     2  S    0.000294   0.498857
     3  S   -0.000305   0.501130
     4  S    0.000306   0.498870
 Sum of Mulliken charges =  -0.00000   2.00000

 Dipole moment (field-independent basis, Debye):
    X=             -0.0000    Y=             -0.0050    Z=              0.0000  Tot=              0.0050
 Quadrupole moment (field-independent basis, Debye-Ang):
   XX=            -51.4519   YY=            -48.3049   ZZ=            -54.0765
   XY=             -0.0006   XZ=              0.0000   YZ=              0.0000

  Exact polarizability: 113.980   0.001  92.295   0.000   0.000  55.592
 Approx polarizability: 278.530  -0.001 230.961   0.000   0.000  93.318

 ******    1 imaginary frequencies (negative Signs) ******

                      1                      2                      3
                      A                      A                      A
 Frequencies --   -133.7586               100.4192               285.9959
 Red. masses --     31.9721                31.9721                31.9721
 Frc consts  --      0.3370                 0.1900                 1.5408
 IR Inten    --     19.8783                 0.0000                 0.0000

                      4                      5                      6
                      A                      A                      A
 Frequencies --    381.4133               511.1988               607.1216
 Red. masses --     31.9721                31.9721                31.9721
 Frc consts  --      2.7404                 4.9227                 6.9434
 IR Inten    --      0.0001                25.4603                 0.0001

 - Thermochemistry -
 -------------------
 Temperature   298.150 Kelvin.  Pressure   1.00000 Atm.
 Atom     1 has atomic number 16 and mass  31.97207

 Molecular mass:   127.88829 amu.
 Principal axes and moments of inertia in atomic units:
                           1         2         3
     Eigenvalues --   458.88118 610.104071068.98511
           X            1.00000   0.00000  -0.00000
           Y           -0.00000   1.00000  -0.00000
           Z            0.00000   0.00000   1.00000
 This molecule is an asymmetric top.
 Rotational symmetry number  1.
 Warning -- assumption of classical behavior for rotation
           may cause significant error
 Rotational temperatures (Kelvin)      0.18875     0.14197     0.08102
 Rotational constants (GHZ):           3.93292     2.95809     1.68828
    1 imaginary frequencies ignored.
 Zero-point vibrational energy      11281.7 (Joules/Mol)
                                    2.69639 (Kcal/Mol)
 Warning -- explicit consideration of   5 degrees of freedom as
           vibrations may cause significant error
 Vibrational temperatures:    144.48   411.48   548.77   735.50   873.51
          (Kelvin)

 Zero-point correction=                           0.004297 (Hartree/Particle)
 Thermal correction to Energy=                    0.009001
 Thermal correction to Enthalpy=                  0.009945
 Thermal correction to Gibbs Free Energy=        -0.026580
 Sum of electronic and zero-point Energies=          -1592.852656
 Sum of electronic and thermal Energies=             -1592.847952
 Sum of electronic and thermal Enthalpies=           -1592.847008
 Sum of electronic and thermal Free Energies=        -1592.883533

                     E (Thermal)             CV                S
                      KCal/Mol        Cal/Mol-Kelvin    Cal/Mol-Kelvin
 Total                    5.648             13.362             76.875
 Electronic               0.000              0.000              2.183
 Translational            0.889              2.981             40.451
 Rotational               0.889              2.981             27.195
 Vibrational              3.871              7.400              7.046
 Vibration     1          0.604              1.949              3.446
 Vibration     2          0.684              1.700              1.498
 Vibration     3          0.751              1.510              1.034
 Vibration     4          0.866              1.225              0.631
 Vibration     5          0.966              1.017              0.438

 Normal termination of Gaussian 09 at Sun Oct 23 21:27:35 2016.
