 Gaussian 09, Revision E.01,
 Gaussian 09:  EM64L-G09RevE.01 30-Nov-2015

 ---------------------------------------------
 #p b3lyp/6-311++G(3df,2p) freq symmetry=Loose
 ---------------------------------------------

 ---------
 b3lyp opt
 ---------
 Symbolic Z-matrix:
 Charge =  0 Multiplicity = 3

                         Standard orientation:
 ---------------------------------------------------------------------
 Center     Atomic      Atomic             Coordinates (Angstroms)
 Number     Number       Type             X           Y           Z
 ---------------------------------------------------------------------
      1         16           0       -0.000000   -1.263028    0.395322
      2         16           0        1.619578   -0.000000   -0.395311
      3         16           0        0.000000    1.263028    0.395322
      4         16           0       -1.619578    0.000000   -0.395311
 ---------------------------------------------------------------------

 SCF Done:  E(UB3LYP) =  -1592.78594981     A.U. after   14 cycles

 The electronic state is 3-A1.
 Alpha  occ. eigenvalues --  -88.93680 -88.93680 -88.90284 -88.90284  -8.01746
 Alpha  occ. eigenvalues --   -8.01745  -7.98382  -7.98379  -5.97990  -5.97990
 Alpha  occ. eigenvalues --   -5.97968  -5.97967  -5.97469  -5.97468  -5.94782
 Alpha  occ. eigenvalues --   -5.94782  -5.94683  -5.94683  -5.93686  -5.93686
 Alpha  occ. eigenvalues --   -0.88297  -0.73755  -0.73618  -0.62255  -0.44495
 Alpha  occ. eigenvalues --   -0.43596  -0.40014  -0.39442  -0.36024  -0.27739
 Alpha  occ. eigenvalues --   -0.27736  -0.25539  -0.19531
 Alpha virt. eigenvalues --   -0.11088  -0.10691  -0.08539   0.00687   0.03266
 Alpha virt. eigenvalues --    0.03699   0.03720   0.04466   0.04997   0.05981
 Alpha virt. eigenvalues --    0.06191   0.06224   0.09013   0.09580   0.09771

  Beta  occ. eigenvalues --  -88.93148 -88.93148 -88.90113 -88.90113  -8.01237
  Beta  occ. eigenvalues --   -8.01237  -7.98224  -7.98221  -5.97689  -5.97689
  Beta  occ. eigenvalues --   -5.96971  -5.96971  -5.96607  -5.96606  -5.94640
  Beta  occ. eigenvalues --   -5.94640  -5.94183  -5.94183  -5.93592  -5.93592
  Beta  occ. eigenvalues --   -0.86133  -0.72599  -0.70294  -0.60081  -0.41698
  Beta  occ. eigenvalues --   -0.41684  -0.38700  -0.37021  -0.33591  -0.27384
  Beta  occ. eigenvalues --   -0.23968
  Beta virt. eigenvalues --   -0.17956  -0.11750  -0.10223  -0.08504  -0.07054
  Beta virt. eigenvalues --    0.00835   0.03733   0.03854   0.03872   0.04729
  Beta virt. eigenvalues --    0.05410   0.06213   0.06218   0.06472   0.09245

 Mulliken charges and spin densities:
               1          2
     1  S    0.138115   0.678845
     2  S   -0.138115   0.321155
     3  S    0.138115   0.678845
     4  S   -0.138115   0.321155
 Sum of Mulliken charges =  -0.00000   2.00000

 Dipole moment (field-independent basis, Debye):
    X=              0.0000    Y=             -0.0000    Z=              0.1599  Tot=              0.1599
 Quadrupole moment (field-independent basis, Debye-Ang):
   XX=            -52.4350   YY=            -49.1111   ZZ=            -54.2040
   XY=              0.0000   XZ=              0.0000   YZ=              0.0000

  Exact polarizability: 118.045   0.000 108.087   0.000   0.000  64.887
 Approx polarizability: 295.578  -0.000 246.695   0.000  -0.000 116.550

 ******    3 imaginary frequencies (negative Signs) ******

                      1                      2                      3
                     A2                     B1                     B2
 Frequencies --   -572.4408              -307.8882              -212.0193
 Red. masses --     31.9721                31.9721                31.9721
 Frc consts  --      6.1728                 1.7857                 0.8468
 IR Inten    --      0.0000               156.7283                28.2695

                      4                      5                      6
                     A1                     A1                     A1
 Frequencies --    217.3740               332.6514               463.3450
 Red. masses --     31.9721                31.9721                31.9721
 Frc consts  --      0.8901                 2.0845                 4.0442
 IR Inten    --      0.4932                 0.1050                 0.0001

 - Thermochemistry -
 -------------------
 Temperature   298.150 Kelvin.  Pressure   1.00000 Atm.
 Atom     1 has atomic number 16 and mass  31.97207

 Molecular mass:   127.88829 amu.
 Principal axes and moments of inertia in atomic units:
                           1         2         3
     Eigenvalues --   435.64144 670.33639 963.23672
           X            1.00000   0.00000   0.00000
           Y           -0.00000   1.00000   0.00000
           Z            0.00000  -0.00000   1.00000
 This molecule is an asymmetric top.
 Rotational symmetry number  2.
 Warning -- assumption of classical behavior for rotation
           may cause significant error
 Rotational temperatures (Kelvin)      0.19882     0.12921     0.08992
 Rotational constants (GHZ):           4.14272     2.69229     1.87362
    3 imaginary frequencies ignored.
 Zero-point vibrational energy       6061.3 (Joules/Mol)
                                    1.44869 (Kcal/Mol)
 Warning -- explicit consideration of   3 degrees of freedom as
           vibrations may cause significant error
 Vibrational temperatures:    312.75   478.61   666.65
          (Kelvin)

 Zero-point correction=                           0.002309 (Hartree/Particle)
 Thermal correction to Energy=                    0.006309
 Thermal correction to Enthalpy=                  0.007253
 Thermal correction to Gibbs Free Energy=        -0.027135
 Sum of electronic and zero-point Energies=          -1592.783641
 Sum of electronic and thermal Energies=             -1592.779641
 Sum of electronic and thermal Enthalpies=           -1592.778697
 Sum of electronic and thermal Free Energies=        -1592.813085

                     E (Thermal)             CV                S
                      KCal/Mol        Cal/Mol-Kelvin    Cal/Mol-Kelvin
 Total                    3.959             10.718             72.375
 Electronic               0.000              0.000              2.183
 Translational            0.889              2.981             40.451
 Rotational               0.889              2.981             25.756
 Vibrational              2.181              4.756              3.984
 Vibration     1          0.646              1.815              1.981
 Vibration     2          0.715              1.610              1.247
 Vibration     3          0.821              1.331              0.756

 Optimization completed.
    -- Stationary point found.
 Normal termination of Gaussian 09 at Sun Oct 23 21:22:04 2016.
