 Gaussian 09, Revision E.01,
 Gaussian 09:  EM64L-G09RevE.01 30-Nov-2015

 ---------------------------------------------
 #p b3lyp/6-311++G(3df,2p) freq symmetry=Loose
 ---------------------------------------------

 ---------
 b3lyp opt
 ---------
 Symbolic Z-matrix:
 Charge =  1 Multiplicity = 4

                         Standard orientation:
 ---------------------------------------------------------------------
 Center     Atomic      Atomic             Coordinates (Angstroms)
 Number     Number       Type             X           Y           Z
 ---------------------------------------------------------------------
      1         16           0        0.000000    1.567389    0.000000
      2         16           0       -1.529154   -0.342284   -0.000000
      3         16           0        1.528663    0.341699    0.000000
      4         16           0        0.000491   -1.566805   -0.000000
 ---------------------------------------------------------------------

 SCF Done:  E(UB3LYP) =  -1592.53490326     A.U. after   13 cycles

 The electronic state is 4-A'.
 Alpha  occ. eigenvalues --  -89.14527 -89.14526 -89.14521 -89.14520  -8.22572
 Alpha  occ. eigenvalues --   -8.22567  -8.22560  -8.22559  -6.18804  -6.18803
 Alpha  occ. eigenvalues --   -6.18785  -6.18783  -6.18640  -6.18639  -6.18634
 Alpha  occ. eigenvalues --   -6.18633  -6.18532  -6.18532  -6.18492  -6.18492
 Alpha  occ. eigenvalues --   -1.10087  -1.03503  -0.91138  -0.82968  -0.68305
 Alpha  occ. eigenvalues --   -0.63987  -0.62516  -0.59888  -0.57098  -0.53311
 Alpha  occ. eigenvalues --   -0.50084  -0.48297  -0.44887
 Alpha virt. eigenvalues --   -0.31675  -0.27664  -0.21417  -0.15585  -0.11855
 Alpha virt. eigenvalues --   -0.10648  -0.10452  -0.10178  -0.10069  -0.09057
 Alpha virt. eigenvalues --   -0.08933  -0.07025  -0.05885  -0.05775  -0.05430

  Beta  occ. eigenvalues --  -89.13997 -89.13996 -89.13990 -89.13989  -8.22083
  Beta  occ. eigenvalues --   -8.22079  -8.22071  -8.22070  -6.18343  -6.18343
  Beta  occ. eigenvalues --   -6.18291  -6.18290  -6.17992  -6.17990  -6.17982
  Beta  occ. eigenvalues --   -6.17981  -6.17420  -6.17420  -6.17413  -6.17412
  Beta  occ. eigenvalues --   -1.07356  -1.00524  -0.87411  -0.78950  -0.65355
  Beta  occ. eigenvalues --   -0.61973  -0.58297  -0.57621  -0.51925  -0.50806
  Beta virt. eigenvalues --   -0.40010  -0.39426  -0.33991  -0.27764  -0.26142
  Beta virt. eigenvalues --   -0.19790  -0.15123  -0.11353  -0.10214  -0.10162
  Beta virt. eigenvalues --   -0.09775  -0.08795  -0.07991  -0.07663  -0.06650

 Mulliken charges and spin densities:
               1          2
     1  S    0.249742   0.750662
     2  S    0.250313   0.751171
     3  S    0.250256   0.749317
     4  S    0.249689   0.748851
 Sum of Mulliken charges =   1.00000   3.00000

 Dipole moment (field-independent basis, Debye):
    X=              0.0001    Y=             -0.0001    Z=              0.0000  Tot=              0.0001
 Quadrupole moment (field-independent basis, Debye-Ang):
   XX=            -37.2761   YY=            -37.2234   ZZ=            -47.7883
   XY=              0.1075   XZ=              0.0000   YZ=              0.0000

  Exact polarizability:  86.319   4.808  88.491   0.000   0.000  45.087
 Approx polarizability: 215.087  -9.071 211.133   0.000   0.000  77.476

 ******    1 imaginary frequencies (negative Signs) ******

                      1                      2                      3
                     A'                     A"                     A'
 Frequencies --   -107.6351               130.3673               249.1451
 Red. masses --     31.9721                31.9721                31.9721
 Frc consts  --      0.2182                 0.3202                 1.1693
 IR Inten    --      0.0449                 0.0000                 0.0001

                      4                      5                      6
                     A'                     A'                     A'
 Frequencies --    340.3693               581.5426               657.3868
 Red. masses --     31.9721                31.9721                31.9721
 Frc consts  --      2.1823                 6.3707                 8.1407
 IR Inten    --      0.0000                 0.2943                 0.0000

 - Thermochemistry -
 -------------------
 Temperature   298.150 Kelvin.  Pressure   1.00000 Atm.
 Atom     1 has atomic number 16 and mass  31.97207

 Molecular mass:   127.88829 amu.
 Principal axes and moments of inertia in atomic units:
                           1         2         3
     Eigenvalues --   438.33756 682.926041121.26360
           X            0.62467   0.78089   0.00000
           Y            0.78089  -0.62467   0.00000
           Z           -0.00000  -0.00000   1.00000
 This molecule is an asymmetric top.
 Rotational symmetry number  1.
 Warning -- assumption of classical behavior for rotation
           may cause significant error
 Rotational temperatures (Kelvin)      0.19760     0.12683     0.07725
 Rotational constants (GHZ):           4.11724     2.64266     1.60956
    1 imaginary frequencies ignored.
 Zero-point vibrational energy      11716.3 (Joules/Mol)
                                    2.80026 (Kcal/Mol)
 Warning -- explicit consideration of   4 degrees of freedom as
           vibrations may cause significant error
 Vibrational temperatures:    187.57   358.46   489.71   836.71   945.83
          (Kelvin)

 Zero-point correction=                           0.004462 (Hartree/Particle)
 Thermal correction to Energy=                    0.009134
 Thermal correction to Enthalpy=                  0.010079
 Thermal correction to Gibbs Free Energy=        -0.026624
 Sum of electronic and zero-point Energies=          -1592.530441
 Sum of electronic and thermal Energies=             -1592.525769
 Sum of electronic and thermal Enthalpies=           -1592.524825
 Sum of electronic and thermal Free Energies=        -1592.561527

                     E (Thermal)             CV                S
                      KCal/Mol        Cal/Mol-Kelvin    Cal/Mol-Kelvin
 Total                    5.732             13.228             77.246
 Electronic               0.000              0.000              2.755
 Translational            0.889              2.981             40.451
 Rotational               0.889              2.981             27.309
 Vibrational              3.954              7.266              6.731
 Vibration     1          0.612              1.923              2.941
 Vibration     2          0.662              1.764              1.737
 Vibration     3          0.720              1.595              1.210
 Vibration     4          0.938              1.071              0.483

 Optimization completed.
    -- Stationary point found.
 Normal termination of Gaussian 09 at Sun Oct 23 21:36:31 2016.
