 Gaussian 09, Revision E.01,
 Gaussian 09:  EM64L-G09RevE.01 30-Nov-2015

 ---------------------------------------------
 #p b3lyp/6-311++G(3df,2p) freq symmetry=Loose
 ---------------------------------------------

 ---------
 b3lyp opt
 ---------
 Symbolic Z-matrix:
 Charge =  0 Multiplicity = 3

                         Standard orientation:
 ---------------------------------------------------------------------
 Center     Atomic      Atomic             Coordinates (Angstroms)
 Number     Number       Type             X           Y           Z
 ---------------------------------------------------------------------
      1         16           0        0.347191   -0.002939    1.429534
      2         16           0        0.967670    1.441185   -0.000117
      3         16           0        0.332380    0.003000   -1.429269
      4         16           0        0.968144   -1.441032   -0.006009
      5         16           0       -2.615384   -0.000214    0.005862
 ---------------------------------------------------------------------

 SCF Done:  E(UB3LYP) =  -1990.99619220     A.U. after   26 cycles

 The electronic state is 3-A.
 Alpha  occ. eigenvalues --  -88.93158 -88.93141 -88.92574 -88.92574 -88.86438
 Alpha  occ. eigenvalues --   -8.01306  -8.01291  -8.00774  -8.00773  -7.94601
 Alpha  occ. eigenvalues --   -5.97708  -5.97693  -5.97451  -5.97436  -5.97206
 Alpha  occ. eigenvalues --   -5.97206  -5.96941  -5.96941  -5.96681  -5.96663
 Alpha  occ. eigenvalues --   -5.96034  -5.96034  -5.91494  -5.91317  -5.89709
 Alpha  occ. eigenvalues --   -0.90142  -0.75487  -0.75146  -0.68775  -0.60687
 Alpha  occ. eigenvalues --   -0.46721  -0.44585  -0.40904  -0.38220  -0.38026
 Alpha  occ. eigenvalues --   -0.31008  -0.29479  -0.28809  -0.27938  -0.25340
 Alpha  occ. eigenvalues --   -0.23153
 Alpha virt. eigenvalues --   -0.13124  -0.13009  -0.08255  -0.04833   0.00285
 Alpha virt. eigenvalues --    0.02973   0.03204   0.03317   0.03674   0.04614
 Alpha virt. eigenvalues --    0.05721   0.05839   0.06266   0.07817   0.08954

  Beta  occ. eigenvalues --  -88.93077 -88.93061 -88.92570 -88.92570 -88.85332
  Beta  occ. eigenvalues --   -8.01231  -8.01217  -8.00770  -8.00769  -7.93598
  Beta  occ. eigenvalues --   -5.97656  -5.97642  -5.97384  -5.97370  -5.97210
  Beta  occ. eigenvalues --   -5.97209  -5.96945  -5.96945  -5.96468  -5.96454
  Beta  occ. eigenvalues --   -5.96009  -5.96009  -5.89386  -5.89334  -5.89087
  Beta  occ. eigenvalues --   -0.89976  -0.75123  -0.75088  -0.61094  -0.59635
  Beta  occ. eigenvalues --   -0.46653  -0.44462  -0.40236  -0.37929  -0.37781
  Beta  occ. eigenvalues --   -0.28755  -0.28643  -0.24193  -0.23092
  Beta virt. eigenvalues --   -0.14758  -0.14189  -0.12916  -0.12780  -0.08167
  Beta virt. eigenvalues --   -0.04665   0.00395   0.03225   0.03338   0.03379
  Beta virt. eigenvalues --    0.03690   0.04796   0.05837   0.06082   0.06319

 Mulliken charges and spin densities:
               1          2
     1  S    0.363959   0.061160
     2  S   -0.275835   0.022416
     3  S    0.367926   0.062574
     4  S   -0.275860   0.022422
     5  S   -0.180190   1.831429
 Sum of Mulliken charges =  -0.00000   2.00000

 Dipole moment (field-independent basis, Debye):
    X=              2.1222    Y=              0.0002    Z=             -0.0078  Tot=              2.1222
 Quadrupole moment (field-independent basis, Debye-Ang):
   XX=            -72.1797   YY=            -63.3012   ZZ=            -60.2887
   XY=             -0.0016   XZ=              0.0473   YZ=             -0.0062

  Exact polarizability: 143.499   0.001 102.446  -0.113   0.009  97.192
 Approx polarizability: 223.418  -0.007 202.607  -0.052  -0.014 206.125

 ******    1 imaginary frequencies (negative Signs) ******

                      1                      2                      3
                      A                      A                      A
 Frequencies --    -44.3951                66.0777                83.7529
 Red. masses --     31.9721                31.9721                31.9721
 Frc consts  --      0.0371                 0.0822                 0.1321
 IR Inten    --      0.0359                 0.1681                 2.4903

                      4                      5                      6
                      A                      A                      A
 Frequencies --    216.3689               309.6644               416.0673
 Red. masses --     31.9721                31.9721                31.9721
 Frc consts  --      0.8819                 1.8064                 3.2610
 IR Inten    --      0.0712                 0.6916                 0.0508

                      7                      8                      9
                      A                      A                      A
 Frequencies --    416.1378               440.3106               503.3599
 Red. masses --     31.9721                31.9721                31.9721
 Frc consts  --      3.2621                 3.6521                 4.7729
 IR Inten    --      0.0167                 0.0000                 6.0680

 - Thermochemistry -
 -------------------
 Temperature   298.150 Kelvin.  Pressure   1.00000 Atm.
 Atom     1 has atomic number 16 and mass  31.97207

 Molecular mass:   159.86036 amu.
 Principal axes and moments of inertia in atomic units:
                           1         2         3
     Eigenvalues --   940.802631487.850051495.51763
           X            1.00000  -0.00000   0.00000
           Y            0.00000   1.00000   0.00000
           Z           -0.00000  -0.00000   1.00000
 This molecule is an asymmetric top.
 Rotational symmetry number  1.
 Warning -- assumption of classical behavior for rotation
           may cause significant error
 Rotational temperatures (Kelvin)      0.09206     0.05821     0.05792
 Rotational constants (GHZ):           1.91830     1.21299     1.20677
    1 imaginary frequencies ignored.
 Zero-point vibrational energy      14664.7 (Joules/Mol)
                                    3.50494 (Kcal/Mol)
 Warning -- explicit consideration of   8 degrees of freedom as
           vibrations may cause significant error
 Vibrational temperatures:     95.07   120.50   311.31   445.54   598.63
          (Kelvin)            598.73   633.51   724.22

 Zero-point correction=                           0.005585 (Hartree/Particle)
 Thermal correction to Energy=                    0.012011
 Thermal correction to Enthalpy=                  0.012956
 Thermal correction to Gibbs Free Energy=        -0.028445
 Sum of electronic and zero-point Energies=          -1990.990607
 Sum of electronic and thermal Energies=             -1990.984181
 Sum of electronic and thermal Enthalpies=           -1990.983237
 Sum of electronic and thermal Free Energies=        -1991.024637

                     E (Thermal)             CV                S
                      KCal/Mol        Cal/Mol-Kelvin    Cal/Mol-Kelvin
 Total                    7.537             18.859             87.135
 Electronic               0.000              0.000              2.183
 Translational            0.889              2.981             41.116
 Rotational               0.889              2.981             29.128
 Vibrational              5.760             12.898             14.707
 Vibration     1          0.597              1.970              4.267
 Vibration     2          0.601              1.960              3.801
 Vibration     3          0.645              1.816              1.989
 Vibration     4          0.699              1.655              1.364
 Vibration     5          0.779              1.435              0.905
 Vibration     6          0.779              1.435              0.905
 Vibration     7          0.800              1.382              0.826
 Vibration     8          0.859              1.243              0.650

 Normal termination of Gaussian 09 at Sun Oct 23 21:42:12 2016.
