 Gaussian 09, Revision E.01,
 Gaussian 09:  EM64L-G09RevE.01 30-Nov-2015

 ---------------------------------------------
 #p b3lyp/6-311++G(3df,2p) freq symmetry=Loose
 ---------------------------------------------

 ---------
 b3lyp opt
 ---------
 Symbolic Z-matrix:
 Charge =  1 Multiplicity = 2

                         Standard orientation:
 ---------------------------------------------------------------------
 Center     Atomic      Atomic             Coordinates (Angstroms)
 Number     Number       Type             X           Y           Z
 ---------------------------------------------------------------------
      1         16           0        2.500394    1.029937   -0.154872
      2         16           0       -2.342430   -0.004408    0.798248
      3         16           0        2.503612   -1.026458   -0.158207
      4         16           0        0.398731   -1.035666    0.124844
      5         16           0        0.396605    1.032991    0.128357
      6         16           0       -3.456913    0.003604   -0.738370
 ---------------------------------------------------------------------

 SCF Done:  E(UB3LYP) =  -2388.99572557     A.U. after   40 cycles

 The electronic state is 2-A.
 Alpha  occ. eigenvalues --  -89.12468 -89.12383 -89.11599 -89.11550 -89.08153
 Alpha  occ. eigenvalues --  -89.06280  -8.20393  -8.20327  -8.19684  -8.19642
 Alpha  occ. eigenvalues --   -8.16235  -8.14508  -6.16670  -6.16611  -6.16413
 Alpha  occ. eigenvalues --   -6.16347  -6.16018  -6.15946  -6.15926  -6.15896
 Alpha  occ. eigenvalues --   -6.15689  -6.15636  -6.15348  -6.15312  -6.12392
 Alpha  occ. eigenvalues --   -6.12293  -6.12084  -6.10927  -6.10616  -6.10076
 Alpha  occ. eigenvalues --   -1.08690  -0.99977  -0.95226  -0.93399  -0.78547
 Alpha  occ. eigenvalues --   -0.77725  -0.66623  -0.62608  -0.59648  -0.55630
 Alpha  occ. eigenvalues --   -0.54710  -0.54672  -0.52348  -0.51993  -0.49503
 Alpha  occ. eigenvalues --   -0.48525  -0.39531  -0.38664
 Alpha virt. eigenvalues --   -0.35511  -0.30038  -0.29592  -0.22087  -0.19062
 Alpha virt. eigenvalues --   -0.16828  -0.14052  -0.11286  -0.09904  -0.09206
 Alpha virt. eigenvalues --   -0.09019  -0.08759  -0.07908  -0.06957  -0.06023

  Beta  occ. eigenvalues --  -89.12447 -89.12373 -89.11532 -89.11491 -89.07933
  Beta  occ. eigenvalues --  -89.05962  -8.20378  -8.20320  -8.19627  -8.19592
  Beta  occ. eigenvalues --   -8.16038  -8.14221  -6.16698  -6.16640  -6.16428
  Beta  occ. eigenvalues --   -6.16375  -6.15922  -6.15883  -6.15881  -6.15827
  Beta  occ. eigenvalues --   -6.15651  -6.15621  -6.15126  -6.15083  -6.12167
  Beta  occ. eigenvalues --   -6.11951  -6.11714  -6.10447  -6.10191  -6.09634
  Beta  occ. eigenvalues --   -1.08658  -0.98890  -0.95100  -0.93215  -0.77291
  Beta  occ. eigenvalues --   -0.76307  -0.66776  -0.62535  -0.59031  -0.54760
  Beta  occ. eigenvalues --   -0.54469  -0.54206  -0.50865  -0.50210  -0.48516
  Beta  occ. eigenvalues --   -0.47541  -0.37865
  Beta virt. eigenvalues --   -0.34080  -0.31824  -0.29941  -0.29145  -0.22266
  Beta virt. eigenvalues --   -0.18948  -0.16253  -0.13984  -0.11189  -0.09861
  Beta virt. eigenvalues --   -0.09200  -0.09007  -0.08731  -0.07877  -0.06855

 Mulliken charges and spin densities:
               1          2
     1  S    0.154102   0.074594
     2  S    0.275419   0.311935
     3  S    0.155144   0.084256
     4  S    0.174837   0.017314
     5  S    0.175575   0.028177
     6  S    0.064922   0.483723
 Sum of Mulliken charges =   1.00000   1.00000

 Dipole moment (field-independent basis, Debye):
    X=              1.6395    Y=              0.0020    Z=             -0.2367  Tot=              1.6565
 Quadrupole moment (field-independent basis, Debye-Ang):
   XX=            -43.6232   YY=            -62.7450   ZZ=            -72.4285
   XY=             -0.1026   XZ=              0.8352   YZ=              0.1920

  Exact polarizability: 345.462  -0.090 102.775   5.393  -0.203  83.640
 Approx polarizability:1951.558  -3.232 280.847   5.695  -0.338 179.579

 ******    3 imaginary frequencies (negative Signs) ******

                      1                      2                      3
                      A                      A                      A
 Frequencies --   -271.8676               -45.5756               -10.6384
 Red. masses --     31.9721                31.9721                31.9721
 Frc consts  --      1.3923                 0.0391                 0.0021
 IR Inten    --    115.6274                 0.1722                 0.4109

                      4                      5                      6
                      A                      A                      A
 Frequencies --     80.3727               104.7899               191.2502
 Red. masses --     31.9721                31.9721                31.9721
 Frc consts  --      0.1217                 0.2069                 0.6890
 IR Inten    --      0.0943                 0.7480                 0.1803

                      7                      8                      9
                      A                      A                      A
 Frequencies --    216.0201               292.2354               316.4816
 Red. masses --     31.9721                31.9721                31.9721
 Frc consts  --      0.8790                 1.6087                 1.8868
 IR Inten    --      0.9374                 3.8388                 1.1803

                     10                     11                     12
                      A                      A                      A
 Frequencies --    467.8216               501.4101               681.8091
 Red. masses --     31.9721                31.9721                31.9721
 Frc consts  --      4.1227                 4.7359                 8.7568
 IR Inten    --      0.5901                77.9281               156.3116

 - Thermochemistry -
 -------------------
 Temperature   298.150 Kelvin.  Pressure   1.00000 Atm.
 Atom     1 has atomic number 16 and mass  31.97207

 Molecular mass:   191.83243 amu.
 Principal axes and moments of inertia in atomic units:
                           1         2         3
     Eigenvalues --   629.963693600.718523942.17155
           X            1.00000   0.00000  -0.00000
           Y           -0.00000   1.00000  -0.00000
           Z            0.00000   0.00000   1.00000
 This molecule is an asymmetric top.
 Rotational symmetry number  1.
 Warning -- assumption of classical behavior for rotation
           may cause significant error
 Rotational temperatures (Kelvin)      0.13749     0.02405     0.02197
 Rotational constants (GHZ):           2.86483     0.50122     0.45780
    3 imaginary frequencies ignored.
 Zero-point vibrational energy      17059.9 (Joules/Mol)
                                    4.07741 (Kcal/Mol)
 Warning -- explicit consideration of   8 degrees of freedom as
           vibrations may cause significant error
 Vibrational temperatures:    115.64   150.77   275.17   310.80   420.46
          (Kelvin)            455.35   673.09   721.42   980.97

 Zero-point correction=                           0.006498 (Hartree/Particle)
 Thermal correction to Energy=                    0.013362
 Thermal correction to Enthalpy=                  0.014306
 Thermal correction to Gibbs Free Energy=        -0.028255
 Sum of electronic and zero-point Energies=          -2388.989228
 Sum of electronic and thermal Energies=             -2388.982364
 Sum of electronic and thermal Enthalpies=           -2388.981420
 Sum of electronic and thermal Free Energies=        -2389.023981

                     E (Thermal)             CV                S
                      KCal/Mol        Cal/Mol-Kelvin    Cal/Mol-Kelvin
 Total                    8.384             20.301             89.576
 Electronic               0.000              0.000              1.377
 Translational            0.889              2.981             41.660
 Rotational               0.889              2.981             30.570
 Vibrational              6.607             14.340             15.969
 Vibration     1          0.600              1.962              3.882
 Vibration     2          0.605              1.945              3.363
 Vibration     3          0.634              1.852              2.216
 Vibration     4          0.645              1.817              1.992
 Vibration     5          0.688              1.688              1.461
 Vibration     6          0.703              1.642              1.328
 Vibration     7          0.825              1.321              0.744
 Vibration     8          0.857              1.247              0.655

 Normal termination of Gaussian 09 at Sun Oct 23 23:54:22 2016.
