 Gaussian 09, Revision E.01,
 Gaussian 09:  EM64L-G09RevE.01 30-Nov-2015

 ---------------------------------------------
 #p b3lyp/6-311++G(3df,2p) freq symmetry=Loose
 ---------------------------------------------

 ---------
 b3lyp opt
 ---------
 Symbolic Z-matrix:
 Charge =  0 Multiplicity = 3

                         Standard orientation:
 ---------------------------------------------------------------------
 Center     Atomic      Atomic             Coordinates (Angstroms)
 Number     Number       Type             X           Y           Z
 ---------------------------------------------------------------------
      1         16           0       -0.004255    0.941933    1.270563
      2         16           0        2.022159    0.951940   -0.635759
      3         16           0        2.025103   -0.945453   -0.633296
      4         16           0       -2.023366   -0.948344   -0.641198
      5         16           0       -2.024140    0.948997   -0.627635
      6         16           0        0.004499   -0.949073    1.267326
 ---------------------------------------------------------------------

 SCF Done:  E(UB3LYP) =  -2389.33584474     A.U. after   17 cycles

 The electronic state is 3-A.
 Alpha  occ. eigenvalues --  -88.90373 -88.90365 -88.90325 -88.90316 -88.90261
 Alpha  occ. eigenvalues --  -88.90243  -7.98648  -7.98640  -7.98600  -7.98593
 Alpha  occ. eigenvalues --   -7.98519  -7.98495  -5.94837  -5.94830  -5.94796
 Alpha  occ. eigenvalues --   -5.94789  -5.94750  -5.94746  -5.94702  -5.94659
 Alpha  occ. eigenvalues --   -5.94656  -5.94617  -5.94510  -5.94501  -5.94458
 Alpha  occ. eigenvalues --   -5.94450  -5.94355  -5.94335  -5.94328  -5.94308
 Alpha  occ. eigenvalues --   -0.85973  -0.84045  -0.81707  -0.65082  -0.62934
 Alpha  occ. eigenvalues --   -0.59360  -0.43077  -0.42532  -0.40726  -0.39924
 Alpha  occ. eigenvalues --   -0.38653  -0.37841  -0.37378  -0.29456  -0.29186
 Alpha  occ. eigenvalues --   -0.27581  -0.27239  -0.24775  -0.24002
 Alpha virt. eigenvalues --   -0.12071  -0.11672  -0.04790  -0.01785   0.00327
 Alpha virt. eigenvalues --    0.00926   0.02275   0.02849   0.03378   0.04116
 Alpha virt. eigenvalues --    0.04991   0.05230   0.06616   0.06761   0.07078

  Beta  occ. eigenvalues --  -88.90332 -88.90313 -88.90004 -88.89995 -88.89954
  Beta  occ. eigenvalues --  -88.89946  -7.98582  -7.98558  -7.98316  -7.98308
  Beta  occ. eigenvalues --   -7.98267  -7.98259  -5.94739  -5.94655  -5.94558
  Beta  occ. eigenvalues --   -5.94554  -5.94487  -5.94467  -5.94466  -5.94462
  Beta  occ. eigenvalues --   -5.94458  -5.94439  -5.94192  -5.94183  -5.94141
  Beta  occ. eigenvalues --   -5.94132  -5.93787  -5.93779  -5.93743  -5.93735
  Beta  occ. eigenvalues --   -0.85451  -0.82519  -0.80998  -0.63982  -0.59879
  Beta  occ. eigenvalues --   -0.57960  -0.42717  -0.42160  -0.40167  -0.38695
  Beta  occ. eigenvalues --   -0.37688  -0.34331  -0.33200  -0.29060  -0.28760
  Beta  occ. eigenvalues --   -0.26856  -0.26363
  Beta virt. eigenvalues --   -0.15496  -0.14304  -0.11466  -0.11004  -0.04495
  Beta virt. eigenvalues --   -0.01020   0.00401   0.01169   0.02332   0.02900
  Beta virt. eigenvalues --    0.03403   0.04182   0.05155   0.05377   0.06816

 Mulliken charges and spin densities:
               1          2
     1  S    0.092900  -0.103795
     2  S   -0.044946   0.552582
     3  S   -0.044878   0.551065
     4  S   -0.044076   0.553202
     5  S   -0.045729   0.550573
     6  S    0.086729  -0.103628
 Sum of Mulliken charges =  -0.00000   2.00000

 Dipole moment (field-independent basis, Debye):
    X=             -0.0001    Y=              0.0035    Z=              0.0116  Tot=              0.0121
 Quadrupole moment (field-independent basis, Debye-Ang):
   XX=            -78.9360   YY=            -72.3009   ZZ=            -78.7578
   XY=             -0.0405   XZ=              0.0003   YZ=              0.0177

  Exact polarizability: 181.228   0.045 127.829   0.002  -0.003 122.768
 Approx polarizability: 365.095  -0.222 382.394   0.014   0.107 306.715

 ******    1 imaginary frequencies (negative Signs) ******

                      1                      2                      3
                      A                      A                      A
 Frequencies --    -98.7585                62.2199                64.0098
 Red. masses --     31.9721                31.9721                31.9721
 Frc consts  --      0.1837                 0.0729                 0.0772
 IR Inten    --      0.0001                 3.0807                 0.0034

                      4                      5                      6
                      A                      A                      A
 Frequencies --    104.9265               132.8095               202.1614
 Red. masses --     31.9721                31.9721                31.9721
 Frc consts  --      0.2074                 0.3323                 0.7699
 IR Inten    --      0.0000                 2.5982                 0.3298

                      7                      8                      9
                      A                      A                      A
 Frequencies --    219.3182               256.9109               298.6498
 Red. masses --     31.9721                31.9721                31.9721
 Frc consts  --      0.9061                 1.2433                 1.6801
 IR Inten    --      0.0071                 0.0001                 0.0034

                     10                     11                     12
                      A                      A                      A
 Frequencies --    677.0499               697.7519               725.3666
 Red. masses --     31.9721                31.9721                31.9721
 Frc consts  --      8.6350                 9.1711                 9.9114
 IR Inten    --     63.2439                79.7566                 0.3792

 - Thermochemistry -
 -------------------
 Temperature   298.150 Kelvin.  Pressure   1.00000 Atm.
 Atom     1 has atomic number 16 and mass  31.97207

 Molecular mass:   191.83243 amu.
 Principal axes and moments of inertia in atomic units:
                           1         2         3
     Eigenvalues --  1166.720412421.879882485.50232
           X            1.00000  -0.00000   0.00000
           Y            0.00000   1.00000   0.00000
           Z            0.00000  -0.00000   1.00000
 This molecule is an asymmetric top.
 Rotational symmetry number  1.
 Warning -- assumption of classical behavior for rotation
           may cause significant error
 Rotational temperatures (Kelvin)      0.07424     0.03576     0.03485
 Rotational constants (GHZ):           1.54685     0.74518     0.72611
    1 imaginary frequencies ignored.
 Zero-point vibrational energy      20582.8 (Joules/Mol)
                                    4.91941 (Kcal/Mol)
 Warning -- explicit consideration of   8 degrees of freedom as
           vibrations may cause significant error
 Vibrational temperatures:     89.52    92.10   150.97   191.08   290.86
          (Kelvin)            315.55   369.64   429.69   974.12  1003.91
                             1043.64

 Zero-point correction=                           0.007840 (Hartree/Particle)
 Thermal correction to Energy=                    0.016012
 Thermal correction to Enthalpy=                  0.016956
 Thermal correction to Gibbs Free Energy=        -0.029255
 Sum of electronic and zero-point Energies=          -2389.328005
 Sum of electronic and thermal Energies=             -2389.319832
 Sum of electronic and thermal Enthalpies=           -2389.318888
 Sum of electronic and thermal Free Energies=        -2389.365100

                     E (Thermal)             CV                S
                      KCal/Mol        Cal/Mol-Kelvin    Cal/Mol-Kelvin
 Total                   10.048             23.336             97.260
 Electronic               0.000              0.000              2.183
 Translational            0.889              2.981             41.660
 Rotational               0.889              2.981             30.330
 Vibrational              8.270             17.374             23.087
 Vibration     1          0.597              1.972              4.386
 Vibration     2          0.597              1.971              4.330
 Vibration     3          0.605              1.945              3.361
 Vibration     4          0.613              1.921              2.905
 Vibration     5          0.639              1.837              2.113
 Vibration     6          0.647              1.812              1.965
 Vibration     7          0.666              1.751              1.683
 Vibration     8          0.692              1.676              1.424

 Normal termination of Gaussian 09 at Sun Oct 23 23:22:09 2016.
