 Gaussian 09, Revision E.01,
 Gaussian 09:  EM64L-G09RevE.01 30-Nov-2015

 ---------------------------------------------
 #p b3lyp/6-311++G(3df,2p) freq symmetry=Loose
 ---------------------------------------------

 ---------
 b3lyp opt
 ---------
 Symbolic Z-matrix:
 Charge =  0 Multiplicity = 3

                         Standard orientation:
 ---------------------------------------------------------------------
 Center     Atomic      Atomic             Coordinates (Angstroms)
 Number     Number       Type             X           Y           Z
 ---------------------------------------------------------------------
      1         16           0       -2.027488   -0.948126   -0.639368
      2         16           0        0.003070   -0.949119    1.265018
      3         16           0       -2.027509    0.949390   -0.627745
      4         16           0       -0.003612    0.942164    1.268695
      5         16           0        2.026377    0.951608   -0.633978
      6         16           0        2.029162   -0.945915   -0.632622
 ---------------------------------------------------------------------

 SCF Done:  E(UB3LYP) =  -2389.33584351     A.U. after   18 cycles

 The electronic state is 3-A.
 Alpha  occ. eigenvalues --  -88.90369 -88.90363 -88.90332 -88.90325 -88.90261
 Alpha  occ. eigenvalues --  -88.90244  -7.98644  -7.98639  -7.98607  -7.98600
 Alpha  occ. eigenvalues --   -7.98519  -7.98495  -5.94834  -5.94829  -5.94802
 Alpha  occ. eigenvalues --   -5.94796  -5.94749  -5.94747  -5.94702  -5.94663
 Alpha  occ. eigenvalues --   -5.94660  -5.94617  -5.94505  -5.94499  -5.94466
 Alpha  occ. eigenvalues --   -5.94458  -5.94354  -5.94336  -5.94327  -5.94309
 Alpha  occ. eigenvalues --   -0.85962  -0.84043  -0.81702  -0.65077  -0.62938
 Alpha  occ. eigenvalues --   -0.59364  -0.43061  -0.42531  -0.40717  -0.39925
 Alpha  occ. eigenvalues --   -0.38649  -0.37837  -0.37387  -0.29468  -0.29180
 Alpha  occ. eigenvalues --   -0.27585  -0.27225  -0.24771  -0.24014
 Alpha virt. eigenvalues --   -0.12088  -0.11671  -0.04790  -0.01792   0.00325
 Alpha virt. eigenvalues --    0.00922   0.02273   0.02851   0.03380   0.04116
 Alpha virt. eigenvalues --    0.04991   0.05228   0.06614   0.06759   0.07074

  Beta  occ. eigenvalues --  -88.90332 -88.90315 -88.90000 -88.89993 -88.89962
  Beta  occ. eigenvalues --  -88.89954  -7.98582  -7.98558  -7.98312  -7.98306
  Beta  occ. eigenvalues --   -7.98273  -7.98266  -5.94739  -5.94656  -5.94557
  Beta  occ. eigenvalues --   -5.94555  -5.94486  -5.94470  -5.94468  -5.94467
  Beta  occ. eigenvalues --   -5.94458  -5.94440  -5.94187  -5.94180  -5.94147
  Beta  occ. eigenvalues --   -5.94140  -5.93784  -5.93778  -5.93749  -5.93743
  Beta  occ. eigenvalues --   -0.85439  -0.82517  -0.80994  -0.63978  -0.59882
  Beta  occ. eigenvalues --   -0.57964  -0.42702  -0.42159  -0.40158  -0.38696
  Beta  occ. eigenvalues --   -0.37687  -0.34322  -0.33209  -0.29071  -0.28754
  Beta  occ. eigenvalues --   -0.26859  -0.26351
  Beta virt. eigenvalues --   -0.15492  -0.14317  -0.11482  -0.11003  -0.04495
  Beta virt. eigenvalues --   -0.01028   0.00399   0.01166   0.02330   0.02903
  Beta virt. eigenvalues --    0.03405   0.04183   0.05155   0.05374   0.06813

 Mulliken charges and spin densities:
               1          2
     1  S   -0.044585   0.553006
     2  S    0.088047  -0.104094
     3  S   -0.045533   0.550965
     4  S    0.092097  -0.104197
     5  S   -0.044787   0.552737
     6  S   -0.045240   0.551583
 Sum of Mulliken charges =  -0.00000   2.00000

 Dipole moment (field-independent basis, Debye):
    X=              0.0003    Y=              0.0030    Z=              0.0108  Tot=              0.0112
 Quadrupole moment (field-independent basis, Debye-Ang):
   XX=            -78.9338   YY=            -72.3013   ZZ=            -78.7573
   XY=             -0.0310   XZ=             -0.0012   YZ=              0.0182

  Exact polarizability: 181.647   0.036 127.877  -0.004  -0.003 122.656
 Approx polarizability: 366.118  -0.162 382.534  -0.042   0.112 306.296

 ******    1 imaginary frequencies (negative Signs) ******

                      1                      2                      3
                      A                      A                      A
 Frequencies --    -98.8427                62.0963                63.7762
 Red. masses --     31.9721                31.9721                31.9721
 Frc consts  --      0.1840                 0.0726                 0.0766
 IR Inten    --      0.0001                 3.0666                 0.0044

                      4                      5                      6
                      A                      A                      A
 Frequencies --    104.9946               133.0754               201.9365
 Red. masses --     31.9721                31.9721                31.9721
 Frc consts  --      0.2077                 0.3336                 0.7682
 IR Inten    --      0.0000                 2.5940                 0.3269

                      7                      8                      9
                      A                      A                      A
 Frequencies --    218.8783               256.9089               298.4759
 Red. masses --     31.9721                31.9721                31.9721
 Frc consts  --      0.9025                 1.2433                 1.6782
 IR Inten    --      0.0069                 0.0000                 0.0033

                     10                     11                     12
                      A                      A                      A
 Frequencies --    676.6573               697.5123               725.0180
 Red. masses --     31.9721                31.9721                31.9721
 Frc consts  --      8.6250                 9.1648                 9.9019
 IR Inten    --     63.1231                80.0817                 0.3559

 - Thermochemistry -
 -------------------
 Temperature   298.150 Kelvin.  Pressure   1.00000 Atm.
 Atom     1 has atomic number 16 and mass  31.97207

 Molecular mass:   191.83243 amu.
 Principal axes and moments of inertia in atomic units:
                           1         2         3
     Eigenvalues --  1165.029182427.355692492.91963
           X            1.00000  -0.00000   0.00000
           Y            0.00000   1.00000   0.00000
           Z            0.00000  -0.00000   1.00000
 This molecule is an asymmetric top.
 Rotational symmetry number  1.
 Warning -- assumption of classical behavior for rotation
           may cause significant error
 Rotational temperatures (Kelvin)      0.07434     0.03568     0.03474
 Rotational constants (GHZ):           1.54910     0.74350     0.72395
    1 imaginary frequencies ignored.
 Zero-point vibrational energy      20571.8 (Joules/Mol)
                                    4.91677 (Kcal/Mol)
 Warning -- explicit consideration of   8 degrees of freedom as
           vibrations may cause significant error
 Vibrational temperatures:     89.34    91.76   151.06   191.47   290.54
          (Kelvin)            314.92   369.63   429.44   973.56  1003.56
                             1043.14

 Zero-point correction=                           0.007835 (Hartree/Particle)
 Thermal correction to Energy=                    0.016010
 Thermal correction to Enthalpy=                  0.016954
 Thermal correction to Gibbs Free Energy=        -0.029266
 Sum of electronic and zero-point Energies=          -2389.328008
 Sum of electronic and thermal Energies=             -2389.319834
 Sum of electronic and thermal Enthalpies=           -2389.318890
 Sum of electronic and thermal Free Energies=        -2389.365109

                     E (Thermal)             CV                S
                      KCal/Mol        Cal/Mol-Kelvin    Cal/Mol-Kelvin
 Total                   10.046             23.339             97.278
 Electronic               0.000              0.000              2.183
 Translational            0.889              2.981             41.660
 Rotational               0.889              2.981             30.334
 Vibrational              8.269             17.377             23.100
 Vibration     1          0.597              1.972              4.389
 Vibration     2          0.597              1.972              4.337
 Vibration     3          0.605              1.945              3.359
 Vibration     4          0.613              1.920              2.901
 Vibration     5          0.639              1.837              2.115
 Vibration     6          0.647              1.812              1.968
 Vibration     7          0.666              1.751              1.683
 Vibration     8          0.692              1.677              1.425

 Normal termination of Gaussian 09 at Sun Oct 23 23:51:46 2016.
