 Gaussian 09, Revision E.01,
 Gaussian 09:  EM64L-G09RevE.01 30-Nov-2015

 ---------------------------------------------
 #p b3lyp/6-311++G(3df,2p) freq symmetry=Loose
 ---------------------------------------------

 ---------
 b3lyp opt
 ---------
 Symbolic Z-matrix:
 Charge =  1 Multiplicity = 2

                         Standard orientation:
 ---------------------------------------------------------------------
 Center     Atomic      Atomic             Coordinates (Angstroms)
 Number     Number       Type             X           Y           Z
 ---------------------------------------------------------------------
      1         16           0        1.601938   -0.759993   -0.934930
      2         16           0       -0.001550    1.517704   -0.932888
      3         16           0        1.602153   -0.758524    0.929114
      4         16           0        0.005485    1.513769    0.937339
      5         16           0       -1.601483   -0.760674    0.932702
      6         16           0       -1.606543   -0.752283   -0.931338
 ---------------------------------------------------------------------

 SCF Done:  E(UB3LYP) =  -2389.03786751     A.U. after   20 cycles

 The electronic state is 2-A.
 Alpha  occ. eigenvalues --  -89.10747 -89.10735 -89.10717 -89.10707 -89.09160
 Alpha  occ. eigenvalues --  -89.09151  -8.18915  -8.18906  -8.18881  -8.18873
 Alpha  occ. eigenvalues --   -8.17361  -8.17339  -6.15122  -6.15113  -6.15096
 Alpha  occ. eigenvalues --   -6.15087  -6.14982  -6.14979  -6.14879  -6.14877
 Alpha  occ. eigenvalues --   -6.14668  -6.14657  -6.14637  -6.14626  -6.13492
 Alpha  occ. eigenvalues --   -6.13399  -6.13287  -6.13272  -6.13155  -6.13144
 Alpha  occ. eigenvalues --   -1.06035  -1.03612  -1.01269  -0.83939  -0.80520
 Alpha  occ. eigenvalues --   -0.77726  -0.63353  -0.60298  -0.59808  -0.58984
 Alpha  occ. eigenvalues --   -0.58333  -0.56534  -0.53365  -0.48774  -0.47820
 Alpha  occ. eigenvalues --   -0.46220  -0.44492  -0.43645
 Alpha virt. eigenvalues --   -0.35125  -0.30266  -0.29481  -0.21319  -0.17442
 Alpha virt. eigenvalues --   -0.15537  -0.13739  -0.10742  -0.09929  -0.09680
 Alpha virt. eigenvalues --   -0.09375  -0.09013  -0.08317  -0.07302  -0.06483

  Beta  occ. eigenvalues --  -89.10566 -89.10553 -89.10535 -89.10524 -89.09203
  Beta  occ. eigenvalues --  -89.09193  -8.18752  -8.18742  -8.18716  -8.18708
  Beta  occ. eigenvalues --   -8.17399  -8.17377  -6.14890  -6.14886  -6.14788
  Beta  occ. eigenvalues --   -6.14786  -6.14709  -6.14697  -6.14678  -6.14668
  Beta  occ. eigenvalues --   -6.14407  -6.14394  -6.14375  -6.14365  -6.13514
  Beta  occ. eigenvalues --   -6.13421  -6.13319  -6.13308  -6.13283  -6.13268
  Beta  occ. eigenvalues --   -1.05570  -1.02879  -1.01146  -0.83066  -0.78964
  Beta  occ. eigenvalues --   -0.77306  -0.63167  -0.59945  -0.59412  -0.57743
  Beta  occ. eigenvalues --   -0.56959  -0.56011  -0.51638  -0.48778  -0.47533
  Beta  occ. eigenvalues --   -0.45968  -0.43957
  Beta virt. eigenvalues --   -0.36588  -0.32171  -0.30234  -0.29013  -0.21090
  Beta virt. eigenvalues --   -0.16984  -0.15420  -0.13595  -0.10661  -0.09875
  Beta virt. eigenvalues --   -0.09555  -0.09178  -0.08992  -0.08072  -0.07208

 Mulliken charges and spin densities:
               1          2
     1  S    0.168114   0.281417
     2  S    0.157551  -0.060275
     3  S    0.175637   0.278199
     4  S    0.154927  -0.060648
     5  S    0.169889   0.280772
     6  S    0.173882   0.280535
 Sum of Mulliken charges =   1.00000   1.00000

 Dipole moment (field-independent basis, Debye):
    X=             -0.0006    Y=             -0.5186    Z=              0.0007  Tot=              0.5186
 Quadrupole moment (field-independent basis, Debye-Ang):
   XX=            -60.0758   YY=            -66.4259   ZZ=            -61.3478
   XY=             -0.0003   XZ=              0.0172   YZ=             -0.0114

  Exact polarizability: 154.738  -0.012 125.020  -0.043   0.002 111.192
 Approx polarizability: 448.139  -0.089 361.124   0.031  -0.129 370.452

 ******    1 imaginary frequencies (negative Signs) ******

                      1                      2                      3
                      A                      A                      A
 Frequencies --    -62.5128                68.4213                89.1237
 Red. masses --     31.9721                31.9721                31.9721
 Frc consts  --      0.0736                 0.0882                 0.1496
 IR Inten    --      0.0000                 0.2295                 0.0067

                      4                      5                      6
                      A                      A                      A
 Frequencies --    106.1782               122.3499               192.2260
 Red. masses --     31.9721                31.9721                31.9721
 Frc consts  --      0.2124                 0.2820                 0.6961
 IR Inten    --      0.2135                 2.0899                 0.0000

                      7                      8                      9
                      A                      A                      A
 Frequencies --    233.6279               257.8326               294.9979
 Red. masses --     31.9721                31.9721                31.9721
 Frc consts  --      1.0282                 1.2523                 1.6393
 IR Inten    --      0.3169                 0.0000                 0.0554

                     10                     11                     12
                      A                      A                      A
 Frequencies --    715.1845               729.4996               766.6620
 Red. masses --     31.9721                31.9721                31.9721
 Frc consts  --      9.6351                10.0247                11.0721
 IR Inten    --     66.3319               106.9693                 0.5196

 - Thermochemistry -
 -------------------
 Temperature   298.150 Kelvin.  Pressure   1.00000 Atm.
 Atom     1 has atomic number 16 and mass  31.97207

 Molecular mass:   191.83243 amu.
 Principal axes and moments of inertia in atomic units:
                           1         2         3
     Eigenvalues --  1383.333921769.977951960.52006
           X            1.00000  -0.00000   0.00000
           Y           -0.00000   1.00000   0.00000
           Z           -0.00000  -0.00000   1.00000
 This molecule is an asymmetric top.
 Rotational symmetry number  1.
 Warning -- assumption of classical behavior for rotation
           may cause significant error
 Rotational temperatures (Kelvin)      0.06261     0.04893     0.04418
 Rotational constants (GHZ):           1.30463     1.01964     0.92054
    1 imaginary frequencies ignored.
 Zero-point vibrational energy      21389.8 (Joules/Mol)
                                    5.11230 (Kcal/Mol)
 Warning -- explicit consideration of   8 degrees of freedom as
           vibrations may cause significant error
 Vibrational temperatures:     98.44   128.23   152.77   176.03   276.57
          (Kelvin)            336.14   370.96   424.44  1028.99  1049.59
                             1103.05

 Zero-point correction=                           0.008147 (Hartree/Particle)
 Thermal correction to Energy=                    0.016229
 Thermal correction to Enthalpy=                  0.017173
 Thermal correction to Gibbs Free Energy=        -0.028080
 Sum of electronic and zero-point Energies=          -2389.029721
 Sum of electronic and thermal Energies=             -2389.021638
 Sum of electronic and thermal Enthalpies=           -2389.020694
 Sum of electronic and thermal Free Energies=        -2389.065948

                     E (Thermal)             CV                S
                      KCal/Mol        Cal/Mol-Kelvin    Cal/Mol-Kelvin
 Total                   10.184             23.117             95.244
 Electronic               0.000              0.000              1.377
 Translational            0.889              2.981             41.660
 Rotational               0.889              2.981             29.952
 Vibrational              8.407             17.155             22.255
 Vibration     1          0.598              1.969              4.198
 Vibration     2          0.602              1.957              3.679
 Vibration     3          0.605              1.944              3.338
 Vibration     4          0.610              1.930              3.063
 Vibration     5          0.634              1.851              2.206
 Vibration     6          0.654              1.789              1.851
 Vibration     7          0.667              1.750              1.676
 Vibration     8          0.689              1.683              1.445

 Normal termination of Gaussian 09 at Mon Oct 24 00:24:52 2016.
