 Gaussian 09, Revision E.01,
 Gaussian 09:  EM64L-G09RevE.01 30-Nov-2015

 ---------------------------------------------
 #p b3lyp/6-311++G(3df,2p) freq symmetry=Loose
 ---------------------------------------------

 ---------
 b3lyp opt
 ---------
 Symbolic Z-matrix:
 Charge =  1 Multiplicity = 2

                         Standard orientation:
 ---------------------------------------------------------------------
 Center     Atomic      Atomic             Coordinates (Angstroms)
 Number     Number       Type             X           Y           Z
 ---------------------------------------------------------------------
      1         16           0       -0.917933   -1.330991    0.931990
      2         16           0        1.806898   -0.012959    0.934477
      3         16           0        1.806435   -0.012436   -0.932012
      4         16           0       -0.888436    1.349027   -0.933306
      5         16           0       -0.892551    1.343428    0.932455
      6         16           0       -0.914414   -1.336069   -0.933604
 ---------------------------------------------------------------------

 SCF Done:  E(UB3LYP) =  -2389.03711125     A.U. after   22 cycles

 The electronic state is 2-A.
 Alpha  occ. eigenvalues --  -89.10664 -89.10652 -89.10116 -89.10078 -89.10064
 Alpha  occ. eigenvalues --  -89.10028  -8.18843  -8.18821  -8.18292  -8.18255
 Alpha  occ. eigenvalues --   -8.18240  -8.18204  -6.15031  -6.15019  -6.14909
 Alpha  occ. eigenvalues --   -6.14812  -6.14668  -6.14653  -6.14389  -6.14354
 Alpha  occ. eigenvalues --   -6.14348  -6.14306  -6.14304  -6.14274  -6.14265
 Alpha  occ. eigenvalues --   -6.14238  -6.14056  -6.14020  -6.14001  -6.13968
 Alpha  occ. eigenvalues --   -1.06135  -1.03366  -1.01631  -0.84054  -0.80356
 Alpha  occ. eigenvalues --   -0.77983  -0.63619  -0.60193  -0.59875  -0.59090
 Alpha  occ. eigenvalues --   -0.58133  -0.56887  -0.51907  -0.50924  -0.47168
 Alpha  occ. eigenvalues --   -0.46532  -0.44209  -0.43949
 Alpha virt. eigenvalues --   -0.33614  -0.32480  -0.28756  -0.21411  -0.17309
 Alpha virt. eigenvalues --   -0.15719  -0.13710  -0.10821  -0.09944  -0.09616
 Alpha virt. eigenvalues --   -0.09434  -0.08938  -0.08462  -0.07298  -0.06346

  Beta  occ. eigenvalues --  -89.10414 -89.10401 -89.10078 -89.10044 -89.10026
  Beta  occ. eigenvalues --  -89.09995  -8.18617  -8.18594  -8.18258  -8.18225
  Beta  occ. eigenvalues --   -8.18205  -8.18174  -6.14780  -6.14683  -6.14545
  Beta  occ. eigenvalues --   -6.14530  -6.14369  -6.14336  -6.14264  -6.14232
  Beta  occ. eigenvalues --   -6.14229  -6.14223  -6.14209  -6.14196  -6.14183
  Beta  occ. eigenvalues --   -6.14152  -6.14032  -6.14003  -6.13977  -6.13950
  Beta  occ. eigenvalues --   -1.05785  -1.02545  -1.01472  -0.83330  -0.78596
  Beta  occ. eigenvalues --   -0.77604  -0.63420  -0.59827  -0.59544  -0.57521
  Beta  occ. eigenvalues --   -0.57213  -0.56194  -0.50524  -0.50392  -0.47076
  Beta  occ. eigenvalues --   -0.46218  -0.43686
  Beta virt. eigenvalues --   -0.36922  -0.31845  -0.30980  -0.28600  -0.21199
  Beta virt. eigenvalues --   -0.16820  -0.15612  -0.13584  -0.10718  -0.09884
  Beta virt. eigenvalues --   -0.09516  -0.09267  -0.08905  -0.08226  -0.07214

 Mulliken charges and spin densities:
               1          2
     1  S    0.166295   0.062046
     2  S    0.170905   0.384123
     3  S    0.180537   0.382442
     4  S    0.158711   0.054628
     5  S    0.165086   0.054978
     6  S    0.158466   0.061783
 Sum of Mulliken charges =   1.00000   1.00000

 Dipole moment (field-independent basis, Debye):
    X=              0.2241    Y=             -0.0120    Z=              0.0064  Tot=              0.2245
 Quadrupole moment (field-independent basis, Debye-Ang):
   XX=            -60.9539   YY=            -65.7797   ZZ=            -61.3470
   XY=              0.0045   XZ=             -0.0171   YZ=             -0.0015

  Exact polarizability: 144.470   0.052 129.954   0.043   0.001 110.972
 Approx polarizability: 410.220   0.631 409.925   0.068   0.006 370.726

 ******    1 imaginary frequencies (negative Signs) ******

                      1                      2                      3
                      A                      A                      A
 Frequencies --    -72.1217                14.3673                57.7823
 Red. masses --     31.9721                31.9721                31.9721
 Frc consts  --      0.0980                 0.0039                 0.0629
 IR Inten    --      5.0882                 0.6076                 0.0022

                      4                      5                      6
                      A                      A                      A
 Frequencies --     93.7289               155.0570               222.5153
 Red. masses --     31.9721                31.9721                31.9721
 Frc consts  --      0.1655                 0.4529                 0.9327
 IR Inten    --      2.0526                 0.0095                 0.0001

                      7                      8                      9
                      A                      A                      A
 Frequencies --    227.7343               256.0097               307.2002
 Red. masses --     31.9721                31.9721                31.9721
 Frc consts  --      0.9770                 1.2346                 1.7777
 IR Inten    --      0.0002                 0.5282                 0.0001

                     10                     11                     12
                      A                      A                      A
 Frequencies --    716.5693               728.8279               766.4939
 Red. masses --     31.9721                31.9721                31.9721
 Frc consts  --      9.6725                10.0062                11.0672
 IR Inten    --     78.4340                83.9566                 0.0309

 - Thermochemistry -
 -------------------
 Temperature   298.150 Kelvin.  Pressure   1.00000 Atm.
 Atom     1 has atomic number 16 and mass  31.97207

 Molecular mass:   191.83243 amu.
 Principal axes and moments of inertia in atomic units:
                           1         2         3
     Eigenvalues --  1416.247811714.379521938.04304
           X            1.00000  -0.00000   0.00000
           Y            0.00000   1.00000  -0.00000
           Z           -0.00000   0.00000   1.00000
 This molecule is an asymmetric top.
 Rotational symmetry number  1.
 Warning -- assumption of classical behavior for rotation
           may cause significant error
 Rotational temperatures (Kelvin)      0.06116     0.05052     0.04469
 Rotational constants (GHZ):           1.27431     1.05271     0.93122
    1 imaginary frequencies ignored.
 Zero-point vibrational energy      21211.5 (Joules/Mol)
                                    5.06967 (Kcal/Mol)
 Warning -- explicit consideration of   8 degrees of freedom as
           vibrations may cause significant error
 Vibrational temperatures:     20.67    83.14   134.85   223.09   320.15
          (Kelvin)            327.66   368.34   441.99  1030.98  1048.62
                             1102.81

 Zero-point correction=                           0.008079 (Hartree/Particle)
 Thermal correction to Energy=                    0.016254
 Thermal correction to Enthalpy=                  0.017198
 Thermal correction to Gibbs Free Energy=        -0.029688
 Sum of electronic and zero-point Energies=          -2389.029032
 Sum of electronic and thermal Energies=             -2389.020857
 Sum of electronic and thermal Enthalpies=           -2389.019913
 Sum of electronic and thermal Free Energies=        -2389.066800

                     E (Thermal)             CV                S
                      KCal/Mol        Cal/Mol-Kelvin    Cal/Mol-Kelvin
 Total                   10.199             23.072             98.681
 Electronic               0.000              0.000              1.377
 Translational            0.889              2.981             41.660
 Rotational               0.889              2.981             29.932
 Vibrational              8.422             17.110             25.711
 Vibration     1          0.593              1.986              7.291
 Vibration     2          0.596              1.974              4.532
 Vibration     3          0.603              1.954              3.581
 Vibration     4          0.620              1.897              2.609
 Vibration     5          0.648              1.807              1.939
 Vibration     6          0.651              1.799              1.897
 Vibration     7          0.666              1.753              1.689
 Vibration     8          0.697              1.660              1.377

 Normal termination of Gaussian 09 at Mon Oct 24 00:25:42 2016.
