 Gaussian 09, Revision E.01,
 Gaussian 09:  EM64L-G09RevE.01 30-Nov-2015

 ---------------------------------------------
 #p b3lyp/6-311++G(3df,2p) freq symmetry=Loose
 ---------------------------------------------

 ---------
 b3lyp opt
 ---------
 Symbolic Z-matrix:
 Charge =  0 Multiplicity = 3

                         Standard orientation:
 ---------------------------------------------------------------------
 Center     Atomic      Atomic             Coordinates (Angstroms)
 Number     Number       Type             X           Y           Z
 ---------------------------------------------------------------------
      1          6           0        0.000000    0.000000    0.000000
 ---------------------------------------------------------------------

 SCF Done:  E(UB3LYP) =  -37.8574712890     A.U. after    7 cycles

 Unable to determine electronic state:  an orbital has unidentified symmetry.
 Alpha  occ. eigenvalues --  -10.30498  -0.59065  -0.26981  -0.26981
 Alpha virt. eigenvalues --   -0.15782   0.03383   0.07001   0.07001   0.07750
 Alpha virt. eigenvalues --    0.33013   0.33013   0.33101   0.33101   0.33567
 Alpha virt. eigenvalues --    0.51292   0.51292   0.53189   0.62139   1.52840

  Beta  occ. eigenvalues --  -10.27575  -0.48160
  Beta virt. eigenvalues --   -0.12973  -0.08524  -0.08524   0.04309   0.08039
  Beta virt. eigenvalues --    0.09016   0.09016   0.34602   0.35031   0.35031
  Beta virt. eigenvalues --    0.36424   0.36424   0.54595   0.57666   0.57666

 Mulliken charges and spin densities:
               1          2
     1  C    0.000000   2.000000
 Sum of Mulliken charges =   0.00000   2.00000

 Dipole moment (field-independent basis, Debye):
    X=              0.0000    Y=              0.0000    Z=              0.0000  Tot=              0.0000
 Quadrupole moment (field-independent basis, Debye-Ang):
   XX=             -4.9723   YY=             -6.9836   ZZ=             -6.9836
   XY=              0.0000   XZ=             -0.0000   YZ=             -0.0000

  Exact polarizability:  10.301   0.000  12.637  -0.000   0.000  12.637
 Approx polarizability:  14.710  -0.000  12.963  -0.000  -0.000  12.963

 - Thermochemistry -
 -------------------
 Temperature   298.150 Kelvin.  Pressure   1.00000 Atm.
 Atom     1 has atomic number  6 and mass  12.00000
 Molecular mass:    12.00000 amu.
 Zero-point vibrational energy          0.0 (Joules/Mol)
                                    0.00000 (Kcal/Mol)
 Vibrational temperatures:
          (Kelvin)

 Zero-point correction=                           0.000000 (Hartree/Particle)
 Thermal correction to Energy=                    0.001416
 Thermal correction to Enthalpy=                  0.002360
 Thermal correction to Gibbs Free Energy=        -0.014545
 Sum of electronic and zero-point Energies=            -37.857471
 Sum of electronic and thermal Energies=               -37.856055
 Sum of electronic and thermal Enthalpies=             -37.855111
 Sum of electronic and thermal Free Energies=          -37.872017

                     E (Thermal)             CV                S
                      KCal/Mol        Cal/Mol-Kelvin    Cal/Mol-Kelvin
 Total                    0.889              2.981             35.581
 Electronic               0.000              0.000              2.183
 Translational            0.889              2.981             33.398
 Rotational               0.000              0.000              0.000
 Vibrational              0.000              0.000              0.000

 Optimization completed.
    -- Stationary point found.
 Normal termination of Gaussian 09 at Sun Jun 19 04:39:08 2016.
