 Gaussian 09, Revision E.01,
 Gaussian 09:  EM64L-G09RevE.01 30-Nov-2015

 -----------------------------------------
 #p b3lyp/6-311+G(3df) freq symmetry=Loose
 -----------------------------------------

 ---------
 b3lyp opt
 ---------
 Symbolic Z-matrix:
 Charge =  2 Multiplicity = 3

                         Standard orientation:
 ---------------------------------------------------------------------
 Center     Atomic      Atomic             Coordinates (Angstroms)
 Number     Number       Type             X           Y           Z
 ---------------------------------------------------------------------
      1          6           0        0.000000    0.000000    0.000000
 ---------------------------------------------------------------------

 SCF Done:  E(UB3LYP) =  -36.3045032009     A.U. after    8 cycles

 Unable to determine electronic state:  an orbital has unidentified symmetry.
 Alpha  occ. eigenvalues --  -11.59232  -1.58024  -1.28701
 Alpha virt. eigenvalues --   -1.12991  -1.12991  -0.42555  -0.35741  -0.34815
 Alpha virt. eigenvalues --   -0.34815  -0.26715  -0.26715  -0.26272  -0.26008
 Alpha virt. eigenvalues --   -0.26001  -0.08892  -0.07794  -0.07794  -0.04122

  Beta  occ. eigenvalues --  -11.53240
  Beta virt. eigenvalues --   -1.27859  -0.99736  -0.99736  -0.92097  -0.39709
  Beta virt. eigenvalues --   -0.33149  -0.33149  -0.32178  -0.22606  -0.22525
  Beta virt. eigenvalues --   -0.21696  -0.21696  -0.21134  -0.06420  -0.06420

 Mulliken charges and spin densities:
               1          2
     1  C    2.000000   2.000000
 Sum of Mulliken charges =   2.00000   2.00000

 Dipole moment (field-independent basis, Debye):
    X=              0.0000    Y=              0.0000    Z=              0.0000  Tot=              0.0000
 Quadrupole moment (field-independent basis, Debye-Ang):
   XX=             -1.5950   YY=             -2.7451   ZZ=             -1.5950
   XY=              0.0000   XZ=              0.0000   YZ=             -0.0000

  Exact polarizability:   3.481   0.000   1.393  -0.000   0.000   3.481
 Approx polarizability:   3.406  -0.000   1.258  -0.000  -0.000   3.406

 - Thermochemistry -
 -------------------
 Temperature   298.150 Kelvin.  Pressure   1.00000 Atm.
 Atom     1 has atomic number  6 and mass  12.00000
 Molecular mass:    12.00000 amu.
 Zero-point vibrational energy          0.0 (Joules/Mol)
                                    0.00000 (Kcal/Mol)
 Vibrational temperatures:
          (Kelvin)

 Zero-point correction=                           0.000000 (Hartree/Particle)
 Thermal correction to Energy=                    0.001416
 Thermal correction to Enthalpy=                  0.002360
 Thermal correction to Gibbs Free Energy=        -0.014545
 Sum of electronic and zero-point Energies=            -36.304503
 Sum of electronic and thermal Energies=               -36.303087
 Sum of electronic and thermal Enthalpies=             -36.302143
 Sum of electronic and thermal Free Energies=          -36.319048

                     E (Thermal)             CV                S
                      KCal/Mol        Cal/Mol-Kelvin    Cal/Mol-Kelvin
 Total                    0.889              2.981             35.581
 Electronic               0.000              0.000              2.183
 Translational            0.889              2.981             33.398
 Rotational               0.000              0.000              0.000
 Vibrational              0.000              0.000              0.000

 Optimization completed.
    -- Stationary point found.
 Normal termination of Gaussian 09 at Thu Jun 16 17:59:03 2016.
