 Gaussian 09, Revision E.01,
 Gaussian 09:  EM64L-G09RevE.01 30-Nov-2015

 -----------------------------------------
 #p b3lyp/6-311+G(3df) freq symmetry=Loose
 -----------------------------------------

 ---------
 b3lyp opt
 ---------
 Symbolic Z-matrix:
 Charge =  2 Multiplicity = 1

                         Standard orientation:
 ---------------------------------------------------------------------
 Center     Atomic      Atomic             Coordinates (Angstroms)
 Number     Number       Type             X           Y           Z
 ---------------------------------------------------------------------
      1          6           0        0.000000    0.000000    0.000000
 ---------------------------------------------------------------------

 SCF Done:  E(RB3LYP) =  -36.5129528685     A.U. after    6 cycles

 The electronic state is 1-A1G.
 Alpha  occ. eigenvalues --  -11.62595  -1.53552
 Alpha virt. eigenvalues --   -1.11876  -1.11876  -1.11876  -0.42917  -0.35465
 Alpha virt. eigenvalues --   -0.35465  -0.35465  -0.26697  -0.26697  -0.26697
 Alpha virt. eigenvalues --   -0.26697  -0.26697  -0.08523  -0.08523  -0.08523

 Mulliken charges:
               1
     1  C    2.000000
 Sum of Mulliken charges =   2.00000

 Dipole moment (field-independent basis, Debye):
    X=              0.0000    Y=              0.0000    Z=              0.0000  Tot=              0.0000
 Quadrupole moment (field-independent basis, Debye-Ang):
   XX=             -2.0629   YY=             -2.0629   ZZ=             -2.0629
   XY=              0.0000   XZ=              0.0000   YZ=             -0.0000

  Exact polarizability:   4.317   0.000   4.317  -0.000  -0.000   4.317
 Approx polarizability:   6.042  -0.000   6.042  -0.000  -0.000   6.042

 - Thermochemistry -
 -------------------
 Temperature   298.150 Kelvin.  Pressure   1.00000 Atm.
 Atom     1 has atomic number  6 and mass  12.00000
 Molecular mass:    12.00000 amu.
 Zero-point vibrational energy          0.0 (Joules/Mol)
                                    0.00000 (Kcal/Mol)
 Vibrational temperatures:
          (Kelvin)

 Zero-point correction=                           0.000000 (Hartree/Particle)
 Thermal correction to Energy=                    0.001416
 Thermal correction to Enthalpy=                  0.002360
 Thermal correction to Gibbs Free Energy=        -0.013508
 Sum of electronic and zero-point Energies=            -36.512953
 Sum of electronic and thermal Energies=               -36.511537
 Sum of electronic and thermal Enthalpies=             -36.510592
 Sum of electronic and thermal Free Energies=          -36.526461

                     E (Thermal)             CV                S
                      KCal/Mol        Cal/Mol-Kelvin    Cal/Mol-Kelvin
 Total                    0.889              2.981             33.398
 Electronic               0.000              0.000              0.000
 Translational            0.889              2.981             33.398
 Rotational               0.000              0.000              0.000
 Vibrational              0.000              0.000              0.000

 Optimization completed.
    -- Stationary point found.
 Normal termination of Gaussian 09 at Thu Jun 16 17:59:01 2016.
