 Gaussian 09, Revision E.01,
 Gaussian 09:  EM64L-G09RevE.01 30-Nov-2015

 ---------------------------------------------
 #p b3lyp/6-311++G(3df,2p) freq symmetry=Loose
 ---------------------------------------------

 ---------
 b3lyp opt
 ---------
 Symbolic Z-matrix:
 Charge =  1 Multiplicity = 2

                         Standard orientation:
 ---------------------------------------------------------------------
 Center     Atomic      Atomic             Coordinates (Angstroms)
 Number     Number       Type             X           Y           Z
 ---------------------------------------------------------------------
      1          6           0        0.000000    0.000000    0.780480
      2          6           0        0.000000    0.000000   -0.780480
 ---------------------------------------------------------------------

 SCF Done:  E(UB3LYP) =  -75.4388940165     A.U. after    9 cycles

 Unable to determine electronic state:  partially filled degenerate orbitals.
 Alpha  occ. eigenvalues --  -10.70977 -10.70956  -1.13369  -0.79719  -0.68347
 Alpha  occ. eigenvalues --   -0.64225
 Alpha virt. eigenvalues --   -0.58608  -0.44195  -0.40610  -0.16767  -0.16709
 Alpha virt. eigenvalues --   -0.11989  -0.11798  -0.08452  -0.07648  -0.05470
 Alpha virt. eigenvalues --   -0.05450   0.00284   0.00472   0.01102   0.14067

  Beta  occ. eigenvalues --  -10.70209 -10.70193  -1.09593  -0.77062  -0.63343
  Beta virt. eigenvalues --   -0.57589  -0.54400  -0.39701  -0.36684  -0.16331
  Beta virt. eigenvalues --   -0.15225  -0.11734  -0.11201  -0.08017  -0.07520
  Beta virt. eigenvalues --   -0.05438  -0.05033   0.01182   0.01603   0.01634

 Mulliken charges and spin densities:
               1          2
     1  C    0.500000   0.500000
     2  C    0.500000   0.500000
 Sum of Mulliken charges =   1.00000   1.00000

 Dipole moment (field-independent basis, Debye):
    X=              0.0000    Y=             -0.0000    Z=             -0.0000  Tot=              0.0000
 Quadrupole moment (field-independent basis, Debye-Ang):
   XX=             -9.1531   YY=             -7.4586   ZZ=             -9.8674
   XY=             -0.0000   XZ=              0.0000   YZ=             -0.0000

  Exact polarizability:  -2.000   0.000 138.927   0.000  -0.000  22.214
 Approx polarizability:  20.453  -0.000  28.705  -0.000  -0.000  35.006

                      1
                     SGG
 Frequencies --    973.0029
 Red. masses --     12.0000
 Frc consts  --      6.6936
 IR Inten    --      0.0000

 - Thermochemistry -
 -------------------
 Temperature   298.150 Kelvin.  Pressure   1.00000 Atm.
 Atom     1 has atomic number  6 and mass  12.00000

 Molecular mass:    24.00000 amu.
 Principal axes and moments of inertia in atomic units:
                           1         2         3
     Eigenvalues --     0.00000  52.20746  52.20746
           X           -0.00000   1.00000  -0.00000
           Y            0.00000   0.00000   1.00000
           Z            1.00000   0.00000  -0.00000
 This molecule is a prolate symmetric top.
 Rotational symmetry number  2.
 Rotational temperature (Kelvin)      1.65903
 Rotational constant (GHZ):          34.568648
 Zero-point vibrational energy       5819.8 (Joules/Mol)
                                    1.39098 (Kcal/Mol)
 Vibrational temperatures:   1399.93
          (Kelvin)

 Zero-point correction=                           0.002217 (Hartree/Particle)
 Thermal correction to Energy=                    0.004618
 Thermal correction to Enthalpy=                  0.005562
 Thermal correction to Gibbs Free Energy=        -0.017183
 Sum of electronic and zero-point Energies=            -75.436677
 Sum of electronic and thermal Energies=               -75.434276
 Sum of electronic and thermal Enthalpies=             -75.433332
 Sum of electronic and thermal Free Energies=          -75.456077

                     E (Thermal)             CV                S
                      KCal/Mol        Cal/Mol-Kelvin    Cal/Mol-Kelvin
 Total                    2.898              5.376             47.872
 Electronic               0.000              0.000              1.377
 Translational            0.889              2.981             35.464
 Rotational               0.592              1.987             10.926
 Vibrational              1.417              0.408              0.104

 Optimization completed.
    -- Stationary point found.
 Normal termination of Gaussian 09 at Sun Jun 19 00:33:42 2016.
