 Gaussian 09, Revision E.01,
 Gaussian 09:  EM64L-G09RevE.01 30-Nov-2015

 ---------------------------------------------
 #p b3lyp/6-311++G(3df,2p) freq symmetry=Loose
 ---------------------------------------------

 ---------
 b3lyp opt
 ---------
 Symbolic Z-matrix:
 Charge =  0 Multiplicity = 3

                         Standard orientation:
 ---------------------------------------------------------------------
 Center     Atomic      Atomic             Coordinates (Angstroms)
 Number     Number       Type             X           Y           Z
 ---------------------------------------------------------------------
      1          6           0        0.000000    0.000000    0.650535
      2          6           0        0.000000    0.000000   -0.650535
 ---------------------------------------------------------------------

 SCF Done:  E(UB3LYP) =  -75.9423391788     A.U. after    8 cycles

 Unable to determine electronic state:  partially filled degenerate orbitals.
 Alpha  occ. eigenvalues --  -10.28943 -10.28835  -0.83341  -0.45687  -0.37636
 Alpha  occ. eigenvalues --   -0.36206  -0.34114
 Alpha virt. eigenvalues --   -0.05460  -0.02878   0.03424   0.04821   0.05792
 Alpha virt. eigenvalues --    0.06186   0.09048   0.11370   0.11867   0.16367
 Alpha virt. eigenvalues --    0.27692   0.27708   0.33863   0.36886   0.40786

  Beta  occ. eigenvalues --  -10.27307 -10.27228  -0.76496  -0.36811  -0.32245
  Beta virt. eigenvalues --   -0.22676  -0.21353  -0.00851   0.01271   0.04547
  Beta virt. eigenvalues --    0.05226   0.06279   0.06648   0.09421   0.12247
  Beta virt. eigenvalues --    0.12885   0.16613   0.28987   0.29209   0.36499

 Mulliken charges and spin densities:
               1          2
     1  C   -0.000000   1.000000
     2  C   -0.000000   1.000000
 Sum of Mulliken charges =  -0.00000   2.00000

 Dipole moment (field-independent basis, Debye):
    X=             -0.0000    Y=             -0.0000    Z=             -0.0000  Tot=              0.0000
 Quadrupole moment (field-independent basis, Debye-Ang):
   XX=            -10.7218   YY=            -12.7056   ZZ=            -12.3427
   XY=             -0.0000   XZ=              0.0000   YZ=              0.0000

  Exact polarizability:  15.924   0.000  35.511  -0.000   0.000  43.166
 Approx polarizability:  22.109  -0.000  26.498  -0.000  -0.000  85.275

                      1
                     SGG
 Frequencies --   1693.6178
 Red. masses --     12.0000
 Frc consts  --     20.2797
 IR Inten    --      0.0000

 - Thermochemistry -
 -------------------
 Temperature   298.150 Kelvin.  Pressure   1.00000 Atm.
 Atom     1 has atomic number  6 and mass  12.00000

 Molecular mass:    24.00000 amu.
 Principal axes and moments of inertia in atomic units:
                           1         2         3
     Eigenvalues --     0.00000  36.27023  36.27023
           X           -0.00000   1.00000  -0.00000
           Y            0.00000   0.00000   1.00000
           Z            1.00000   0.00000  -0.00000
 This molecule is a prolate symmetric top.
 Rotational symmetry number  2.
 Rotational temperature (Kelvin)      2.38801
 Rotational constant (GHZ):          49.758195
 Zero-point vibrational energy      10130.1 (Joules/Mol)
                                    2.42115 (Kcal/Mol)
 Vibrational temperatures:   2436.74
          (Kelvin)

 Zero-point correction=                           0.003858 (Hartree/Particle)
 Thermal correction to Energy=                    0.006221
 Thermal correction to Enthalpy=                  0.007165
 Thermal correction to Gibbs Free Energy=        -0.015572
 Sum of electronic and zero-point Energies=            -75.938481
 Sum of electronic and thermal Energies=               -75.936118
 Sum of electronic and thermal Enthalpies=             -75.935174
 Sum of electronic and thermal Free Energies=          -75.957911

                     E (Thermal)             CV                S
                      KCal/Mol        Cal/Mol-Kelvin    Cal/Mol-Kelvin
 Total                    3.904              5.005             47.855
 Electronic               0.000              0.000              2.183
 Translational            0.889              2.981             35.464
 Rotational               0.592              1.987             10.202
 Vibrational              2.423              0.037              0.005

 Optimization completed.
    -- Stationary point found.
 Normal termination of Gaussian 09 at Sun Jun 19 00:33:42 2016.
