 Gaussian 09, Revision E.01,
 Gaussian 09:  EM64L-G09RevE.01 30-Nov-2015

 ---------------------------------------------
 #p b3lyp/6-311++G(3df,2p) freq symmetry=Loose
 ---------------------------------------------

 ---------
 b3lyp opt
 ---------
 Symbolic Z-matrix:
 Charge =  0 Multiplicity = 1

                         Standard orientation:
 ---------------------------------------------------------------------
 Center     Atomic      Atomic             Coordinates (Angstroms)
 Number     Number       Type             X           Y           Z
 ---------------------------------------------------------------------
      1          6           0        0.000000    0.000000    0.623543
      2          6           0        0.000000    0.000000   -0.623543
 ---------------------------------------------------------------------

 SCF Done:  E(RB3LYP) =  -75.9057424244     A.U. after    8 cycles

 The electronic state is 1-SGG.
 Alpha  occ. eigenvalues --  -10.28598 -10.28457  -0.79531  -0.41376  -0.33368
 Alpha  occ. eigenvalues --   -0.33368
 Alpha virt. eigenvalues --   -0.26851  -0.00968  -0.00968   0.03893   0.04672
 Alpha virt. eigenvalues --    0.06391   0.06391   0.09403   0.12253   0.12253
 Alpha virt. eigenvalues --    0.16517   0.29780   0.29780   0.35791   0.37573

 Mulliken charges:
               1
     1  C    0.000000
     2  C    0.000000
 Sum of Mulliken charges =   0.00000

 Dipole moment (field-independent basis, Debye):
    X=             -0.0000    Y=              0.0000    Z=              0.0000  Tot=              0.0000
 Quadrupole moment (field-independent basis, Debye-Ang):
   XX=            -12.3494   YY=            -12.3494   ZZ=             -9.0534
   XY=             -0.0000   XZ=              0.0000   YZ=              0.0000

  Exact polarizability:  55.665  -0.000  55.665  -0.000  -0.000  33.755
 Approx polarizability:  32.749  -0.000  32.749  -0.000  -0.000 139.267

                      1
                     SGG
 Frequencies --   1872.9045
 Red. masses --     12.0000
 Frc consts  --     24.8006
 IR Inten    --      0.0000

 - Thermochemistry -
 -------------------
 Temperature   298.150 Kelvin.  Pressure   1.00000 Atm.
 Atom     1 has atomic number  6 and mass  12.00000

 Molecular mass:    24.00000 amu.
 Principal axes and moments of inertia in atomic units:
                           1         2         3
     Eigenvalues --     0.00000  33.32282  33.32282
           X           -0.00000   1.00000  -0.00000
           Y            0.00000   0.00000   1.00000
           Z            1.00000   0.00000  -0.00000
 This molecule is a prolate symmetric top.
 Rotational symmetry number  2.
 Rotational temperature (Kelvin)      2.59923
 Rotational constant (GHZ):          54.159312
 Zero-point vibrational energy      11202.5 (Joules/Mol)
                                    2.67745 (Kcal/Mol)
 Vibrational temperatures:   2694.69
          (Kelvin)

 Zero-point correction=                           0.004267 (Hartree/Particle)
 Thermal correction to Energy=                    0.006628
 Thermal correction to Enthalpy=                  0.007572
 Thermal correction to Gibbs Free Energy=        -0.014046
 Sum of electronic and zero-point Energies=            -75.901476
 Sum of electronic and thermal Energies=               -75.899114
 Sum of electronic and thermal Enthalpies=             -75.898170
 Sum of electronic and thermal Free Energies=          -75.919789

                     E (Thermal)             CV                S
                      KCal/Mol        Cal/Mol-Kelvin    Cal/Mol-Kelvin
 Total                    4.159              4.987             45.500
 Electronic               0.000              0.000              0.000
 Translational            0.889              2.981             35.464
 Rotational               0.592              1.987             10.034
 Vibrational              2.678              0.019              0.002

 Optimization completed.
    -- Stationary point found.
 Normal termination of Gaussian 09 at Sun Jun 19 00:33:42 2016.
