 Gaussian 09, Revision E.01,
 Gaussian 09:  EM64L-G09RevE.01 30-Nov-2015

 -----------------------------------------
 #p b3lyp/6-311+G(3df) freq symmetry=Loose
 -----------------------------------------

 ---------
 b3lyp opt
 ---------
 Symbolic Z-matrix:
 Charge =  2 Multiplicity = 3

                         Standard orientation:
 ---------------------------------------------------------------------
 Center     Atomic      Atomic             Coordinates (Angstroms)
 Number     Number       Type             X           Y           Z
 ---------------------------------------------------------------------
      1          6           0        0.000000    0.000000    0.917553
      2          6           0        0.000000    0.000000   -0.917553
 ---------------------------------------------------------------------

 SCF Done:  E(UB3LYP) =  -74.6854901771     A.U. after    9 cycles

 Unable to determine electronic state:  partially filled degenerate orbitals.
 Alpha  occ. eigenvalues --  -11.14716 -11.14707  -1.40599  -1.21276  -1.03110
 Alpha  occ. eigenvalues --   -0.98676
 Alpha virt. eigenvalues --   -0.88821  -0.83753  -0.79074  -0.68280  -0.37496
 Alpha virt. eigenvalues --   -0.30428  -0.30003  -0.29043  -0.25542  -0.23119
 Alpha virt. eigenvalues --   -0.22962  -0.22951  -0.22786  -0.17306  -0.17066

  Beta  occ. eigenvalues --  -11.12857 -11.12855  -1.34802  -1.12259
  Beta virt. eigenvalues --   -0.86864  -0.86011  -0.83768  -0.76686  -0.73475
  Beta virt. eigenvalues --   -0.60260  -0.36643  -0.29890  -0.29268  -0.27976
  Beta virt. eigenvalues --   -0.24830  -0.22739  -0.22313  -0.21966  -0.21922

 Mulliken charges and spin densities:
               1          2
     1  C    1.000000   1.000000
     2  C    1.000000   1.000000
 Sum of Mulliken charges =   2.00000   2.00000

 Dipole moment (field-independent basis, Debye):
    X=              0.0000    Y=             -0.0000    Z=             -0.0000  Tot=              0.0000
 Quadrupole moment (field-independent basis, Debye-Ang):
   XX=             -7.5088   YY=             -5.9893   ZZ=              1.8386
   XY=             -0.0000   XZ=             -0.0000   YZ=             -0.0000

  Exact polarizability:  10.049   0.000  10.881  -0.000  -0.000  27.524
 Approx polarizability:  13.811  -0.000  16.122  -0.000  -0.000  74.781

                      1
                     SGG
 Frequencies --    459.3278
 Red. masses --     12.0000
 Frc consts  --      1.4917
 IR Inten    --      0.0000

 - Thermochemistry -
 -------------------
 Temperature   298.150 Kelvin.  Pressure   1.00000 Atm.
 Atom     1 has atomic number  6 and mass  12.00000

 Molecular mass:    24.00000 amu.
 Principal axes and moments of inertia in atomic units:
                           1         2         3
     Eigenvalues --    -0.00000  72.15581  72.15581
           X           -0.00000   1.00000  -0.00000
           Y            0.00000   0.00000   1.00000
           Z            1.00000   0.00000  -0.00000
 This molecule is a prolate symmetric top.
 Rotational symmetry number  2.
 Rotational temperature (Kelvin)      1.20037
 Rotational constant (GHZ):          25.011724
 Zero-point vibrational energy       2747.4 (Joules/Mol)
                                    0.65664 (Kcal/Mol)
 Warning -- explicit consideration of   1 degrees of freedom as
           vibrations may cause significant error
 Vibrational temperatures:    660.87
          (Kelvin)

 Zero-point correction=                           0.001046 (Hartree/Particle)
 Thermal correction to Energy=                    0.003663
 Thermal correction to Enthalpy=                  0.004607
 Thermal correction to Gibbs Free Energy=        -0.019142
 Sum of electronic and zero-point Energies=            -74.684444
 Sum of electronic and thermal Energies=               -74.681827
 Sum of electronic and thermal Enthalpies=             -74.680883
 Sum of electronic and thermal Free Energies=          -74.704632

                     E (Thermal)             CV                S
                      KCal/Mol        Cal/Mol-Kelvin    Cal/Mol-Kelvin
 Total                    2.298              6.308             49.984
 Electronic               0.000              0.000              2.183
 Translational            0.889              2.981             35.464
 Rotational               0.592              1.987             11.569
 Vibrational              0.817              1.340              0.768
 Vibration     1          0.817              1.340              0.768

 Optimization completed.
    -- Stationary point found.
 Normal termination of Gaussian 09 at Thu Jun 16 17:32:41 2016.
