 Gaussian 09, Revision E.01,
 Gaussian 09:  EM64L-G09RevE.01 30-Nov-2015

 ---------------------------------------------
 #p b3lyp/6-311++G(3df,2p) freq symmetry=Loose
 ---------------------------------------------

 ---------
 b3lyp opt
 ---------
 Symbolic Z-matrix:
 Charge =  1 Multiplicity = 2

                         Standard orientation:
 ---------------------------------------------------------------------
 Center     Atomic      Atomic             Coordinates (Angstroms)
 Number     Number       Type             X           Y           Z
 ---------------------------------------------------------------------
      1          6           0        0.000000    0.000000    0.658460
      2          6           0        0.000000    0.000000   -0.658460
 ---------------------------------------------------------------------

 SCF Done:  E(UB3LYP) =  -75.4523762674     A.U. after    9 cycles

 Unable to determine electronic state:  partially filled degenerate orbitals.
 Alpha  occ. eigenvalues --  -10.71524 -10.71448  -1.18463  -0.78181  -0.72469
 Alpha  occ. eigenvalues --   -0.68733
 Alpha virt. eigenvalues --   -0.61929  -0.39995  -0.36856  -0.15954  -0.12289
 Alpha virt. eigenvalues --   -0.12055  -0.11578  -0.08274  -0.05295  -0.04949
 Alpha virt. eigenvalues --    0.00665   0.02015   0.02052   0.05485   0.14646

  Beta  occ. eigenvalues --  -10.70704 -10.70635  -1.14350  -0.75725  -0.67657
  Beta virt. eigenvalues --   -0.60908  -0.57274  -0.35992  -0.32654  -0.15664
  Beta virt. eigenvalues --   -0.12045  -0.11558  -0.11321  -0.08123  -0.04908
  Beta virt. eigenvalues --   -0.04724   0.00788   0.03151   0.03362   0.06980

 Mulliken charges and spin densities:
               1          2
     1  C    0.500000   0.500000
     2  C    0.500000   0.500000
 Sum of Mulliken charges =   1.00000   1.00000

 Dipole moment (field-independent basis, Debye):
    X=              0.0000    Y=             -0.0000    Z=              0.0000  Tot=              0.0000
 Quadrupole moment (field-independent basis, Debye-Ang):
   XX=             -8.3621   YY=             -9.9812   ZZ=             -4.2919
   XY=             -0.0000   XZ=              0.0000   YZ=              0.0000

  Exact polarizability: 257.960  -0.000  40.186   0.000   0.000  26.646
 Approx polarizability:  17.961  -0.000  23.250  -0.000  -0.000 118.596

                      1
                     SGG
 Frequencies --   1598.9117
 Red. masses --     12.0000
 Frc consts  --     18.0751
 IR Inten    --      0.0000

 - Thermochemistry -
 -------------------
 Temperature   298.150 Kelvin.  Pressure   1.00000 Atm.
 Atom     1 has atomic number  6 and mass  12.00000

 Molecular mass:    24.00000 amu.
 Principal axes and moments of inertia in atomic units:
                           1         2         3
     Eigenvalues --    -0.00000  37.15932  37.15932
           X           -0.00000   0.70711   0.70711
           Y           -0.00000   0.70711  -0.70711
           Z            1.00000   0.00000   0.00000
 This molecule is a prolate symmetric top.
 Rotational symmetry number  2.
 Rotational temperature (Kelvin)      2.33088
 Rotational constant (GHZ):          48.567658
 Zero-point vibrational energy       9563.6 (Joules/Mol)
                                    2.28576 (Kcal/Mol)
 Vibrational temperatures:   2300.47
          (Kelvin)

 Zero-point correction=                           0.003643 (Hartree/Particle)
 Thermal correction to Energy=                    0.006006
 Thermal correction to Enthalpy=                  0.006950
 Thermal correction to Gibbs Free Energy=        -0.015428
 Sum of electronic and zero-point Energies=            -75.448734
 Sum of electronic and thermal Energies=               -75.446370
 Sum of electronic and thermal Enthalpies=             -75.445426
 Sum of electronic and thermal Free Energies=          -75.467804

                     E (Thermal)             CV                S
                      KCal/Mol        Cal/Mol-Kelvin    Cal/Mol-Kelvin
 Total                    3.769              5.021             47.100
 Electronic               0.000              0.000              1.377
 Translational            0.889              2.981             35.464
 Rotational               0.592              1.987             10.250
 Vibrational              2.288              0.053              0.008

 Optimization completed.
    -- Stationary point found.
 Normal termination of Gaussian 09 at Sun Jun 19 00:33:42 2016.
