 Gaussian 09, Revision E.01,
 Gaussian 09:  EM64L-G09RevE.01 30-Nov-2015

 -----------------------------------------
 #p b3lyp/6-311+G(3df) freq symmetry=Loose
 -----------------------------------------

 ---------
 b3lyp opt
 ---------
 Symbolic Z-matrix:
 Charge =  2 Multiplicity = 3

                         Standard orientation:
 ---------------------------------------------------------------------
 Center     Atomic      Atomic             Coordinates (Angstroms)
 Number     Number       Type             X           Y           Z
 ---------------------------------------------------------------------
      1          6           0        0.000000    0.000000    0.750824
      2          6           0        0.000000    0.000000   -0.750824
 ---------------------------------------------------------------------

 SCF Done:  E(UB3LYP) =  -74.6652833383     A.U. after    9 cycles

 Unable to determine electronic state:  partially filled degenerate orbitals.
 Alpha  occ. eigenvalues --  -11.17274 -11.17244  -1.56070  -1.20241  -1.07865
 Alpha  occ. eigenvalues --   -1.07827
 Alpha virt. eigenvalues --   -0.97311  -0.82275  -0.78176  -0.51314  -0.39390
 Alpha virt. eigenvalues --   -0.31815  -0.31498  -0.29374  -0.26796  -0.26486
 Alpha virt. eigenvalues --   -0.26275  -0.23077  -0.22958  -0.14517  -0.13713

  Beta  occ. eigenvalues --  -11.15334 -11.15324  -1.50055  -1.09908
  Beta virt. eigenvalues --   -0.95127  -0.91663  -0.90530  -0.75290  -0.71994
  Beta virt. eigenvalues --   -0.44861  -0.38264  -0.31473  -0.30798  -0.28157
  Beta virt. eigenvalues --   -0.26211  -0.25116  -0.25003  -0.23034  -0.22554

 Mulliken charges and spin densities:
               1          2
     1  C    1.000000   1.000000
     2  C    1.000000   1.000000
 Sum of Mulliken charges =   2.00000   2.00000

 Dipole moment (field-independent basis, Debye):
    X=              0.0000    Y=             -0.0000    Z=             -0.0000  Tot=              0.0000
 Quadrupole moment (field-independent basis, Debye-Ang):
   XX=             -5.6718   YY=             -7.0969   ZZ=             -1.9045
   XY=             -0.0000   XZ=             -0.0000   YZ=              0.0000

  Exact polarizability: -17.305   0.000   8.934   0.000   0.000  26.890
 Approx polarizability:  15.935  -0.000  12.368  -0.000  -0.000  53.990

                      1
                     SGG
 Frequencies --   1178.4440
 Red. masses --     12.0000
 Frc consts  --      9.8186
 IR Inten    --      0.0000

 - Thermochemistry -
 -------------------
 Temperature   298.150 Kelvin.  Pressure   1.00000 Atm.
 Atom     1 has atomic number  6 and mass  12.00000

 Molecular mass:    24.00000 amu.
 Principal axes and moments of inertia in atomic units:
                           1         2         3
     Eigenvalues --     0.00000  48.31537  48.31537
           X           -0.00000   1.00000  -0.00000
           Y            0.00000   0.00000   1.00000
           Z            1.00000   0.00000  -0.00000
 This molecule is a prolate symmetric top.
 Rotational symmetry number  2.
 Rotational temperature (Kelvin)      1.79268
 Rotational constant (GHZ):          37.353359
 Zero-point vibrational energy       7048.7 (Joules/Mol)
                                    1.68467 (Kcal/Mol)
 Vibrational temperatures:   1695.52
          (Kelvin)

 Zero-point correction=                           0.002685 (Hartree/Particle)
 Thermal correction to Energy=                    0.005063
 Thermal correction to Enthalpy=                  0.006008
 Thermal correction to Gibbs Free Energy=        -0.017019
 Sum of electronic and zero-point Energies=            -74.662599
 Sum of electronic and thermal Energies=               -74.660220
 Sum of electronic and thermal Enthalpies=             -74.659276
 Sum of electronic and thermal Free Energies=          -74.682303

                     E (Thermal)             CV                S
                      KCal/Mol        Cal/Mol-Kelvin    Cal/Mol-Kelvin
 Total                    3.177              5.187             48.465
 Electronic               0.000              0.000              2.183
 Translational            0.889              2.981             35.464
 Rotational               0.592              1.987             10.772
 Vibrational              1.696              0.219              0.045

 Normal termination of Gaussian 09 at Thu Jun 16 17:32:41 2016.
