 Gaussian 09, Revision E.01,
 Gaussian 09:  EM64L-G09RevE.01 30-Nov-2015

 ---------------------------------------------
 #p b3lyp/6-311++G(3df,2p) freq symmetry=Loose
 ---------------------------------------------

 ---------
 b3lyp opt
 ---------
 Symbolic Z-matrix:
 Charge =  1 Multiplicity = 4

                         Standard orientation:
 ---------------------------------------------------------------------
 Center     Atomic      Atomic             Coordinates (Angstroms)
 Number     Number       Type             X           Y           Z
 ---------------------------------------------------------------------
      1          6           0        0.000000    0.000000    0.700972
      2          6           0        0.000000    0.000000   -0.700972
 ---------------------------------------------------------------------

 SCF Done:  E(UB3LYP) =  -75.5039018534     A.U. after    9 cycles

 The electronic state is 4-SGG.
 Alpha  occ. eigenvalues --  -10.71220 -10.71165  -1.20272  -0.82632  -0.71778
 Alpha  occ. eigenvalues --   -0.71778  -0.70949
 Alpha virt. eigenvalues --   -0.42400  -0.42400  -0.16644  -0.12655  -0.12034
 Alpha virt. eigenvalues --   -0.12034  -0.08216  -0.05312  -0.05312  -0.03673
 Alpha virt. eigenvalues --    0.00491   0.00491   0.01759   0.14525   0.15411

  Beta  occ. eigenvalues --  -10.68683 -10.68657  -1.09975  -0.70659
  Beta virt. eigenvalues --   -0.55288  -0.55288  -0.54069  -0.32712  -0.32712
  Beta virt. eigenvalues --   -0.15250  -0.11564  -0.11134  -0.11134  -0.07532
  Beta virt. eigenvalues --   -0.04689  -0.04689   0.00655   0.02992   0.02994

 Mulliken charges and spin densities:
               1          2
     1  C    0.500000   1.500000
     2  C    0.500000   1.500000
 Sum of Mulliken charges =   1.00000   3.00000

 Dipole moment (field-independent basis, Debye):
    X=              0.0000    Y=              0.0000    Z=             -0.0000  Tot=              0.0000
 Quadrupole moment (field-independent basis, Debye-Ang):
   XX=             -8.6055   YY=             -8.6055   ZZ=             -7.0406
   XY=             -0.0000   XZ=              0.0000   YZ=              0.0000

  Exact polarizability:  11.432   0.000  11.432   0.000   0.000  34.383
 Approx polarizability:  15.970  -0.000  15.970  -0.000  -0.000  71.633

                      1
                     SGG
 Frequencies --   1339.2901
 Red. masses --     12.0000
 Frc consts  --     12.6818
 IR Inten    --      0.0000

 - Thermochemistry -
 -------------------
 Temperature   298.150 Kelvin.  Pressure   1.00000 Atm.
 Atom     1 has atomic number  6 and mass  12.00000

 Molecular mass:    24.00000 amu.
 Principal axes and moments of inertia in atomic units:
                           1         2         3
     Eigenvalues --    -0.00000  42.11243  42.11243
           X           -0.00000   0.70711   0.70711
           Y           -0.00000   0.70711  -0.70711
           Z            1.00000   0.00000   0.00000
 This molecule is a prolate symmetric top.
 Rotational symmetry number  2.
 Rotational temperature (Kelvin)      2.05673
 Rotational constant (GHZ):          42.855307
 Zero-point vibrational energy       8010.7 (Joules/Mol)
                                    1.91461 (Kcal/Mol)
 Vibrational temperatures:   1926.94
          (Kelvin)

 Zero-point correction=                           0.003051 (Hartree/Particle)
 Thermal correction to Energy=                    0.005421
 Thermal correction to Enthalpy=                  0.006365
 Thermal correction to Gibbs Free Energy=        -0.016793
 Sum of electronic and zero-point Energies=            -75.500851
 Sum of electronic and thermal Energies=               -75.498481
 Sum of electronic and thermal Enthalpies=             -75.497537
 Sum of electronic and thermal Free Energies=          -75.520695

                     E (Thermal)             CV                S
                      KCal/Mol        Cal/Mol-Kelvin    Cal/Mol-Kelvin
 Total                    3.402              5.098             48.741
 Electronic               0.000              0.000              2.755
 Translational            0.889              2.981             35.464
 Rotational               0.592              1.987             10.499
 Vibrational              1.921              0.130              0.023

 Optimization completed.
    -- Stationary point found.
 Normal termination of Gaussian 09 at Sun Jun 19 00:33:42 2016.
