 Gaussian 09, Revision C.01,
 Gaussian 09:  AM64L-G09RevC.01 23-Sep-2011

 ----------------------------------------------------------------
 #p b3lyp/6-311+G(3df) symmetry=Loose opt freq gfinput iop(6/7=3)
 ----------------------------------------------------------------

 (Enter /home/nestor/.gaussian09/l101.exe)
 ---------
 b3lyp opt
 ---------
 Charge =  2 Multiplicity = 1

 SCF Done:  E(RB3LYP) =  -74.6010425310     A.U. after    8 cycles
 SCF Done:  E(RB3LYP) =  -74.6075505586     A.U. after    7 cycles
 SCF Done:  E(RB3LYP) =  -74.6084802127     A.U. after    7 cycles
 SCF Done:  E(RB3LYP) =  -74.6084810829     A.U. after    6 cycles
 Optimization completed.
    -- Stationary point found.
 Normal termination of Gaussian 09 at Tue Nov 15 17:06:05 2016.

 ----------------------------------------------------------------------
 #P Geom=AllCheck Guess=TCheck SCRF=Check Test GenChk RB3LYP/6-311+G(3d
 f) Freq
 ----------------------------------------------------------------------

 Structure from the checkpoint file:  /scratch/nestor/gaussian/Gau-29985.chk
 ---------
 b3lyp opt
 ---------
 Charge =  2 Multiplicity = 1

                         Standard orientation:
 ---------------------------------------------------------------------
 Center     Atomic      Atomic             Coordinates (Angstroms)
 Number     Number       Type             X           Y           Z
 ---------------------------------------------------------------------
      1          6           0        0.000000    0.000000    0.766175
      2          6           0        0.000000    0.000000   -0.766175
 ---------------------------------------------------------------------

 SCF Done:  E(RB3LYP) =  -74.6084810829     A.U. after    1 cycles

 Unable to determine electronic state:  partially filled degenerate orbitals.
 Alpha  occ. eigenvalues --  -11.18014 -11.18003  -1.49283  -1.16290  -1.01953
 Alpha virt. eigenvalues --   -0.97262  -0.94829  -0.78588  -0.77492  -0.49736
 Alpha virt. eigenvalues --   -0.38187  -0.31074  -0.30785  -0.29437  -0.26934
 Alpha virt. eigenvalues --   -0.24564  -0.24257  -0.23187  -0.22937  -0.14674

 Mulliken atomic charges:
              1
     1  C    1.000000
     2  C    1.000000
 Sum of Mulliken atomic charges =   2.00000

 Dipole moment (field-independent basis, Debye):
    X=              0.0000    Y=              0.0000    Z=              0.0000  Tot=              0.0000
 Quadrupole moment (field-independent basis, Debye-Ang):
   XX=             -8.6074   YY=             -5.6966   ZZ=              1.5416
   XY=              0.0000   XZ=              0.0000   YZ=              0.0000

  Exact polarizability: -13.606   0.000   8.980   0.000   0.000  24.255
 Approx polarizability:  20.672   0.000  14.078   0.000   0.000 104.234

                     1
                    SGG
 Frequencies --   848.2772
 Red. masses --    12.0000
 Frc consts  --     5.0875
 IR Inten    --     0.0000

 - Thermochemistry -
 -------------------
 Temperature   298.150 Kelvin.  Pressure   1.00000 Atm.
 Atom     1 has atomic number  6 and mass  12.00000

 Molecular mass:    24.00000 amu.
 Principal axes and moments of inertia in atomic units:
                           1         2         3
     Eigenvalues --     0.00000  50.31127  50.31127
           X            0.00000   1.00000   0.00000
           Y            0.00000   0.00000   1.00000
           Z            1.00000   0.00000   0.00000
 This molecule is a prolate symmetric top.
 Rotational symmetry number  2.
 Rotational temperature (Kelvin)      1.72156
 Rotational constant (GHZ):          35.871508
 Zero-point vibrational energy       5073.8 (Joules/Mol)
                                    1.21267 (Kcal/Mol)
 Vibrational temperatures:   1220.48
          (Kelvin)

 Zero-point correction=                           0.001933 (Hartree/Particle)
 Thermal correction to Energy=                    0.004359
 Thermal correction to Enthalpy=                  0.005303
 Thermal correction to Gibbs Free Energy=        -0.016785
 Sum of electronic and zero-point Energies=            -74.606549
 Sum of electronic and thermal Energies=               -74.604123
 Sum of electronic and thermal Enthalpies=             -74.603178
 Sum of electronic and thermal Free Energies=          -74.625266

                     E (Thermal)             CV                S
                      KCal/Mol        Cal/Mol-Kelvin    Cal/Mol-Kelvin
 Total                    2.735              5.542             46.488
 Electronic               0.000              0.000              0.000
 Translational            0.889              2.981             35.464
 Rotational               0.592              1.987             10.853
 Vibrational              1.254              0.574              0.171

 Optimization completed.
    -- Stationary point found.
 Normal termination of Gaussian 09 at Tue Nov 15 17:06:28 2016.
