 Gaussian 09, Revision E.01,
 Gaussian 09:  EM64L-G09RevE.01 30-Nov-2015

 ---------------------------------------------
 #p b3lyp/6-311++G(3df,2p) freq symmetry=Loose
 ---------------------------------------------

 ---------
 b3lyp opt
 ---------
 Symbolic Z-matrix:
 Charge =  0 Multiplicity = 4

                         Standard orientation:
 ---------------------------------------------------------------------
 Center     Atomic      Atomic             Coordinates (Angstroms)
 Number     Number       Type             X           Y           Z
 ---------------------------------------------------------------------
      1          6           0       -0.000000   -0.000000    1.345483
      2          6           0       -0.000000    0.000000    0.026335
      3          7           0        0.000000    0.000000   -1.175845
 ---------------------------------------------------------------------

 SCF Done:  E(UB3LYP) =  -130.755114566     A.U. after   13 cycles

 The electronic state is 4-SG.
 Alpha  occ. eigenvalues --  -14.37625 -10.32020 -10.25987  -0.95542  -0.80360
 Alpha  occ. eigenvalues --   -0.48128  -0.43100  -0.43100  -0.42030  -0.30165
 Alpha  occ. eigenvalues --   -0.30165
 Alpha virt. eigenvalues --    0.00451   0.03392   0.03392   0.03991   0.05778
 Alpha virt. eigenvalues --    0.05778   0.08947   0.10046   0.10046   0.14600
 Alpha virt. eigenvalues --    0.18748   0.20837   0.20837   0.23225   0.26144

  Beta  occ. eigenvalues --  -14.35716 -10.27900 -10.26336  -0.92245  -0.73269
  Beta  occ. eigenvalues --   -0.39836  -0.38479  -0.38479
  Beta virt. eigenvalues --   -0.23101  -0.13836  -0.13836   0.01152   0.04868
  Beta virt. eigenvalues --    0.04868   0.05038   0.09010   0.09010   0.09253
  Beta virt. eigenvalues --    0.11659   0.11659   0.15389   0.19560   0.21847

 Mulliken charges and spin densities:
               1          2
     1  C    0.143681   2.501359
     2  C    0.632337  -0.426668
     3  N   -0.776018   0.925309
 Sum of Mulliken charges =  -0.00000   3.00000

 Dipole moment (field-independent basis, Debye):
    X=             -0.0000    Y=             -0.0000    Z=              2.4931  Tot=              2.4931
 Quadrupole moment (field-independent basis, Debye-Ang):
   XX=            -16.6682   YY=            -16.6682   ZZ=            -17.2380
   XY=             -0.0000   XZ=              0.0000   YZ=              0.0000

  Exact polarizability:  18.880  -0.000  18.880  -0.000   0.000  44.268
 Approx polarizability:  24.285  -0.000  24.285  -0.000  -0.000  86.310

                      1                      2                      3
                     PI                     PI                     SG
 Frequencies --    497.4823               497.4823              1184.6204
 Red. masses --     12.2819                12.2819                12.4794
 Frc consts  --      1.7909                 1.7909                10.3181
 IR Inten    --      0.7450                 0.7450                 0.7120

                      4
                     SG
 Frequencies --   1706.2591
 Red. masses --     12.6572
 Frc consts  --     21.7109
 IR Inten    --     22.7909

 - Thermochemistry -
 -------------------
 Temperature   298.150 Kelvin.  Pressure   1.00000 Atm.
 Atom     1 has atomic number  6 and mass  12.00000

 Molecular mass:    38.00307 amu.
 Principal axes and moments of inertia in atomic units:
                           1         2         3
     Eigenvalues --     0.00000 146.74587 146.74587
           X           -0.00000   0.01001   0.99995
           Y           -0.00000   0.99995  -0.01001
           Z            1.00000   0.00000   0.00000
 This molecule is a prolate symmetric top.
 Rotational symmetry number  1.
 Rotational temperature (Kelvin)      0.59023
 Rotational constant (GHZ):          12.298413
 Zero-point vibrational energy      23242.5 (Joules/Mol)
                                    5.55509 (Kcal/Mol)
 Warning -- explicit consideration of   2 degrees of freedom as
           vibrations may cause significant error
 Vibrational temperatures:    715.77   715.77  1704.40  2454.92
          (Kelvin)

 Zero-point correction=                           0.008853 (Hartree/Particle)
 Thermal correction to Energy=                    0.011685
 Thermal correction to Enthalpy=                  0.012629
 Thermal correction to Gibbs Free Energy=        -0.013657
 Sum of electronic and zero-point Energies=           -130.746262
 Sum of electronic and thermal Energies=              -130.743430
 Sum of electronic and thermal Enthalpies=            -130.742485
 Sum of electronic and thermal Free Energies=         -130.768772

                     E (Thermal)             CV                S
                      KCal/Mol        Cal/Mol-Kelvin    Cal/Mol-Kelvin
 Total                    7.332              7.730             55.324
 Electronic               0.000              0.000              2.755
 Translational            0.889              2.981             36.834
 Rotational               0.592              1.987             14.357
 Vibrational              5.851              2.762              1.378
 Vibration     1          0.853              1.256              0.664
 Vibration     2          0.853              1.256              0.664

 Normal termination of Gaussian 09 at Tue Aug 16 17:39:22 2016.
