 Gaussian 09, Revision E.01,
 Gaussian 09:  EM64L-G09RevE.01 30-Nov-2015

 ----------------------------------
 #p b3lyp/6-311++G(3df,2p) opt freq
 ----------------------------------

 ---------
 b3lyp opt
 ---------
 Symbolic Z-matrix:
 Charge =  0 Multiplicity = 2

 SCF Done:  E(UB3LYP) =  -130.795103556     A.U. after   14 cycles
 SCF Done:  E(UB3LYP) =  -130.795534922     A.U. after   11 cycles
 SCF Done:  E(UB3LYP) =  -130.795538700     A.U. after   11 cycles
 Optimization completed.
    -- Stationary point found.
 Normal termination of Gaussian 09 at Tue Dec 13 09:48:07 2016.

 ----------------------------------------------------------------------
 #P Geom=AllCheck Guess=TCheck SCRF=Check GenChk UB3LYP/6-311++G(3df,2p
 ) Freq
 ----------------------------------------------------------------------

 Structure from the checkpoint file:  "/scratch/sergio/C2N.q0.m2-3.com-2358024/Gau-31700.chk"
 ---------
 b3lyp opt
 ---------
 Charge =  0 Multiplicity = 2

                         Standard orientation:
 ---------------------------------------------------------------------
 Center     Atomic      Atomic             Coordinates (Angstroms)
 Number     Number       Type             X           Y           Z
 ---------------------------------------------------------------------
      1          6           0        0.000000    0.000000   -1.369672
      2          6           0        0.000000    0.000000   -0.002399
      3          7           0        0.000000    0.000000    1.176061
 ---------------------------------------------------------------------

 SCF Done:  E(UB3LYP) =  -130.795538700     A.U. after    1 cycles

 Unable to determine electronic state:  partially filled degenerate orbitals.
 Alpha  occ. eigenvalues --  -14.41096 -10.31380 -10.26010  -0.98347  -0.79154
 Alpha  occ. eigenvalues --   -0.45539  -0.44684  -0.42994  -0.37212  -0.29421
 Alpha virt. eigenvalues --   -0.20522  -0.00018   0.02989   0.03754   0.04966
 Alpha virt. eigenvalues --    0.05570   0.06074   0.08698   0.10039   0.10233
 Alpha virt. eigenvalues --    0.14597   0.17449   0.20094   0.20253   0.23036

  Beta  occ. eigenvalues --  -14.40272 -10.30241 -10.26256  -0.97066  -0.76390
  Beta  occ. eigenvalues --   -0.44200  -0.42650  -0.41121  -0.35289
  Beta virt. eigenvalues --   -0.19258  -0.16024   0.00172   0.03784   0.04534
  Beta virt. eigenvalues --    0.05101   0.06349   0.07572   0.08768   0.10310
  Beta virt. eigenvalues --    0.10885   0.14735   0.17790   0.20347   0.20759

 Mulliken charges and spin densities:
               1          2
     1  C   -0.065495   0.759598
     2  C    0.814475  -0.145862
     3  N   -0.748980   0.386264
 Sum of Mulliken charges =   0.00000   1.00000

 Dipole moment (field-independent basis, Debye):
    X=              0.0000    Y=              0.0000    Z=             -0.1517  Tot=              0.1517
 Quadrupole moment (field-independent basis, Debye-Ang):
   XX=            -15.4233   YY=            -17.0623   ZZ=            -22.2722
   XY=              0.0000   XZ=              0.0000   YZ=              0.0000

  Exact polarizability:  21.268  -0.000  21.578  -0.000   0.000  42.916
 Approx polarizability:  31.076  -0.000  27.402  -0.000  -0.000  87.493

                      1                      2                      3
                     PI                     PI                     SG
 Frequencies --    264.8377               401.6115              1080.1630
 Red. masses --     12.2975                12.2975                12.4388
 Frc consts  --      0.5082                 1.1686                 8.5508
 IR Inten    --     30.3301                16.4600                79.6082

                      4
                     SG
 Frequencies --   2021.6573
 Red. masses --     12.6993
 Frc consts  --     30.5805
 IR Inten    --    122.6699

 - Thermochemistry -
 -------------------
 Temperature   298.150 Kelvin.  Pressure   1.00000 Atm.
 Atom     1 has atomic number  6 and mass  12.00000

 Molecular mass:    38.00307 amu.
 Principal axes and moments of inertia in atomic units:
                           1         2         3
     Eigenvalues --     0.00000 149.55618 149.55618
           X            0.00000  -0.00000   1.00000
           Y            0.00000   1.00000   0.00000
           Z            1.00000   0.00000   0.00000
 This molecule is a prolate symmetric top.
 Rotational symmetry number  1.
 Rotational temperature (Kelvin)      0.57914
 Rotational constant (GHZ):          12.067313
 Zero-point vibrational energy      22539.3 (Joules/Mol)
                                    5.38701 (Kcal/Mol)
 Warning -- explicit consideration of   2 degrees of freedom as
           vibrations may cause significant error
 Vibrational temperatures:    381.04   577.83  1554.11  2908.71
          (Kelvin)

 Zero-point correction=                           0.008585 (Hartree/Particle)
 Thermal correction to Energy=                    0.011746
 Thermal correction to Enthalpy=                  0.012691
 Thermal correction to Gibbs Free Energy=        -0.013566
 Sum of electronic and zero-point Energies=           -130.786954
 Sum of electronic and thermal Energies=              -130.783792
 Sum of electronic and thermal Enthalpies=            -130.782848
 Sum of electronic and thermal Free Energies=         -130.809105

                     E (Thermal)             CV                S
                      KCal/Mol        Cal/Mol-Kelvin    Cal/Mol-Kelvin
 Total                    7.371              8.480             55.262
 Electronic               0.000              0.000              1.377
 Translational            0.889              2.981             36.834
 Rotational               0.592              1.987             14.395
 Vibrational              5.890              3.512              2.655
 Vibration     1          0.671              1.737              1.630
 Vibration     2          0.767              1.467              0.957

 Optimization completed.
    -- Stationary point found.
 Normal termination of Gaussian 09 at Tue Dec 13 09:49:08 2016.
