 Gaussian 09, Revision E.01,
 Gaussian 09:  EM64L-G09RevE.01 30-Nov-2015

 ----------------------------------
 #p b3lyp/6-311++G(3df,2p) opt freq
 ----------------------------------

 ---------
 b3lyp opt
 ---------
 Symbolic Z-matrix:
 Charge =  0 Multiplicity = 2

 SCF Done:  E(UB3LYP) =  -130.798691217     A.U. after   10 cycles
 SCF Done:  E(UB3LYP) =  -130.799250324     A.U. after    8 cycles
 SCF Done:  E(UB3LYP) =  -130.799256114     A.U. after    7 cycles
 Optimization completed.
    -- Stationary point found.
 Normal termination of Gaussian 09 at Tue Dec 13 09:46:29 2016.

 ----------------------------------------------------------------------
 #P Geom=AllCheck Guess=TCheck SCRF=Check GenChk UB3LYP/6-311++G(3df,2p
 ) Freq
 ----------------------------------------------------------------------

 Structure from the checkpoint file:  "/scratch/sergio/C2N.q0.m2-2.com-2358023/Gau-31455.chk"
 ---------
 b3lyp opt
 ---------
 Charge =  0 Multiplicity = 2

                         Standard orientation:
 ---------------------------------------------------------------------
 Center     Atomic      Atomic             Coordinates (Angstroms)
 Number     Number       Type             X           Y           Z
 ---------------------------------------------------------------------
      1          6           0        0.000000    0.000000    1.239468
      2          6           0        0.000000    0.000000   -1.239468
      3          7           0        0.000000    0.000000    0.000000
 ---------------------------------------------------------------------

 SCF Done:  E(UB3LYP) =  -130.799256114     A.U. after    1 cycles

 Unable to determine electronic state:  partially filled degenerate orbitals.
 Alpha  occ. eigenvalues --  -14.42197 -10.30534 -10.30530  -1.04347  -0.82778
 Alpha  occ. eigenvalues --   -0.48320  -0.47320  -0.40884  -0.37134  -0.25839
 Alpha virt. eigenvalues --   -0.17375  -0.01239  -0.00162   0.01076   0.05167
 Alpha virt. eigenvalues --    0.06306   0.07399   0.07424   0.09369   0.09638
 Alpha virt. eigenvalues --    0.12510   0.18217   0.18994   0.19323   0.25900

  Beta  occ. eigenvalues --  -14.42547 -10.29602 -10.29600  -1.03830  -0.80780
  Beta  occ. eigenvalues --   -0.47319  -0.46131  -0.38654  -0.35413
  Beta virt. eigenvalues --   -0.16164  -0.13178  -0.00014   0.00942   0.01256
  Beta virt. eigenvalues --    0.05290   0.07440   0.07767   0.09150   0.09708
  Beta virt. eigenvalues --    0.10057   0.12608   0.18383   0.18930   0.19362

 Mulliken charges and spin densities:
               1          2
     1  C    0.090449   0.582036
     2  C    0.090449   0.582036
     3  N   -0.180899  -0.164072
 Sum of Mulliken charges =  -0.00000   1.00000

 Dipole moment (field-independent basis, Debye):
    X=             -0.0000    Y=              0.0000    Z=              0.0000  Tot=              0.0000
 Quadrupole moment (field-independent basis, Debye-Ang):
   XX=            -17.3206   YY=            -15.5636   ZZ=            -22.7574
   XY=              0.0000   XZ=              0.0000   YZ=             -0.0000

  Exact polarizability:  22.644  -0.000  22.487   0.000  -0.000  45.055
 Approx polarizability:  29.220  -0.000  33.643  -0.000  -0.000  77.626

                      1                      2                      3
                     PIU                    PIU                    SGG
 Frequencies --    228.6777               403.0573              1305.2114
 Red. masses --     13.1917                13.1917                12.0000
 Frc consts  --      0.4064                 1.2627                12.0446
 IR Inten    --     12.7240                 3.9950                 0.0000

                      4
                     SGU
 Frequencies --   1528.0841
 Red. masses --     13.1917
 Frc consts  --     18.1487
 IR Inten    --     55.7582

 - Thermochemistry -
 -------------------
 Temperature   298.150 Kelvin.  Pressure   1.00000 Atm.
 Atom     1 has atomic number  6 and mass  12.00000

 Molecular mass:    38.00307 amu.
 Principal axes and moments of inertia in atomic units:
                           1         2         3
     Eigenvalues --     0.00000 131.66777 131.66777
           X           -0.00000   1.00000  -0.00000
           Y            0.00000   0.00000   1.00000
           Z            1.00000   0.00000  -0.00000
 This molecule is a prolate symmetric top.
 Rotational symmetry number  2.
 Rotational temperature (Kelvin)      0.65782
 Rotational constant (GHZ):          13.706780
 Zero-point vibrational energy      20725.5 (Joules/Mol)
                                    4.95351 (Kcal/Mol)
 Warning -- explicit consideration of   2 degrees of freedom as
           vibrations may cause significant error
 Vibrational temperatures:    329.02   579.91  1877.91  2198.57
          (Kelvin)

 Zero-point correction=                           0.007894 (Hartree/Particle)
 Thermal correction to Energy=                    0.011093
 Thermal correction to Enthalpy=                  0.012037
 Thermal correction to Gibbs Free Energy=        -0.013550
 Sum of electronic and zero-point Energies=           -130.791362
 Sum of electronic and thermal Energies=              -130.788163
 Sum of electronic and thermal Enthalpies=            -130.787219
 Sum of electronic and thermal Free Energies=         -130.812806

                     E (Thermal)             CV                S
                      KCal/Mol        Cal/Mol-Kelvin    Cal/Mol-Kelvin
 Total                    6.961              8.442             53.854
 Electronic               0.000              0.000              1.377
 Translational            0.889              2.981             36.834
 Rotational               0.592              1.987             12.764
 Vibrational              5.480              3.474              2.878
 Vibration     1          0.651              1.797              1.889
 Vibration     2          0.768              1.464              0.951

 Optimization completed.
    -- Stationary point found.
 Normal termination of Gaussian 09 at Tue Dec 13 09:47:26 2016.
