 Gaussian 09, Revision E.01,
 Gaussian 09:  EM64L-G09RevE.01 30-Nov-2015

 ----------------------------------
 #p b3lyp/6-311++G(3df,2p) opt freq
 ----------------------------------

 ---------
 b3lyp opt
 ---------
 Symbolic Z-matrix:
 Charge =  0 Multiplicity = 4

 SCF Done:  E(UB3LYP) =  -130.708859339     A.U. after    9 cycles
 SCF Done:  E(UB3LYP) =  -130.708897517     A.U. after    8 cycles
 SCF Done:  E(UB3LYP) =  -130.708898016     A.U. after    7 cycles
 Optimization completed.
    -- Stationary point found.
 Normal termination of Gaussian 09 at Tue Dec 13 10:00:14 2016.

 ----------------------------------------------------------------------
 #P Geom=AllCheck Guess=TCheck SCRF=Check GenChk UB3LYP/6-311++G(3df,2p
 ) Freq
 ----------------------------------------------------------------------

 Structure from the checkpoint file:  "/scratch/sergio/C2N.q0.m4-3.com-2358028/Gau-32557.chk"
 ---------
 b3lyp opt
 ---------
 Charge =  0 Multiplicity = 4

                         Standard orientation:
 ---------------------------------------------------------------------
 Center     Atomic      Atomic             Coordinates (Angstroms)
 Number     Number       Type             X           Y           Z
 ---------------------------------------------------------------------
      1          7           0        0.000000    0.000000    0.000000
      2          6           0        0.000000    0.000000    1.236263
      3          6           0        0.000000    0.000000   -1.236263
 ---------------------------------------------------------------------

 SCF Done:  E(UB3LYP) =  -130.708898016     A.U. after    1 cycles

 The electronic state is 4-SGU.
 Alpha  occ. eigenvalues --  -14.43087 -10.29276 -10.29271  -1.02874  -0.82219
 Alpha  occ. eigenvalues --   -0.47185  -0.47185  -0.45258  -0.41567  -0.26017
 Alpha  occ. eigenvalues --   -0.26017
 Alpha virt. eigenvalues --   -0.01408  -0.01408   0.01325   0.04612   0.06315
 Alpha virt. eigenvalues --    0.06315   0.07116   0.09327   0.09327   0.12321
 Alpha virt. eigenvalues --    0.19046   0.19849   0.19849   0.26537   0.26538

  Beta  occ. eigenvalues --  -14.43662 -10.26454 -10.26454  -1.01435  -0.76840
  Beta  occ. eigenvalues --   -0.44905  -0.44905  -0.32778
  Beta virt. eigenvalues --   -0.26253  -0.10706  -0.10706   0.01555   0.01555
  Beta virt. eigenvalues --    0.02032   0.05390   0.07338   0.10279   0.10279
  Beta virt. eigenvalues --    0.10488   0.10488   0.12686   0.19432   0.19887

 Mulliken charges and spin densities:
               1          2
     1  N   -0.288151  -0.390832
     2  C    0.144076   1.695416
     3  C    0.144076   1.695416
 Sum of Mulliken charges =   0.00000   3.00000

 Dipole moment (field-independent basis, Debye):
    X=              0.0000    Y=              0.0000    Z=              0.0000  Tot=              0.0000
 Quadrupole moment (field-independent basis, Debye-Ang):
   XX=            -16.9160   YY=            -16.9160   ZZ=            -18.7406
   XY=              0.0000   XZ=              0.0000   YZ=              0.0000

  Exact polarizability:  20.100  -0.000  20.100  -0.000   0.000********
 Approx polarizability:  26.151  -0.000  26.151  -0.000  -0.000 365.825

                      1                      2                      3
                     PIU                    PIU                    SGG
 Frequencies --    454.4952               454.4952              1312.3571
 Red. masses --     13.1917                13.1917                12.0000
 Frc consts  --      1.6055                 1.6055                12.1769
 IR Inten    --      1.6115                 1.6115                 0.0000

                      4
                     SGU
 Frequencies --   4616.4621
 Red. masses --     13.1917
 Frc consts  --    165.6416
 IR Inten    --1955115.1279

 - Thermochemistry -
 -------------------
 Temperature   298.150 Kelvin.  Pressure   1.00000 Atm.
 Atom     1 has atomic number  7 and mass  14.00307

 Molecular mass:    38.00307 amu.
 Principal axes and moments of inertia in atomic units:
                           1         2         3
     Eigenvalues --     0.00000 130.98768 130.98768
           X           -0.00000   1.00000  -0.00000
           Y            0.00000   0.00000   1.00000
           Z            1.00000   0.00000  -0.00000
 This molecule is a prolate symmetric top.
 Rotational symmetry number  2.
 Rotational temperature (Kelvin)      0.66124
 Rotational constant (GHZ):          13.777946
 Zero-point vibrational energy      40899.2 (Joules/Mol)
                                    9.77514 (Kcal/Mol)
 Warning -- explicit consideration of   2 degrees of freedom as
           vibrations may cause significant error
 Vibrational temperatures:    653.92   653.92  1888.19  6642.05
          (Kelvin)

 Zero-point correction=                           0.015578 (Hartree/Particle)
 Thermal correction to Energy=                    0.018469
 Thermal correction to Enthalpy=                  0.019413
 Thermal correction to Gibbs Free Energy=        -0.006213
 Sum of electronic and zero-point Energies=           -130.693320
 Sum of electronic and thermal Energies=              -130.690429
 Sum of electronic and thermal Enthalpies=            -130.689485
 Sum of electronic and thermal Free Energies=         -130.715111

                     E (Thermal)             CV                S
                      KCal/Mol        Cal/Mol-Kelvin    Cal/Mol-Kelvin
 Total                   11.589              7.812             53.934
 Electronic               0.000              0.000              2.755
 Translational            0.889              2.981             36.834
 Rotational               0.592              1.987             12.754
 Vibrational             10.108              2.844              1.591
 Vibration     1          0.813              1.351              0.782
 Vibration     2          0.813              1.351              0.782

 Optimization completed.
    -- Stationary point found.
 Normal termination of Gaussian 09 at Tue Dec 13 10:01:04 2016.
