 Gaussian 09, Revision E.01,
 Gaussian 09:  EM64L-G09RevE.01 30-Nov-2015

 ---------------------------------------------
 #p b3lyp/6-311++G(3df,2p) freq symmetry=Loose
 ---------------------------------------------

 ---------
 b3lyp opt
 ---------
 Symbolic Z-matrix:
 Charge =  1 Multiplicity = 2

                         Standard orientation:
 ---------------------------------------------------------------------
 Center     Atomic      Atomic             Coordinates (Angstroms)
 Number     Number       Type             X           Y           Z
 ---------------------------------------------------------------------
      1          6           0        0.000000   -0.000000    0.729404
      2          6           0       -0.000000    0.719978   -0.364682
      3          6           0       -0.000000   -0.719978   -0.364682
 ---------------------------------------------------------------------

 SCF Done:  E(UB3LYP) =  -113.647971081     A.U. after   16 cycles

 The electronic state is 2-B2.
 Alpha  occ. eigenvalues --  -10.65193 -10.65159 -10.61400  -1.32851  -0.90014
 Alpha  occ. eigenvalues --   -0.82918  -0.74980  -0.71147  -0.63782
 Alpha virt. eigenvalues --   -0.49744  -0.38815  -0.32657  -0.15739  -0.14593
 Alpha virt. eigenvalues --   -0.12560  -0.12432  -0.11970  -0.08478  -0.06705
 Alpha virt. eigenvalues --   -0.06151  -0.05121  -0.04590   0.00973   0.01766

  Beta  occ. eigenvalues --  -10.63738 -10.63703 -10.61994  -1.32048  -0.85762
  Beta  occ. eigenvalues --   -0.82110  -0.74403  -0.65939
  Beta virt. eigenvalues --   -0.49864  -0.49161  -0.35693  -0.32920  -0.14277
  Beta virt. eigenvalues --   -0.13986  -0.12427  -0.12396  -0.09894  -0.08407
  Beta virt. eigenvalues --   -0.06220  -0.06111  -0.04865  -0.04618   0.01349

 Mulliken charges and spin densities:
               1          2
     1  C    0.443966  -0.484570
     2  C    0.278017   0.742285
     3  C    0.278017   0.742285
 Sum of Mulliken charges =   1.00000   1.00000

 Dipole moment (field-independent basis, Debye):
    X=             -0.0000    Y=             -0.0000    Z=              0.6173  Tot=              0.6173
 Quadrupole moment (field-independent basis, Debye-Ang):
   XX=            -13.5038   YY=            -11.3541   ZZ=            -12.2331
   XY=             -0.0000   XZ=             -0.0000   YZ=              0.0000

  Exact polarizability:  14.613   0.000  28.892   0.000   0.000  22.759
 Approx polarizability:  20.765   0.000  53.732   0.000   0.000  49.699

                      1                      2                      3
                     A1                     B2                     A1
 Frequencies --    732.0614              1238.8587              1661.0700
 Red. masses --     12.0000                12.0000                12.0000
 Frc consts  --      3.7890                10.8511                19.5078
 IR Inten    --      3.8429                 7.2164                12.8915

 - Thermochemistry -
 -------------------
 Temperature   298.150 Kelvin.  Pressure   1.00000 Atm.
 Atom     1 has atomic number  6 and mass  12.00000

 Molecular mass:    36.00000 amu.
 Principal axes and moments of inertia in atomic units:
                           1         2         3
     Eigenvalues --    34.19721  44.42699  78.62419
           X            0.00000   0.00000   1.00000
           Y            1.00000  -0.00000  -0.00000
           Z            0.00000   1.00000  -0.00000
 This molecule is an asymmetric top.
 Rotational symmetry number  2.
 Rotational temperatures (Kelvin)      2.53277     1.94958     1.10162
 Rotational constants (GHZ):          52.77452    40.62263    22.95402
 Zero-point vibrational energy      21724.1 (Joules/Mol)
                                    5.19219 (Kcal/Mol)
 Vibrational temperatures:   1053.27  1782.44  2389.91
          (Kelvin)

 Zero-point correction=                           0.008274 (Hartree/Particle)
 Thermal correction to Energy=                    0.011224
 Thermal correction to Enthalpy=                  0.012168
 Thermal correction to Gibbs Free Energy=        -0.014631
 Sum of electronic and zero-point Energies=           -113.639697
 Sum of electronic and thermal Energies=              -113.636747
 Sum of electronic and thermal Enthalpies=            -113.635803
 Sum of electronic and thermal Free Energies=         -113.662602

                     E (Thermal)             CV                S
                      KCal/Mol        Cal/Mol-Kelvin    Cal/Mol-Kelvin
 Total                    7.043              6.954             56.403
 Electronic               0.000              0.000              1.377
 Translational            0.889              2.981             36.673
 Rotational               0.889              2.981             18.041
 Vibrational              5.266              0.992              0.311

 Optimization completed.
    -- Stationary point found.
 Normal termination of Gaussian 09 at Sun Jun 19 00:34:52 2016.
