 Gaussian 09, Revision E.01,
 Gaussian 09:  EM64L-G09RevE.01 30-Nov-2015

 ---------------------------------------------
 #p b3lyp/6-311++G(3df,2p) freq symmetry=Loose
 ---------------------------------------------

 ---------
 b3lyp opt
 ---------
 Symbolic Z-matrix:
 Charge =  0 Multiplicity = 3

                         Standard orientation:
 ---------------------------------------------------------------------
 Center     Atomic      Atomic             Coordinates (Angstroms)
 Number     Number       Type             X           Y           Z
 ---------------------------------------------------------------------
      1          6           0        0.000000    0.787181    0.000000
      2          6           0       -0.681719   -0.393591    0.000000
      3          6           0        0.681719   -0.393591    0.000000
 ---------------------------------------------------------------------

 SCF Done:  E(UB3LYP) =  -114.054183103     A.U. after    9 cycles

 The electronic state is 3-A1'.
 Alpha  occ. eigenvalues --  -10.28493 -10.28394 -10.28394  -0.99603  -0.55573
 Alpha  occ. eigenvalues --   -0.55573  -0.43265  -0.40704  -0.30576  -0.30576
 Alpha virt. eigenvalues --   -0.06238  -0.06238   0.03245   0.03754   0.03754
 Alpha virt. eigenvalues --    0.05003   0.09222   0.09222   0.09369   0.11073
 Alpha virt. eigenvalues --    0.11073   0.11916   0.16599   0.16599   0.19642

  Beta  occ. eigenvalues --  -10.27107 -10.27014 -10.27014  -0.97722  -0.49639
  Beta  occ. eigenvalues --   -0.49639  -0.42008  -0.32994
  Beta virt. eigenvalues --   -0.17239  -0.17239  -0.04033  -0.04033   0.04035
  Beta virt. eigenvalues --    0.04089   0.04089   0.05046   0.09580   0.09629
  Beta virt. eigenvalues --    0.09629   0.11410   0.11410   0.13354   0.16921

 Mulliken charges and spin densities:
               1          2
     1  C   -0.000000   0.666667
     2  C   -0.000000   0.666667
     3  C   -0.000000   0.666667
 Sum of Mulliken charges =  -0.00000   2.00000

 Dipole moment (field-independent basis, Debye):
    X=              0.0000    Y=              0.0000    Z=             -0.0000  Tot=              0.0000
 Quadrupole moment (field-independent basis, Debye-Ang):
   XX=            -18.2626   YY=            -18.2626   ZZ=            -16.2825
   XY=              0.0000   XZ=             -0.0000   YZ=              0.0000

  Exact polarizability:  34.348   0.000  34.347   0.000   0.000  20.838
 Approx polarizability:  59.337  -0.000  59.337  -0.000  -0.000  29.666

                      1                      2                      3
                     E'                     E'                     A1'
 Frequencies --   1166.2427              1166.2427              1614.7505
 Red. masses --     12.0000                12.0000                12.0000
 Frc consts  --      9.6163                 9.6163                18.4350
 IR Inten    --      1.1884                 1.1902                 0.0000

 - Thermochemistry -
 -------------------
 Temperature   298.150 Kelvin.  Pressure   1.00000 Atm.
 Atom     1 has atomic number  6 and mass  12.00000

 Molecular mass:    36.00000 amu.
 Principal axes and moments of inertia in atomic units:
                           1         2         3
     Eigenvalues --    39.83085  39.83085  79.66171
           X           -0.41266   0.91088   0.00000
           Y            0.91088   0.41266   0.00000
           Z           -0.00000  -0.00000   1.00000
 This molecule is an oblate symmetric top.
 Rotational symmetry number  6.
 Rotational temperatures (Kelvin)      2.17454     2.17454     1.08727
 Rotational constants (GHZ):          45.31013    45.31013    22.65507
 Zero-point vibrational energy      23609.7 (Joules/Mol)
                                    5.64286 (Kcal/Mol)
 Vibrational temperatures:   1677.96  1677.96  2323.26
          (Kelvin)

 Zero-point correction=                           0.008992 (Hartree/Particle)
 Thermal correction to Energy=                    0.011866
 Thermal correction to Enthalpy=                  0.012811
 Thermal correction to Gibbs Free Energy=        -0.013261
 Sum of electronic and zero-point Energies=           -114.045191
 Sum of electronic and thermal Energies=              -114.042317
 Sum of electronic and thermal Enthalpies=            -114.041372
 Sum of electronic and thermal Free Energies=         -114.067444

                     E (Thermal)             CV                S
                      KCal/Mol        Cal/Mol-Kelvin    Cal/Mol-Kelvin
 Total                    7.446              6.467             54.872
 Electronic               0.000              0.000              2.183
 Translational            0.889              2.981             36.673
 Rotational               0.889              2.981             15.914
 Vibrational              5.669              0.506              0.102

 Optimization completed.
    -- Stationary point found.
 Normal termination of Gaussian 09 at Sun Jun 19 00:33:47 2016.
