 Gaussian 09, Revision C.01,
 Gaussian 09:  AM64L-G09RevC.01 23-Sep-2011

 ------------------------------
 #p b3lyp/6-311++G(3df,2p) freq
 ------------------------------

 (Enter /home/nestor/.gaussian09/l101.exe)
 ---------
 b3lyp opt
 ---------
 Charge =  2 Multiplicity = 1

                         Standard orientation:
 ---------------------------------------------------------------------
 Center     Atomic      Atomic             Coordinates (Angstroms)
 Number     Number       Type             X           Y           Z
 ---------------------------------------------------------------------
      1          6           0        0.000000    0.000000    1.300874
      2          6           0        0.000000    0.000000    0.000000
      3          6           0        0.000000    0.000000   -1.300874
 ---------------------------------------------------------------------

 SCF Done:  E(RB3LYP) =  -112.823299405     A.U. after   11 cycles

 The electronic state is 1-SG.
 Alpha  occ. eigenvalues --  -11.05178 -11.05173 -10.89365  -1.47590  -1.36852
 Alpha  occ. eigenvalues --   -0.99585  -0.98698  -0.98698
 Alpha virt. eigenvalues --   -0.92976  -0.79372  -0.79372  -0.54298  -0.54298
 Alpha virt. eigenvalues --   -0.39968  -0.29907  -0.29135  -0.29135  -0.27883
 Alpha virt. eigenvalues --   -0.24825  -0.22392  -0.22392  -0.22253  -0.22252

 Mulliken atomic charges:
              1
     1  C    0.367893
     2  C    1.264214
     3  C    0.367893
 Sum of Mulliken atomic charges =   2.00000

 Dipole moment (field-independent basis, Debye):
    X=              0.0000    Y=              0.0000    Z=              0.0000  Tot=              0.0000
 Quadrupole moment (field-independent basis, Debye-Ang):
   XX=            -11.8334   YY=            -11.8334   ZZ=              6.5442
   XY=              0.0000   XZ=              0.0000   YZ=              0.0000

  Exact polarizability:  12.158   0.000  12.158   0.000   0.000  54.888
 Approx polarizability:  16.692   0.000  16.692   0.000   0.000 651.433

                     1                      2                      3
                    PI                     PI                     SG
 Frequencies --   151.0978               151.0978              1166.8667
 Red. masses --    12.0000                12.0000                12.0000
 Frc consts  --     0.1614                 0.1614                 9.6266
 IR Inten    --    28.1445                28.1445                 0.0000

                     4
                    SG
 Frequencies --  1518.6865
 Red. masses --    12.0000
 Frc consts  --    16.3068
 IR Inten    --    38.6392

 - Thermochemistry -
 -------------------
 Temperature   298.150 Kelvin.  Pressure   1.00000 Atm.
 Atom     1 has atomic number  6 and mass  12.00000

 Molecular mass:    36.00000 amu.
 Principal axes and moments of inertia in atomic units:
                           1         2         3
     Eigenvalues --     0.00000 145.03713 145.03713
           X            0.00000   0.00000   1.00000
           Y            0.00000   1.00000   0.00000
           Z            1.00000   0.00000   0.00000
 This molecule is a prolate symmetric top.
 Rotational symmetry number  1.
 Rotational temperature (Kelvin)      0.59718
 Rotational constant (GHZ):          12.443304
 Zero-point vibrational energy      17870.7 (Joules/Mol)
                                    4.27120 (Kcal/Mol)
 Warning -- explicit consideration of   2 degrees of freedom as
           vibrations may cause significant error
 Vibrational temperatures:    217.40   217.40  1678.86  2185.05
          (Kelvin)

 Zero-point correction=                           0.006807 (Hartree/Particle)
 Thermal correction to Energy=                    0.010474
 Thermal correction to Enthalpy=                  0.011418
 Thermal correction to Gibbs Free Energy=        -0.015371
 Sum of electronic and zero-point Energies=           -112.816493
 Sum of electronic and thermal Energies=              -112.812826
 Sum of electronic and thermal Enthalpies=            -112.811882
 Sum of electronic and thermal Free Energies=         -112.838670

                     E (Thermal)             CV                S
                      KCal/Mol        Cal/Mol-Kelvin    Cal/Mol-Kelvin
 Total                    6.572              9.069             56.382
 Electronic               0.000              0.000              0.000
 Translational            0.889              2.981             36.673
 Rotational               0.592              1.987             14.334
 Vibrational              5.091              4.101              5.375
 Vibration     1          0.619              1.901              2.658
 Vibration     2          0.619              1.901              2.658

 Optimization completed.
    -- Stationary point found.
 Normal termination of Gaussian 09 at Wed Nov 16 17:23:10 2016.
