 Gaussian 09, Revision E.01,
 Gaussian 09:  EM64L-G09RevE.01 30-Nov-2015

 -----------------------------------------
 #p b3lyp/6-311+G(3df) freq symmetry=Loose
 -----------------------------------------

 ---------
 b3lyp opt
 ---------
 Symbolic Z-matrix:
 Charge =  2 Multiplicity = 3

                         Standard orientation:
 ---------------------------------------------------------------------
 Center     Atomic      Atomic             Coordinates (Angstroms)
 Number     Number       Type             X           Y           Z
 ---------------------------------------------------------------------
      1          6           0        0.000000   -0.000000    0.000000
      2          6           0       -0.000000    0.000000    1.269458
      3          6           0        0.000000    0.000000   -1.269458
 ---------------------------------------------------------------------

 SCF Done:  E(UB3LYP) =  -112.897875369     A.U. after   10 cycles

 The electronic state is 3-SGU.
 Alpha  occ. eigenvalues --  -11.04152 -11.04144 -10.87267  -1.48319  -1.38225
 Alpha  occ. eigenvalues --   -1.07741  -1.05186  -0.99631  -0.99631
 Alpha virt. eigenvalues --   -0.80736  -0.80736  -0.53674  -0.53674  -0.39044
 Alpha virt. eigenvalues --   -0.29256  -0.29256  -0.28253  -0.27982  -0.24966
 Alpha virt. eigenvalues --   -0.22408  -0.22407  -0.22339  -0.22339  -0.20764

  Beta  occ. eigenvalues --  -11.01647 -11.01640 -10.86823  -1.46495  -1.35071
  Beta  occ. eigenvalues --   -0.98031  -0.98031
  Beta virt. eigenvalues --   -0.83635  -0.80600  -0.76010  -0.76010  -0.49742
  Beta virt. eigenvalues --   -0.49742  -0.38858  -0.29060  -0.29060  -0.26402
  Beta virt. eigenvalues --   -0.25006  -0.22797  -0.22326  -0.22325  -0.22033

 Mulliken charges and spin densities:
               1          2
     1  C    1.107799   0.128850
     2  C    0.446100   0.935575
     3  C    0.446100   0.935575
 Sum of Mulliken charges =   2.00000   2.00000

 Dipole moment (field-independent basis, Debye):
    X=              0.0000    Y=              0.0000    Z=              0.0000  Tot=              0.0000
 Quadrupole moment (field-independent basis, Debye-Ang):
   XX=            -11.5112   YY=            -11.5112   ZZ=              6.1100
   XY=             -0.0000   XZ=             -0.0000   YZ=             -0.0000

  Exact polarizability:  12.841   0.000  12.841  -0.000  -0.000  33.206
 Approx polarizability:  16.415   0.000  16.415  -0.000  -0.000 124.284

                      1                      2                      3
                     PIU                    PIU                    SGG
 Frequencies --    214.4285               214.4285              1321.2505
 Red. masses --     12.0000                12.0000                12.0000
 Frc consts  --      0.3251                 0.3251                12.3425
 IR Inten    --     14.4581                14.4581                 0.0000

                      4
                     SGU
 Frequencies --   2163.6121
 Red. masses --     12.0000
 Frc consts  --     33.0971
 IR Inten    --    768.4555

 - Thermochemistry -
 -------------------
 Temperature   298.150 Kelvin.  Pressure   1.00000 Atm.
 Atom     1 has atomic number  6 and mass  12.00000

 Molecular mass:    36.00000 amu.
 Principal axes and moments of inertia in atomic units:
                           1         2         3
     Eigenvalues --     0.00000 138.11659 138.11659
           X           -0.00000   0.92848  -0.37139
           Y           -0.00000   0.37139   0.92848
           Z            1.00000   0.00000  -0.00000
 This molecule is a prolate symmetric top.
 Rotational symmetry number  2.
 Rotational temperature (Kelvin)      0.62711
 Rotational constant (GHZ):          13.066795
 Zero-point vibrational energy      23409.2 (Joules/Mol)
                                    5.59494 (Kcal/Mol)
 Warning -- explicit consideration of   2 degrees of freedom as
           vibrations may cause significant error
 Vibrational temperatures:    308.51   308.51  1900.98  3112.95
          (Kelvin)

 Zero-point correction=                           0.008916 (Hartree/Particle)
 Thermal correction to Energy=                    0.012364
 Thermal correction to Enthalpy=                  0.013308
 Thermal correction to Gibbs Free Energy=        -0.013181
 Sum of electronic and zero-point Energies=           -112.888959
 Sum of electronic and thermal Energies=              -112.885511
 Sum of electronic and thermal Enthalpies=            -112.884567
 Sum of electronic and thermal Free Energies=         -112.911057

                     E (Thermal)             CV                S
                      KCal/Mol        Cal/Mol-Kelvin    Cal/Mol-Kelvin
 Total                    7.759              8.750             55.752
 Electronic               0.000              0.000              2.183
 Translational            0.889              2.981             36.673
 Rotational               0.592              1.987             12.859
 Vibrational              6.277              3.782              4.037
 Vibration     1          0.644              1.819              2.006
 Vibration     2          0.644              1.819              2.006

 Optimization completed.
    -- Stationary point found.
 Normal termination of Gaussian 09 at Sun Oct 23 02:03:16 2016.
