 Gaussian 09, Revision E.01,
 Gaussian 09:  EM64L-G09RevE.01 30-Nov-2015

 ---------------------------------------------
 #p b3lyp/6-311++G(3df,2p) freq symmetry=Loose
 ---------------------------------------------

 ---------
 b3lyp opt
 ---------
 Symbolic Z-matrix:
 Charge =  0 Multiplicity = 3

                         Standard orientation:
 ---------------------------------------------------------------------
 Center     Atomic      Atomic             Coordinates (Angstroms)
 Number     Number       Type             X           Y           Z
 ---------------------------------------------------------------------
      1          6           0        1.271374   -0.013987   -0.000000
      2          6           0        0.000000    0.133074    0.000000
      3          6           0       -1.271374   -0.119087    0.000000
 ---------------------------------------------------------------------

 SCF Done:  E(UB3LYP) =  -114.001867860     A.U. after   22 cycles

 The electronic state is 3-A".
 Alpha  occ. eigenvalues --  -10.30380 -10.29175 -10.23120  -0.85051  -0.73607
 Alpha  occ. eigenvalues --   -0.42716  -0.39812  -0.38528  -0.37830  -0.26032
 Alpha virt. eigenvalues --   -0.17616   0.00466   0.03166   0.03554   0.04491
 Alpha virt. eigenvalues --    0.06118   0.06755   0.07935   0.09034   0.09352
 Alpha virt. eigenvalues --    0.13663   0.13873   0.14672   0.19339   0.20488

  Beta  occ. eigenvalues --  -10.28286 -10.27526 -10.23266  -0.82877  -0.69040
  Beta  occ. eigenvalues --   -0.37419  -0.35786  -0.32252
  Beta virt. eigenvalues --   -0.25379  -0.14798  -0.12120   0.01031   0.03977
  Beta virt. eigenvalues --    0.04121   0.05093   0.06525   0.08976   0.09241
  Beta virt. eigenvalues --    0.10171   0.10230   0.13913   0.14127   0.15334

 Mulliken charges and spin densities:
               1          2
     1  C   -0.355262   1.141558
     2  C    0.762336  -0.057464
     3  C   -0.407074   0.915906
 Sum of Mulliken charges =  -0.00000   2.00000

 Dipole moment (field-independent basis, Debye):
    X=              0.5555    Y=              0.0812    Z=             -0.0000  Tot=              0.5614
 Quadrupole moment (field-independent basis, Debye-Ang):
   XX=            -18.5353   YY=            -16.3828   ZZ=            -18.1295
   XY=             -0.2150   XZ=              0.0000   YZ=              0.0000

  Exact polarizability: 269.291  14.594  24.034   0.000   0.000  23.358
 Approx polarizability: 354.646  12.528  33.349  -0.000  -0.000  29.377

                      1                      2                      3
                     A'                     A'                     A'
 Frequencies --    192.2625               697.3232              1257.8499
 Red. masses --     12.0000                12.0000                12.0000
 Frc consts  --      0.2613                 3.4380                11.1864
 IR Inten    --      1.1466             17860.1329               174.7457

 - Thermochemistry -
 -------------------
 Temperature   298.150 Kelvin.  Pressure   1.00000 Atm.
 Atom     1 has atomic number  6 and mass  12.00000

 Molecular mass:    36.00000 amu.
 Principal axes and moments of inertia in atomic units:
                           1         2         3
     Eigenvalues --     1.13635 138.77247 139.90882
           X            0.99913  -0.04164   0.00000
           Y            0.04164   0.99913   0.00000
           Z           -0.00000   0.00000   1.00000
 This molecule is an asymmetric top.
 Rotational symmetry number  1.
 Rotational temperatures (Kelvin)     76.22126     0.62414     0.61907
 Rotational constants (GHZ):        1588.19530    13.00504    12.89941
 Zero-point vibrational energy      12844.5 (Joules/Mol)
                                    3.06991 (Kcal/Mol)
 Warning -- explicit consideration of   1 degrees of freedom as
           vibrations may cause significant error
 Vibrational temperatures:    276.62  1003.29  1809.76
          (Kelvin)

 Zero-point correction=                           0.004892 (Hartree/Particle)
 Thermal correction to Energy=                    0.008425
 Thermal correction to Enthalpy=                  0.009369
 Thermal correction to Gibbs Free Energy=        -0.018732
 Sum of electronic and zero-point Energies=           -113.996976
 Sum of electronic and thermal Energies=              -113.993443
 Sum of electronic and thermal Enthalpies=            -113.992499
 Sum of electronic and thermal Free Energies=         -114.020600

                     E (Thermal)             CV                S
                      KCal/Mol        Cal/Mol-Kelvin    Cal/Mol-Kelvin
 Total                    5.287              8.817             59.144
 Electronic               0.000              0.000              2.183
 Translational            0.889              2.981             36.673
 Rotational               0.889              2.981             17.741
 Vibrational              3.509              2.855              2.548
 Vibration     1          0.634              1.851              2.206

 Normal termination of Gaussian 09 at Sun Jun 19 00:34:18 2016.
