 Gaussian 09, Revision E.01,
 Gaussian 09:  EM64L-G09RevE.01 30-Nov-2015

 ---------------------------------------------
 #p b3lyp/6-311++G(3df,2p) freq symmetry=Loose
 ---------------------------------------------

 ---------
 b3lyp opt
 ---------
 Symbolic Z-matrix:
 Charge =  1 Multiplicity = 4

                         Standard orientation:
 ---------------------------------------------------------------------
 Center     Atomic      Atomic             Coordinates (Angstroms)
 Number     Number       Type             X           Y           Z
 ---------------------------------------------------------------------
      1          6           0       -0.000000   -0.000000    0.000000
      2          6           0        0.000000    0.000000   -1.266086
      3          6           0       -0.000000    0.000000    1.266086
 ---------------------------------------------------------------------

 SCF Done:  E(UB3LYP) =  -113.584387676     A.U. after   11 cycles

 Unable to determine electronic state:  an orbital has unidentified symmetry.
 Alpha  occ. eigenvalues --  -10.63558 -10.63548 -10.53263  -1.14527  -1.04370
 Alpha  occ. eigenvalues --   -0.75341  -0.72286  -0.69283  -0.67115  -0.56497
 Alpha virt. eigenvalues --   -0.47866  -0.23030  -0.21912  -0.16580  -0.10952
 Alpha virt. eigenvalues --   -0.10738  -0.10625  -0.08361  -0.05903  -0.05706
 Alpha virt. eigenvalues --   -0.02571   0.00636   0.00733   0.01907   0.02647

  Beta  occ. eigenvalues --  -10.60297 -10.60291 -10.53131  -1.11589  -0.98735
  Beta  occ. eigenvalues --   -0.65472  -0.63899
  Beta virt. eigenvalues --   -0.50961  -0.47981  -0.42320  -0.39194  -0.18256
  Beta virt. eigenvalues --   -0.16813  -0.15920  -0.10033  -0.09238  -0.09196
  Beta virt. eigenvalues --   -0.07363  -0.05346  -0.04973  -0.01460   0.00690

 Mulliken charges and spin densities:
               1          2
     1  C    0.810235   0.068962
     2  C    0.094883   1.465519
     3  C    0.094883   1.465519
 Sum of Mulliken charges =   1.00000   3.00000

 Dipole moment (field-independent basis, Debye):
    X=             -0.0000    Y=             -0.0000    Z=              0.0000  Tot=              0.0000
 Quadrupole moment (field-independent basis, Debye-Ang):
   XX=            -13.3654   YY=            -14.8910   ZZ=             -3.3335
   XY=             -0.0000   XZ=             -0.0000   YZ=              0.0000

  Exact polarizability:  16.348  -0.000  16.309  -0.000   0.000  38.456
 Approx polarizability:  21.309  -0.000  19.187  -0.000   0.000  99.867

                      1                      2                      3
                     PIU                    PIU                    SGG
 Frequencies --    284.6022               397.1224              1330.5268
 Red. masses --     12.0000                12.0000                12.0000
 Frc consts  --      0.5727                 1.1150                12.5164
 IR Inten    --      5.3624                 5.3244                 0.0000

                      4
                     SGU
 Frequencies --   1891.0676
 Red. masses --     12.0000
 Frc consts  --     25.2840
 IR Inten    --    295.2105

 - Thermochemistry -
 -------------------
 Temperature   298.150 Kelvin.  Pressure   1.00000 Atm.
 Atom     1 has atomic number  6 and mass  12.00000

 Molecular mass:    36.00000 amu.
 Principal axes and moments of inertia in atomic units:
                           1         2         3
     Eigenvalues --     0.00000 137.38375 137.38375
           X           -0.00000   1.00000  -0.00000
           Y            0.00000   0.00000   1.00000
           Z            1.00000   0.00000  -0.00000
 This molecule is a prolate symmetric top.
 Rotational symmetry number  2.
 Rotational temperature (Kelvin)      0.63045
 Rotational constant (GHZ):          13.136497
 Zero-point vibrational energy      23347.0 (Joules/Mol)
                                    5.58007 (Kcal/Mol)
 Warning -- explicit consideration of   2 degrees of freedom as
           vibrations may cause significant error
 Vibrational temperatures:    409.48   571.37  1914.33  2720.82
          (Kelvin)

 Zero-point correction=                           0.008892 (Hartree/Particle)
 Thermal correction to Energy=                    0.012016
 Thermal correction to Enthalpy=                  0.012960
 Thermal correction to Gibbs Free Energy=        -0.013069
 Sum of electronic and zero-point Energies=           -113.575495
 Sum of electronic and thermal Energies=              -113.572372
 Sum of electronic and thermal Enthalpies=            -113.571428
 Sum of electronic and thermal Free Energies=         -113.597456

                     E (Thermal)             CV                S
                      KCal/Mol        Cal/Mol-Kelvin    Cal/Mol-Kelvin
 Total                    7.540              8.298             54.782
 Electronic               0.000              0.000              2.755
 Translational            0.889              2.981             36.673
 Rotational               0.592              1.987             12.849
 Vibrational              6.059              3.330              2.505
 Vibration     1          0.683              1.702              1.506
 Vibration     2          0.764              1.476              0.973

 Normal termination of Gaussian 09 at Sun Jun 19 00:34:48 2016.
