 Gaussian 09, Revision E.01,
 Gaussian 09:  EM64L-G09RevE.01 30-Nov-2015

 ---------------------------------------------
 #p b3lyp/6-311++G(3df,2p) freq symmetry=Loose
 ---------------------------------------------

 ---------
 b3lyp opt
 ---------
 Symbolic Z-matrix:
 Charge =  1 Multiplicity = 2

                         Standard orientation:
 ---------------------------------------------------------------------
 Center     Atomic      Atomic             Coordinates (Angstroms)
 Number     Number       Type             X           Y           Z
 ---------------------------------------------------------------------
      1          6           0        0.000000    0.000000   -1.273206
      2          6           0        0.000000    0.000000   -0.032886
      3          6           0        0.000000    0.000000    1.306093
 ---------------------------------------------------------------------

 SCF Done:  E(UB3LYP) =  -113.637650789     A.U. after   18 cycles

 The electronic state is 2-SG.
 Alpha  occ. eigenvalues --  -10.66877 -10.63618 -10.53637  -1.16022  -1.04070
 Alpha  occ. eigenvalues --   -0.75981  -0.68321  -0.68321  -0.63576
 Alpha virt. eigenvalues --   -0.46967  -0.46967  -0.22587  -0.22587  -0.17531
 Alpha virt. eigenvalues --   -0.11062  -0.11062  -0.10909  -0.07779  -0.05704
 Alpha virt. eigenvalues --   -0.05704  -0.02484  -0.00684   0.00485   0.00485

  Beta  occ. eigenvalues --  -10.64301 -10.63805 -10.53603  -1.14691  -1.02730
  Beta  occ. eigenvalues --   -0.67187  -0.67187  -0.63623
  Beta virt. eigenvalues --   -0.53168  -0.45453  -0.45453  -0.21172  -0.21172
  Beta virt. eigenvalues --   -0.17338  -0.10821  -0.10821  -0.09991  -0.07598
  Beta virt. eigenvalues --   -0.05563  -0.05563  -0.02156   0.00153   0.00469

 Mulliken charges and spin densities:
               1          2
     1  C    0.069176   0.991300
     2  C    0.978218   0.099364
     3  C   -0.047394  -0.090663
 Sum of Mulliken charges =   1.00000   1.00000

 Dipole moment (field-independent basis, Debye):
    X=              0.0000    Y=              0.0000    Z=             -1.8220  Tot=              1.8220
 Quadrupole moment (field-independent basis, Debye-Ang):
   XX=            -13.8004   YY=            -13.8004   ZZ=             -7.4101
   XY=              0.0000   XZ=              0.0000   YZ=              0.0000

  Exact polarizability:  18.012   0.000  18.012   0.000  -0.000  49.788
 Approx polarizability:  24.242  -0.000  24.242  -0.000  -0.000 147.705

                      1                      2                      3
                     PI                     PI                     SG
 Frequencies --     20.4031                20.4032              1197.1842
 Red. masses --     12.0000                12.0000                12.0000
 Frc consts  --      0.0029                 0.0029                10.1334
 IR Inten    --      0.2296                 0.2296                58.2224

                      4
                     SG
 Frequencies --   2024.2584
 Red. masses --     12.0000
 Frc consts  --     28.9710
 IR Inten    --    136.8968

 - Thermochemistry -
 -------------------
 Temperature   298.150 Kelvin.  Pressure   1.00000 Atm.
 Atom     1 has atomic number  6 and mass  12.00000

 Molecular mass:    36.00000 amu.
 Principal axes and moments of inertia in atomic units:
                           1         2         3
     Eigenvalues --     0.00000 142.61467 142.61467
           X            0.00000  -0.00000   1.00000
           Y            0.00000   1.00000   0.00000
           Z            1.00000   0.00000   0.00000
 This molecule is a prolate symmetric top.
 Rotational symmetry number  1.
 Rotational temperature (Kelvin)      0.60733
 Rotational constant (GHZ):          12.654667
 Zero-point vibrational energy      19512.6 (Joules/Mol)
                                    4.66362 (Kcal/Mol)
 Warning -- explicit consideration of   2 degrees of freedom as
           vibrations may cause significant error
 Vibrational temperatures:     29.36    29.36  1722.48  2912.45
          (Kelvin)

 Zero-point correction=                           0.007432 (Hartree/Particle)
 Thermal correction to Energy=                    0.011607
 Thermal correction to Enthalpy=                  0.012551
 Thermal correction to Gibbs Free Energy=        -0.018610
 Sum of electronic and zero-point Energies=           -113.630219
 Sum of electronic and thermal Energies=              -113.626044
 Sum of electronic and thermal Enthalpies=            -113.625100
 Sum of electronic and thermal Free Energies=         -113.656260

                     E (Thermal)             CV                S
                      KCal/Mol        Cal/Mol-Kelvin    Cal/Mol-Kelvin
 Total                    7.283              9.157             65.583
 Electronic               0.000              0.000              1.377
 Translational            0.889              2.981             36.673
 Rotational               0.592              1.987             14.301
 Vibrational              5.802              4.189             13.232
 Vibration     1          0.593              1.986              6.595
 Vibration     2          0.593              1.986              6.595

 Normal termination of Gaussian 09 at Sun Jun 19 00:34:59 2016.
