 Gaussian 09, Revision E.01,
 Gaussian 09:  EM64L-G09RevE.01 30-Nov-2015

 ---------------------------------------------
 #p b3lyp/6-311++G(3df,2p) freq symmetry=Loose
 ---------------------------------------------

 ---------
 b3lyp opt
 ---------
 Symbolic Z-matrix:
 Charge =  1 Multiplicity = 4

                         Standard orientation:
 ---------------------------------------------------------------------
 Center     Atomic      Atomic             Coordinates (Angstroms)
 Number     Number       Type             X           Y           Z
 ---------------------------------------------------------------------
      1          6           0       -0.000000    0.801302    0.000000
      2          6           0       -0.693948   -0.400651    0.000000
      3          6           0        0.693948   -0.400651    0.000000
 ---------------------------------------------------------------------

 SCF Done:  E(UB3LYP) =  -113.623576990     A.U. after    9 cycles

 The electronic state is 4-A1'.
 Alpha  occ. eigenvalues --  -10.63372 -10.63287 -10.63287  -1.30831  -0.87201
 Alpha  occ. eigenvalues --   -0.87201  -0.73294  -0.73191  -0.63212  -0.63212
 Alpha virt. eigenvalues --   -0.36652  -0.36652  -0.16134  -0.14691  -0.13155
 Alpha virt. eigenvalues --   -0.13155  -0.12046  -0.08300  -0.06486  -0.06486
 Alpha virt. eigenvalues --   -0.04804  -0.04804   0.01688   0.01688   0.01714

  Beta  occ. eigenvalues --  -10.61234 -10.61166 -10.61166  -1.27259  -0.79193
  Beta  occ. eigenvalues --   -0.79193  -0.71094
  Beta virt. eigenvalues --   -0.53157  -0.44589  -0.44589  -0.32754  -0.32754
  Beta virt. eigenvalues --   -0.13147  -0.12459  -0.12459  -0.11962  -0.08449
  Beta virt. eigenvalues --   -0.07937  -0.05642  -0.05642  -0.04501  -0.04501

 Mulliken charges and spin densities:
               1          2
     1  C    0.333333   1.000000
     2  C    0.333333   1.000000
     3  C    0.333333   1.000000
 Sum of Mulliken charges =   1.00000   3.00000

 Dipole moment (field-independent basis, Debye):
    X=              0.0000    Y=             -0.0000    Z=              0.0000  Tot=              0.0000
 Quadrupole moment (field-independent basis, Debye-Ang):
   XX=            -11.4437   YY=            -11.4437   ZZ=            -13.4655
   XY=              0.0000   XZ=              0.0000   YZ=              0.0000

  Exact polarizability:  23.340  -0.000  23.340  -0.000  -0.000  16.825
 Approx polarizability:  43.591  -0.000  43.591   0.000  -0.000  24.100

                      1                      2                      3
                     E'                     E'                     A1'
 Frequencies --   1181.9041              1181.9041              1556.3674
 Red. masses --     12.0000                12.0000                12.0000
 Frc consts  --      9.8763                 9.8763                17.1260
 IR Inten    --     27.7466                27.7472                 0.0000

 - Thermochemistry -
 -------------------
 Temperature   298.150 Kelvin.  Pressure   1.00000 Atm.
 Atom     1 has atomic number  6 and mass  12.00000

 Molecular mass:    36.00000 amu.
 Principal axes and moments of inertia in atomic units:
                           1         2         3
     Eigenvalues --    41.27264  41.27264  82.54528
           X           -0.35173   0.93610   0.00000
           Y            0.93610   0.35173   0.00000
           Z           -0.00000   0.00000   1.00000
 This molecule is an oblate symmetric top.
 Rotational symmetry number  6.
 Rotational temperatures (Kelvin)      2.09858     2.09858     1.04929
 Rotational constants (GHZ):          43.72730    43.72730    21.86365
 Zero-point vibrational energy      23447.9 (Joules/Mol)
                                    5.60417 (Kcal/Mol)
 Vibrational temperatures:   1700.49  1700.49  2239.26
          (Kelvin)

 Zero-point correction=                           0.008931 (Hartree/Particle)
 Thermal correction to Energy=                    0.011803
 Thermal correction to Enthalpy=                  0.012747
 Thermal correction to Gibbs Free Energy=        -0.013644
 Sum of electronic and zero-point Energies=           -113.614646
 Sum of electronic and thermal Energies=              -113.611774
 Sum of electronic and thermal Enthalpies=            -113.610830
 Sum of electronic and thermal Free Energies=         -113.637221

                     E (Thermal)             CV                S
                      KCal/Mol        Cal/Mol-Kelvin    Cal/Mol-Kelvin
 Total                    7.407              6.457             55.546
 Electronic               0.000              0.000              2.755
 Translational            0.889              2.981             36.673
 Rotational               0.889              2.981             16.020
 Vibrational              5.629              0.495              0.098

 Optimization completed.
    -- Stationary point found.
 Normal termination of Gaussian 09 at Sun Jun 19 00:34:43 2016.
