 Gaussian 09, Revision E.01,
 Gaussian 09:  EM64L-G09RevE.01 30-Nov-2015

 ---------------------------------------------
 #p b3lyp/6-311++G(3df,2p) freq symmetry=Loose
 ---------------------------------------------

 ---------
 b3lyp opt
 ---------
 Symbolic Z-matrix:
 Charge =  0 Multiplicity = 1

                         Standard orientation:
 ---------------------------------------------------------------------
 Center     Atomic      Atomic             Coordinates (Angstroms)
 Number     Number       Type             X           Y           Z
 ---------------------------------------------------------------------
      1          6           0        0.000000    0.000000    1.290898
      2          6           0        0.000000    0.000000    0.000000
      3          6           0        0.000000    0.000000   -1.290898
 ---------------------------------------------------------------------

 SCF Done:  E(RB3LYP) =  -114.083529632     A.U. after    9 cycles

 The electronic state is 1-SGG.
 Alpha  occ. eigenvalues --  -10.30638 -10.30630 -10.21428  -0.85287  -0.73463
 Alpha  occ. eigenvalues --   -0.38508  -0.38508  -0.37624  -0.34445
 Alpha virt. eigenvalues --   -0.17491  -0.17491   0.01356   0.03534   0.03534
 Alpha virt. eigenvalues --    0.04872   0.06867   0.07932   0.07932   0.09607
 Alpha virt. eigenvalues --    0.09607   0.12473   0.15452   0.15452   0.19903

 Mulliken charges:
               1
     1  C   -0.534289
     2  C    1.068578
     3  C   -0.534289
 Sum of Mulliken charges =  -0.00000

 Dipole moment (field-independent basis, Debye):
    X=             -0.0000    Y=             -0.0000    Z=             -0.0000  Tot=              0.0000
 Quadrupole moment (field-independent basis, Debye-Ang):
   XX=            -16.6850   YY=            -16.6850   ZZ=            -22.8425
   XY=             -0.0000   XZ=              0.0000   YZ=              0.0000

  Exact polarizability:  25.196   0.000  25.196   0.000  -0.000  50.459
 Approx polarizability:  36.225  -0.000  36.225  -0.000  -0.000 125.527

                      1                      2                      3
                     PIU                    PIU                    SGG
 Frequencies --    154.6817               154.6817              1226.0212
 Red. masses --     12.0000                12.0000                12.0000
 Frc consts  --      0.1692                 0.1692                10.6274
 IR Inten    --     17.9418                17.9418                 0.0000

                      4
                     SGU
 Frequencies --   2119.4308
 Red. masses --     12.0000
 Frc consts  --     31.7592
 IR Inten    --    872.3998

 - Thermochemistry -
 -------------------
 Temperature   298.150 Kelvin.  Pressure   1.00000 Atm.
 Atom     1 has atomic number  6 and mass  12.00000

 Molecular mass:    36.00000 amu.
 Principal axes and moments of inertia in atomic units:
                           1         2         3
     Eigenvalues --     0.00000 142.82125 142.82125
           X           -0.00000   1.00000  -0.00000
           Y            0.00000   0.00000   1.00000
           Z            1.00000   0.00000  -0.00000
 This molecule is a prolate symmetric top.
 Rotational symmetry number  2.
 Rotational temperature (Kelvin)      0.60645
 Rotational constant (GHZ):          12.636363
 Zero-point vibrational energy      21860.7 (Joules/Mol)
                                    5.22482 (Kcal/Mol)
 Warning -- explicit consideration of   2 degrees of freedom as
           vibrations may cause significant error
 Vibrational temperatures:    222.55   222.55  1763.97  3049.38
          (Kelvin)

 Zero-point correction=                           0.008326 (Hartree/Particle)
 Thermal correction to Energy=                    0.011973
 Thermal correction to Enthalpy=                  0.012917
 Thermal correction to Gibbs Free Energy=        -0.013151
 Sum of electronic and zero-point Energies=           -114.075203
 Sum of electronic and thermal Energies=              -114.071557
 Sum of electronic and thermal Enthalpies=            -114.070613
 Sum of electronic and thermal Free Energies=         -114.096681

                     E (Thermal)             CV                S
                      KCal/Mol        Cal/Mol-Kelvin    Cal/Mol-Kelvin
 Total                    7.513              8.959             54.864
 Electronic               0.000              0.000              0.000
 Translational            0.889              2.981             36.673
 Rotational               0.592              1.987             12.926
 Vibrational              6.032              3.991              5.266
 Vibration     1          0.620              1.897              2.614
 Vibration     2          0.620              1.897              2.614

 Normal termination of Gaussian 09 at Sun Jun 19 00:33:45 2016.
