 Gaussian 09, Revision E.01,
 Gaussian 09:  EM64L-G09RevE.01 30-Nov-2015

 ----------------------------------
 #p b3lyp/6-311++G(3df,2p) opt freq
 ----------------------------------

 ---------
 b3lyp opt
 ---------
 Symbolic Z-matrix:
 Charge =  0 Multiplicity = 2

 SCF Done:  E(UB3LYP) =  -168.830780052     A.U. after   15 cycles
 Optimization completed.
    -- Stationary point found.
 Normal termination of Gaussian 09 at Tue Dec 13 10:11:43 2016.

 ----------------------------------------------------------------------
 #P Geom=AllCheck Guess=TCheck SCRF=Check GenChk UB3LYP/6-311++G(3df,2p
 ) Freq
 ----------------------------------------------------------------------

 Structure from the checkpoint file:  "/scratch/sergio/C3N.q0.m2-3.com-2358044/Gau-1271.chk"
 ---------
 b3lyp opt
 ---------
 Charge =  0 Multiplicity = 2

                         Standard orientation:
 ---------------------------------------------------------------------
 Center     Atomic      Atomic             Coordinates (Angstroms)
 Number     Number       Type             X           Y           Z
 ---------------------------------------------------------------------
      1          6           0       -0.293692    1.650844    0.000000
      2          6           0        0.000000    0.377345    0.000000
      3          6           0       -0.531403   -1.081056   -0.000000
      4          7           0        0.707224   -0.811829   -0.000000
 ---------------------------------------------------------------------

 SCF Done:  E(UB3LYP) =  -168.830780052     A.U. after    1 cycles

 The electronic state is 2-A".
 Alpha  occ. eigenvalues --  -14.44084 -10.31011 -10.30990 -10.28092  -1.11243
 Alpha  occ. eigenvalues --   -0.82161  -0.60348  -0.57723  -0.50590  -0.38798
 Alpha  occ. eigenvalues --   -0.34844  -0.33742  -0.33337
 Alpha virt. eigenvalues --   -0.13059  -0.08259  -0.02747   0.00841   0.03885
 Alpha virt. eigenvalues --    0.04951   0.05003   0.06268   0.07765   0.09027
 Alpha virt. eigenvalues --    0.09520   0.12173   0.12188   0.13759   0.14945

  Beta  occ. eigenvalues --  -14.43753 -10.30955 -10.30612 -10.27260  -1.10553
  Beta  occ. eigenvalues --   -0.78808  -0.59964  -0.57108  -0.47678  -0.38433
  Beta  occ. eigenvalues --   -0.33392  -0.33154
  Beta virt. eigenvalues --   -0.21556  -0.12374  -0.07215   0.01062   0.01498
  Beta virt. eigenvalues --    0.03990   0.04992   0.05755   0.06355   0.07846
  Beta virt. eigenvalues --    0.09689   0.09726   0.12447   0.12469   0.13781

 Mulliken charges and spin densities:
               1          2
     1  C   -0.348633   0.493157
     2  C    0.872261   0.309828
     3  C   -0.086458   0.044491
     4  N   -0.437170   0.152524
 Sum of Mulliken charges =  -0.00000   1.00000

 Dipole moment (field-independent basis, Debye):
    X=              0.6389    Y=             -0.9542    Z=             -0.0000  Tot=              1.1483
 Quadrupole moment (field-independent basis, Debye-Ang):
   XX=            -24.8193   YY=            -27.6739   ZZ=            -21.2968
   XY=              0.5388   XZ=              0.0000   YZ=             -0.0000

  Exact polarizability:  31.618  -1.654  60.572  -0.000   0.000  28.359
 Approx polarizability:  50.918  -6.941 127.181  -0.000   0.000  39.387

                      1                      2                      3
                     A'                     A"                     A'
 Frequencies --    222.7777               292.7721               582.7000
 Red. masses --     12.1107                12.1198                12.2029
 Frc consts  --      0.3541                 0.6121                 2.4412
 IR Inten    --      8.5541                37.7044                35.6231

                      4                      5                      6
                     A'                     A'                     A'
 Frequencies --    870.2563              1458.2485              1803.9233
 Red. masses --     13.0430                12.4876                12.3405
 Frc consts  --      5.8200                15.6456                23.6602
 IR Inten    --      8.5842                78.6548                74.7371

 - Thermochemistry -
 -------------------
 Temperature   298.150 Kelvin.  Pressure   1.00000 Atm.
 Atom     1 has atomic number  6 and mass  12.00000

 Molecular mass:    50.00307 amu.
 Principal axes and moments of inertia in atomic units:
                           1         2         3
     Eigenvalues --    37.14428 209.59075 246.73503
           X           -0.14577   0.98932   0.00000
           Y            0.98932   0.14577   0.00000
           Z            0.00000   0.00000   1.00000
 This molecule is an asymmetric top.
 Rotational symmetry number  1.
 Rotational temperatures (Kelvin)      2.33182     0.41325     0.35104
 Rotational constants (GHZ):          48.58732     8.61079     7.31449
 Zero-point vibrational energy      31286.4 (Joules/Mol)
                                    7.47763 (Kcal/Mol)
 Warning -- explicit consideration of   3 degrees of freedom as
           vibrations may cause significant error
 Vibrational temperatures:    320.53   421.23   838.37  1252.10  2098.09
          (Kelvin)           2595.44

 Zero-point correction=                           0.011916 (Hartree/Particle)
 Thermal correction to Energy=                    0.015941
 Thermal correction to Enthalpy=                  0.016886
 Thermal correction to Gibbs Free Energy=        -0.014120
 Sum of electronic and zero-point Energies=           -168.818864
 Sum of electronic and thermal Energies=              -168.814839
 Sum of electronic and thermal Enthalpies=            -168.813894
 Sum of electronic and thermal Free Energies=         -168.844900

                     E (Thermal)             CV                S
                      KCal/Mol        Cal/Mol-Kelvin    Cal/Mol-Kelvin
 Total                   10.003             11.177             65.257
 Electronic               0.000              0.000              1.377
 Translational            0.889              2.981             37.652
 Rotational               0.889              2.981             22.179
 Vibrational              8.226              5.216              4.049
 Vibration     1          0.648              1.806              1.936
 Vibration     2          0.688              1.687              1.458
 Vibration     3          0.940              1.069              0.480

 Optimization completed.
    -- Stationary point found.
 Normal termination of Gaussian 09 at Tue Dec 13 10:14:51 2016.
