 Gaussian 09, Revision E.01,
 Gaussian 09:  EM64L-G09RevE.01 30-Nov-2015

 ---------------------------------------------
 #p b3lyp/6-311++G(3df,2p) freq symmetry=Loose
 ---------------------------------------------

 ---------
 b3lyp opt
 ---------
 Symbolic Z-matrix:
 Charge =  0 Multiplicity = 4

                         Standard orientation:
 ---------------------------------------------------------------------
 Center     Atomic      Atomic             Coordinates (Angstroms)
 Number     Number       Type             X           Y           Z
 ---------------------------------------------------------------------
      1          6           0        0.525321   -0.598782    0.000000
      2          6           0       -0.239101   -1.845546   -0.000000
      3          6           0       -0.286220    1.755348   -0.000000
      4          7           0        0.000000    0.590554    0.000000
 ---------------------------------------------------------------------

 SCF Done:  E(UB3LYP) =  -168.766983997     A.U. after   16 cycles

 The electronic state is 4-A".
 Alpha  occ. eigenvalues --  -14.43231 -10.32897 -10.29864 -10.27909  -1.05182
 Alpha  occ. eigenvalues --   -0.86161  -0.71206  -0.49749  -0.49507  -0.40106
 Alpha  occ. eigenvalues --   -0.38210  -0.33646  -0.32870  -0.22879
 Alpha virt. eigenvalues --   -0.12307  -0.05075   0.00027   0.01529   0.04149
 Alpha virt. eigenvalues --    0.04607   0.04915   0.06728   0.08047   0.08876
 Alpha virt. eigenvalues --    0.09353   0.10752   0.11611   0.13074   0.15973

  Beta  occ. eigenvalues --  -14.43241 -10.31121 -10.29117 -10.25655  -1.03799
  Beta  occ. eigenvalues --   -0.82093  -0.65628  -0.47005  -0.46339  -0.37014
  Beta  occ. eigenvalues --   -0.32562
  Beta virt. eigenvalues --   -0.20995  -0.19760  -0.07035  -0.06695  -0.02673
  Beta virt. eigenvalues --    0.02657   0.02663   0.04697   0.05573   0.06290
  Beta virt. eigenvalues --    0.07194   0.08477   0.09453   0.10130   0.12031

 Mulliken charges and spin densities:
               1          2
     1  C    0.457439   1.203691
     2  C   -0.263761   1.489108
     3  C    0.085203   0.430807
     4  N   -0.278881  -0.123606
 Sum of Mulliken charges =  -0.00000   3.00000

 Dipole moment (field-independent basis, Debye):
    X=              1.0043    Y=              0.3366    Z=             -0.0000  Tot=              1.0592
 Quadrupole moment (field-independent basis, Debye-Ang):
   XX=            -24.1814   YY=            -30.0570   ZZ=            -21.5268
   XY=             -0.6684   XZ=             -0.0000   YZ=             -0.0000

  Exact polarizability:  37.217   2.385  80.784  -0.000  -0.000  29.180
 Approx polarizability:  55.069   3.416 138.303   0.000   0.000  41.943

                      1                      2                      3
                     A'                     A"                     A'
 Frequencies --    201.5939               271.2399               476.5141
 Red. masses --     12.4538                13.2533                12.8152
 Frc consts  --      0.2982                 0.5745                 1.7145
 IR Inten    --      3.0359                 1.2572                 7.9962

                      4                      5                      6
                     A'                     A'                     A'
 Frequencies --    935.1226              1257.7857              1867.6508
 Red. masses --     12.1998                12.0598                13.0010
 Frc consts  --      6.2855                11.2410                26.7188
 IR Inten    --     24.2815                 8.5034               201.1235

 - Thermochemistry -
 -------------------
 Temperature   298.150 Kelvin.  Pressure   1.00000 Atm.
 Atom     1 has atomic number  6 and mass  12.00000

 Molecular mass:    50.00307 amu.
 Principal axes and moments of inertia in atomic units:
                           1         2         3
     Eigenvalues --    16.90426 311.68433 328.58859
           X           -0.05470   0.99850   0.00000
           Y            0.99850   0.05470   0.00000
           Z            0.00000   0.00000   1.00000
 This molecule is an asymmetric top.
 Rotational symmetry number  1.
 Rotational temperatures (Kelvin)      5.12379     0.27789     0.26359
 Rotational constants (GHZ):         106.76250     5.79029     5.49240
 Zero-point vibrational energy      29965.9 (Joules/Mol)
                                    7.16202 (Kcal/Mol)
 Warning -- explicit consideration of   3 degrees of freedom as
           vibrations may cause significant error
 Vibrational temperatures:    290.05   390.25   685.60  1345.43  1809.67
          (Kelvin)           2687.13

 Zero-point correction=                           0.011413 (Hartree/Particle)
 Thermal correction to Energy=                    0.015565
 Thermal correction to Enthalpy=                  0.016509
 Thermal correction to Gibbs Free Energy=        -0.015355
 Sum of electronic and zero-point Energies=           -168.755571
 Sum of electronic and thermal Energies=              -168.751419
 Sum of electronic and thermal Enthalpies=            -168.750475
 Sum of electronic and thermal Free Energies=         -168.782339

                     E (Thermal)             CV                S
                      KCal/Mol        Cal/Mol-Kelvin    Cal/Mol-Kelvin
 Total                    9.767             11.471             67.065
 Electronic               0.000              0.000              2.755
 Translational            0.889              2.981             37.652
 Rotational               0.889              2.981             22.075
 Vibrational              7.990              5.510              4.583
 Vibration     1          0.638              1.838              2.119
 Vibration     2          0.675              1.726              1.588
 Vibration     3          0.833              1.302              0.720

 Optimization completed.
    -- Stationary point found.
 Normal termination of Gaussian 09 at Tue Aug 16 17:44:39 2016.
