 Gaussian 09, Revision E.01,
 Gaussian 09:  EM64L-G09RevE.01 30-Nov-2015

 ----------------------------------
 #p b3lyp/6-311++G(3df,2p) opt freq
 ----------------------------------

 ---------
 b3lyp opt
 ---------
 Symbolic Z-matrix:
 Charge =  0 Multiplicity = 2

 SCF Done:  E(UB3LYP) =  -168.815506932     A.U. after   12 cycles
 SCF Done:  E(UB3LYP) =  -168.822083645     A.U. after   11 cycles
 SCF Done:  E(UB3LYP) =  -168.823291532     A.U. after   11 cycles
 SCF Done:  E(UB3LYP) =  -168.823299899     A.U. after    9 cycles
 Optimization completed.
    -- Stationary point found.
 Normal termination of Gaussian 09 at Tue Dec 13 10:21:56 2016.

 ----------------------------------------------------------------------
 #P Geom=AllCheck Guess=TCheck SCRF=Check GenChk UB3LYP/6-311++G(3df,2p
 ) Freq
 ----------------------------------------------------------------------

 Structure from the checkpoint file:  "/scratch/sergio/C3N.q0.m2-4.com-2358055/Gau-2528.chk"
 ---------
 b3lyp opt
 ---------
 Charge =  0 Multiplicity = 2

                         Standard orientation:
 ---------------------------------------------------------------------
 Center     Atomic      Atomic             Coordinates (Angstroms)
 Number     Number       Type             X           Y           Z
 ---------------------------------------------------------------------
      1          6           0        0.000000    0.743232   -0.023764
      2          6           0       -0.000000    0.000000   -1.269854
      3          6           0       -0.000000   -0.743232   -0.023764
      4          7           0        0.000000   -0.000000    1.129184
 ---------------------------------------------------------------------

 SCF Done:  E(UB3LYP) =  -168.823299899     A.U. after    1 cycles

 The electronic state is 2-B1.
 Alpha  occ. eigenvalues --  -14.44892 -10.33268 -10.33237 -10.27878  -1.13936
 Alpha  occ. eigenvalues --   -0.85359  -0.61626  -0.52669  -0.50226  -0.47459
 Alpha  occ. eigenvalues --   -0.35542  -0.32171  -0.31335
 Alpha virt. eigenvalues --   -0.11912  -0.08566  -0.02633   0.01356   0.03411
 Alpha virt. eigenvalues --    0.04283   0.04844   0.07330   0.08190   0.09260
 Alpha virt. eigenvalues --    0.10033   0.10117   0.13800   0.15450   0.16167

  Beta  occ. eigenvalues --  -14.43611 -10.33359 -10.33328 -10.27165  -1.12535
  Beta  occ. eigenvalues --   -0.82769  -0.61296  -0.48771  -0.48348  -0.46700
  Beta  occ. eigenvalues --   -0.35216  -0.31070
  Beta virt. eigenvalues --   -0.18469  -0.12039  -0.07971   0.01460   0.01831
  Beta virt. eigenvalues --    0.03412   0.04842   0.04971   0.07414   0.08189
  Beta virt. eigenvalues --    0.09378   0.09998   0.10731   0.13814   0.15540

 Mulliken charges and spin densities:
               1          2
     1  C    0.189894  -0.045463
     2  C   -0.035115   0.494223
     3  C    0.189894  -0.045463
     4  N   -0.344673   0.596703
 Sum of Mulliken charges =  -0.00000   1.00000

 Dipole moment (field-independent basis, Debye):
    X=             -0.0000    Y=             -0.0000    Z=              1.0723  Tot=              1.0723
 Quadrupole moment (field-independent basis, Debye-Ang):
   XX=            -21.2510   YY=            -22.9803   ZZ=            -28.4942
   XY=             -0.0000   XZ=              0.0000   YZ=              0.0000

  Exact polarizability:  26.597   0.000  36.901  -0.000   0.000  41.111
 Approx polarizability:  38.954   0.000  82.084  -0.000  -0.000  71.965

                      1                      2                      3
                     B2                     B1                     B2
 Frequencies --    408.1798               421.4168               512.9303
 Red. masses --     12.0277                12.4271                12.6328
 Frc consts  --      1.1807                 1.3003                 1.9582
 IR Inten    --      7.3340                40.2459                39.3581

                      4                      5                      6
                     A1                     A1                     A1
 Frequencies --    995.8947              1230.0775              1368.2618
 Red. masses --     12.5722                12.0409                12.6860
 Frc consts  --      7.3467                10.7343                13.9930
 IR Inten    --     16.4079                 8.5562                 1.8953

 - Thermochemistry -
 -------------------
 Temperature   298.150 Kelvin.  Pressure   1.00000 Atm.
 Atom     1 has atomic number  6 and mass  12.00000

 Molecular mass:    50.00307 amu.
 Principal axes and moments of inertia in atomic units:
                           1         2         3
     Eigenvalues --    47.34320 132.91009 180.25329
           X            0.00000  -0.00000   1.00000
           Y            0.00000   1.00000   0.00000
           Z            1.00000  -0.00000   0.00000
 This molecule is an asymmetric top.
 Rotational symmetry number  2.
 Rotational temperatures (Kelvin)      1.82949     0.65167     0.48051
 Rotational constants (GHZ):          38.12039    13.57866    10.01225
 Zero-point vibrational energy      29528.4 (Joules/Mol)
                                    7.05745 (Kcal/Mol)
 Warning -- explicit consideration of   3 degrees of freedom as
           vibrations may cause significant error
 Vibrational temperatures:    587.28   606.32   737.99  1432.87  1769.80
          (Kelvin)           1968.62

 Zero-point correction=                           0.011247 (Hartree/Particle)
 Thermal correction to Energy=                    0.014945
 Thermal correction to Enthalpy=                  0.015890
 Thermal correction to Gibbs Free Energy=        -0.013524
 Sum of electronic and zero-point Energies=           -168.812053
 Sum of electronic and thermal Energies=              -168.808355
 Sum of electronic and thermal Enthalpies=            -168.807410
 Sum of electronic and thermal Free Energies=         -168.836824

                     E (Thermal)             CV                S
                      KCal/Mol        Cal/Mol-Kelvin    Cal/Mol-Kelvin
 Total                    9.378             10.745             61.906
 Electronic               0.000              0.000              1.377
 Translational            0.889              2.981             37.652
 Rotational               0.889              2.981             20.278
 Vibrational              7.601              4.783              2.599
 Vibration     1          0.773              1.452              0.933
 Vibration     2          0.784              1.424              0.887
 Vibration     3          0.868              1.221              0.627

 Optimization completed.
    -- Stationary point found.
 Normal termination of Gaussian 09 at Tue Dec 13 10:23:57 2016.
