 Gaussian 09, Revision E.01,
 Gaussian 09:  EM64L-G09RevE.01 30-Nov-2015

 ---------------------------------------------
 #p b3lyp/6-311++G(3df,2p) freq symmetry=Loose
 ---------------------------------------------

 ---------
 b3lyp opt
 ---------
 Symbolic Z-matrix:
 Charge =  0 Multiplicity = 2

                         Standard orientation:
 ---------------------------------------------------------------------
 Center     Atomic      Atomic             Coordinates (Angstroms)
 Number     Number       Type             X           Y           Z
 ---------------------------------------------------------------------
      1          6           0        0.000000    0.616020    0.000000
      2          6           0        0.179546   -0.722295    0.000000
      3          6           0       -0.041625   -1.963798    0.000000
      4          7           0       -0.118218    1.774349    0.000000
 ---------------------------------------------------------------------

 SCF Done:  E(UB3LYP) =  -168.908326105     A.U. after   21 cycles

 The electronic state is 2-A'.
 Alpha  occ. eigenvalues --  -14.38964 -10.28557 -10.28094 -10.27417  -0.97909
 Alpha  occ. eigenvalues --   -0.85612  -0.71411  -0.45408  -0.44229  -0.43508
 Alpha  occ. eigenvalues --   -0.38599  -0.35275  -0.34002
 Alpha virt. eigenvalues --   -0.10412  -0.09248  -0.00189   0.03268   0.04321
 Alpha virt. eigenvalues --    0.04621   0.05944   0.07102   0.07809   0.09032
 Alpha virt. eigenvalues --    0.11637   0.12479   0.12978   0.13450   0.17181

  Beta  occ. eigenvalues --  -14.38467 -10.28237 -10.27650 -10.26860  -0.96903
  Beta  occ. eigenvalues --   -0.83244  -0.70241  -0.44006  -0.43005  -0.42551
  Beta  occ. eigenvalues --   -0.34199  -0.33109
  Beta virt. eigenvalues --   -0.24858  -0.08439  -0.07279   0.00012   0.03751
  Beta virt. eigenvalues --    0.04672   0.04720   0.06261   0.07450   0.07876
  Beta virt. eigenvalues --    0.09835   0.11911   0.12773   0.13297   0.13716

 Mulliken charges and spin densities:
               1          2
     1  C    0.254137  -0.136009
     2  C    0.946309   0.368458
     3  C   -0.307428   0.515174
     4  N   -0.893018   0.252378
 Sum of Mulliken charges =  -0.00000   1.00000

 Dipole moment (field-independent basis, Debye):
    X=              0.7066    Y=             -0.7405    Z=              0.0000  Tot=              1.0235
 Quadrupole moment (field-independent basis, Debye-Ang):
   XX=            -21.3600   YY=            -28.8634   ZZ=            -22.3728
   XY=             -1.0034   XZ=              0.0000   YZ=              0.0000

  Exact polarizability:  25.713  -0.646 105.480  -0.000   0.000  34.535
 Approx polarizability:  37.325   3.791 192.025  -0.000  -0.000  35.896

                      1                      2                      3
                     A'                     A"                     A'
 Frequencies --    229.1207               440.2630               501.7336
 Red. masses --     12.3742                12.3372                12.1551
 Frc consts  --      0.3827                 1.4089                 1.8028
 IR Inten    --     19.0756                 1.8003                41.4354

                      4                      5                      6
                     A'                     A'                     A'
 Frequencies --    899.7751              1564.2566              2150.7660
 Red. masses --     12.5522                12.0408                12.6764
 Frc consts  --      5.9874                17.3589                34.5489
 IR Inten    --     45.7033              1405.9629               223.6087

 - Thermochemistry -
 -------------------
 Temperature   298.150 Kelvin.  Pressure   1.00000 Atm.
 Atom     1 has atomic number  6 and mass  12.00000

 Molecular mass:    50.00307 amu.
 Principal axes and moments of inertia in atomic units:
                           1         2         3
     Eigenvalues --     1.71699 361.75223 363.46922
           X           -0.03486   0.99939   0.00000
           Y            0.99939   0.03486   0.00000
           Z           -0.00000   0.00000   1.00000
 This molecule is an asymmetric top.
 Rotational symmetry number  1.
 Rotational temperatures (Kelvin)     50.44518     0.23943     0.23830
 Rotational constants (GHZ):        1051.10832     4.98889     4.96532
 Zero-point vibrational energy      34607.5 (Joules/Mol)
                                    8.27138 (Kcal/Mol)
 Warning -- explicit consideration of   3 degrees of freedom as
           vibrations may cause significant error
 Vibrational temperatures:    329.65   633.44   721.88  1294.57  2250.61
          (Kelvin)           3094.47

 Zero-point correction=                           0.013181 (Hartree/Particle)
 Thermal correction to Energy=                    0.017083
 Thermal correction to Enthalpy=                  0.018028
 Thermal correction to Gibbs Free Energy=        -0.011714
 Sum of electronic and zero-point Energies=           -168.895145
 Sum of electronic and thermal Energies=              -168.891243
 Sum of electronic and thermal Enthalpies=            -168.890298
 Sum of electronic and thermal Free Energies=         -168.920040

                     E (Thermal)             CV                S
                      KCal/Mol        Cal/Mol-Kelvin    Cal/Mol-Kelvin
 Total                   10.720             10.953             62.596
 Electronic               0.000              0.000              1.377
 Translational            0.889              2.981             37.652
 Rotational               0.889              2.981             20.051
 Vibrational              8.943              4.992              3.515
 Vibration     1          0.652              1.797              1.886
 Vibration     2          0.800              1.382              0.826
 Vibration     3          0.857              1.246              0.654

 Normal termination of Gaussian 09 at Tue Aug 16 17:45:13 2016.
