 Gaussian 09, Revision E.01,
 Gaussian 09:  EM64L-G09RevE.01 30-Nov-2015

 -----------------------------------------
 #p b3lyp/6-311+G(3df) freq symmetry=Loose
 -----------------------------------------

 ---------
 b3lyp opt
 ---------
 Symbolic Z-matrix:
 Charge =  2 Multiplicity = 3

                         Standard orientation:
 ---------------------------------------------------------------------
 Center     Atomic      Atomic             Coordinates (Angstroms)
 Number     Number       Type             X           Y           Z
 ---------------------------------------------------------------------
      1          6           0        0.000000   -0.000000   -0.674177
      2          6           0       -0.000000    0.000000    0.596581
      3          6           0        0.000000   -0.000000   -1.966769
      4          6           0       -0.000000    0.000000    2.044365
 ---------------------------------------------------------------------

 SCF Done:  E(UB3LYP) =  -151.045513497     A.U. after   36 cycles

 Unable to determine electronic state:  an orbital has unidentified symmetry.
 Alpha  occ. eigenvalues --  -10.94623 -10.90460 -10.84620 -10.82828  -1.41741
 Alpha  occ. eigenvalues --   -1.34141  -1.23833  -0.99857  -0.95245  -0.93488
 Alpha  occ. eigenvalues --   -0.86766  -0.84984
 Alpha virt. eigenvalues --   -0.77177  -0.65401  -0.63027  -0.45057  -0.43706
 Alpha virt. eigenvalues --   -0.37946  -0.35640  -0.27457  -0.27422  -0.26045
 Alpha virt. eigenvalues --   -0.22349  -0.21266  -0.21097  -0.20153  -0.20063

  Beta  occ. eigenvalues --  -10.91013 -10.90014 -10.84512 -10.82684  -1.39956
  Beta  occ. eigenvalues --   -1.30762  -1.22210  -0.92640  -0.91385  -0.85928
  Beta virt. eigenvalues --   -0.74862  -0.74163  -0.72671  -0.60822  -0.58749
  Beta virt. eigenvalues --   -0.42063  -0.40605  -0.37348  -0.35132  -0.27413
  Beta virt. eigenvalues --   -0.26967  -0.24888  -0.21344  -0.20738  -0.20340

 Mulliken charges and spin densities:
               1          2
     1  C    0.589025   0.171754
     2  C    0.535335   0.140075
     3  C    0.511955   1.512366
     4  C    0.363685   0.175805
 Sum of Mulliken charges =   2.00000   2.00000

 Dipole moment (field-independent basis, Debye):
    X=              0.0000    Y=             -0.0000    Z=             -2.0602  Tot=              2.0602
 Quadrupole moment (field-independent basis, Debye-Ang):
   XX=            -15.7550   YY=            -17.2471   ZZ=             10.6958
   XY=              0.0000   XZ=             -0.0000   YZ=              0.0000

  Exact polarizability:  19.010   0.000  19.263   0.000  -0.000  69.533
 Approx polarizability:  27.946  -0.000  26.098  -0.000   0.000 193.089

                      1                      2                      3
                     ?A                     ?A                     ?A
 Frequencies --     93.4147               141.4273               349.7845
 Red. masses --     12.0000                12.0000                12.0000
 Frc consts  --      0.0617                 0.1414                 0.8650
 IR Inten    --      0.0000                 0.2307                15.0626

                      4                      5                      6
                     ?A                     SG                     SG
 Frequencies --    389.7648               818.1591              1365.8861
 Red. masses --     12.0000                12.0000                12.0000
 Frc consts  --      1.0741                 4.7327                13.1905
 IR Inten    --      7.1249               149.6828               550.7684

                      7
                     SG
 Frequencies --   2022.3644
 Red. masses --     12.0000
 Frc consts  --     28.9168
 IR Inten    --      1.3527

 - Thermochemistry -
 -------------------
 Temperature   298.150 Kelvin.  Pressure   1.00000 Atm.
 Atom     1 has atomic number  6 and mass  12.00000

 Molecular mass:    48.00000 amu.
 Principal axes and moments of inertia in atomic units:
                           1         2         3
     Eigenvalues --     0.00000 379.59132 379.59132
           X           -0.00000  -0.70676   0.70745
           Y            0.00000   0.70745   0.70676
           Z            1.00000  -0.00000   0.00000
 This molecule is a prolate symmetric top.
 Rotational symmetry number  1.
 Rotational temperature (Kelvin)      0.22818
 Rotational constant (GHZ):           4.754432
 Zero-point vibrational energy      30988.1 (Joules/Mol)
                                    7.40633 (Kcal/Mol)
 Warning -- explicit consideration of   4 degrees of freedom as
           vibrations may cause significant error
 Vibrational temperatures:    134.40   203.48   503.26   560.78  1177.15
          (Kelvin)           1965.20  2909.73

 Zero-point correction=                           0.011803 (Hartree/Particle)
 Thermal correction to Energy=                    0.016332
 Thermal correction to Enthalpy=                  0.017276
 Thermal correction to Gibbs Free Energy=        -0.013471
 Sum of electronic and zero-point Energies=           -151.033711
 Sum of electronic and thermal Energies=              -151.029181
 Sum of electronic and thermal Enthalpies=            -151.028237
 Sum of electronic and thermal Free Energies=         -151.058985

                     E (Thermal)             CV                S
                      KCal/Mol        Cal/Mol-Kelvin    Cal/Mol-Kelvin
 Total                   10.249             12.653             64.714
 Electronic               0.000              0.000              2.183
 Translational            0.889              2.981             37.530
 Rotational               0.592              1.987             16.246
 Vibrational              8.767              7.684              8.755
 Vibration     1          0.602              1.954              3.587
 Vibration     2          0.615              1.912              2.784
 Vibration     3          0.727              1.576              1.167
 Vibration     4          0.758              1.492              1.001

 Optimization completed.
    -- Stationary point found.
 Normal termination of Gaussian 09 at Mon Oct 31 08:48:55 2016.
