 Gaussian 09, Revision E.01,
 Gaussian 09:  EM64L-G09RevE.01 30-Nov-2015

 ---------------------------------------------
 #p b3lyp/6-311++G(3df,2p) freq symmetry=Loose
 ---------------------------------------------

 ---------
 b3lyp opt
 ---------
 Symbolic Z-matrix:
 Charge =  1 Multiplicity = 4

                         Standard orientation:
 ---------------------------------------------------------------------
 Center     Atomic      Atomic             Coordinates (Angstroms)
 Number     Number       Type             X           Y           Z
 ---------------------------------------------------------------------
      1          6           0        0.000000    1.902287    0.128248
      2          6           0        0.000000    0.649152   -0.128248
      3          6           0       -0.000000   -0.649152   -0.128248
      4          6           0       -0.000000   -1.902287    0.128248
 ---------------------------------------------------------------------

 SCF Done:  E(UB3LYP) =  -151.718678914     A.U. after   18 cycles

 The electronic state is 4-B1.
 Alpha  occ. eigenvalues --  -10.58995 -10.58989 -10.54219 -10.54112  -1.14703
 Alpha  occ. eigenvalues --   -1.08783  -0.96304  -0.68716  -0.68611  -0.67753
 Alpha  occ. eigenvalues --   -0.66039  -0.59197  -0.58433
 Alpha virt. eigenvalues --   -0.36720  -0.36168  -0.19018  -0.16733  -0.16439
 Alpha virt. eigenvalues --   -0.10830  -0.10721  -0.10602  -0.07688  -0.06175
 Alpha virt. eigenvalues --   -0.05697  -0.03664  -0.01892  -0.01491  -0.00889

  Beta  occ. eigenvalues --  -10.56507 -10.56502 -10.53881 -10.53771  -1.12022
  Beta  occ. eigenvalues --   -1.03074  -0.93285  -0.65116  -0.64662  -0.55388
  Beta virt. eigenvalues --   -0.50419  -0.46832  -0.46346  -0.29913  -0.29658
  Beta virt. eigenvalues --   -0.16082  -0.15948  -0.12636  -0.10282  -0.10235
  Beta virt. eigenvalues --   -0.09764  -0.07000  -0.05704  -0.04362  -0.02948

 Mulliken charges and spin densities:
               1          2
     1  C    0.018597   1.133781
     2  C    0.481403   0.366219
     3  C    0.481403   0.366219
     4  C    0.018597   1.133781
 Sum of Mulliken charges =   1.00000   3.00000

 Dipole moment (field-independent basis, Debye):
    X=             -0.0000    Y=             -0.0000    Z=             -0.4985  Tot=              0.4985
 Quadrupole moment (field-independent basis, Debye-Ang):
   XX=            -19.0386   YY=             -6.2669   ZZ=            -19.6108
   XY=              0.0000   XZ=              0.0000   YZ=              0.0000

  Exact polarizability:  30.356  -0.000 -12.079  -0.000   0.000  22.807
 Approx polarizability:  31.181   0.000 653.637  -0.000  -0.000  32.577

                      1                      2                      3
                     A1                     A2                     B2
 Frequencies --    199.7979               488.9537               522.2594
 Red. masses --     12.0000                12.0000                12.0000
 Frc consts  --      0.2822                 1.6903                 1.9284
 IR Inten    --      0.0963                 0.0000                83.9683

                      4                      5                      6
                     A1                     A1                     B2
 Frequencies --    947.5351              1843.0094              1975.4798
 Red. masses --     12.0000                12.0000                12.0000
 Frc consts  --      6.3478                24.0152                27.5916
 IR Inten    --      4.1153                37.2560              5248.3134

 - Thermochemistry -
 -------------------
 Temperature   298.150 Kelvin.  Pressure   1.00000 Atm.
 Atom     1 has atomic number  6 and mass  12.00000

 Molecular mass:    48.00000 amu.
 Principal axes and moments of inertia in atomic units:
                           1         2         3
     Eigenvalues --     2.81929 346.25852 349.07781
           X            0.00000   0.00000   1.00000
           Y            1.00000   0.00000  -0.00000
           Z           -0.00000   1.00000  -0.00000
 This molecule is an asymmetric top.
 Rotational symmetry number  2.
 Rotational temperatures (Kelvin)     30.72182     0.25014     0.24812
 Rotational constants (GHZ):         640.13969     5.21212     5.17003
 Zero-point vibrational energy      35750.6 (Joules/Mol)
                                    8.54460 (Kcal/Mol)
 Warning -- explicit consideration of   3 degrees of freedom as
           vibrations may cause significant error
 Vibrational temperatures:    287.46   703.49   751.41  1363.29  2651.68
          (Kelvin)           2842.27

 Zero-point correction=                           0.013617 (Hartree/Particle)
 Thermal correction to Energy=                    0.017498
 Thermal correction to Enthalpy=                  0.018442
 Thermal correction to Gibbs Free Energy=        -0.011450
 Sum of electronic and zero-point Energies=           -151.705062
 Sum of electronic and thermal Energies=              -151.701181
 Sum of electronic and thermal Enthalpies=            -151.700237
 Sum of electronic and thermal Free Energies=         -151.730129

                     E (Thermal)             CV                S
                      KCal/Mol        Cal/Mol-Kelvin    Cal/Mol-Kelvin
 Total                   10.980             10.750             62.914
 Electronic               0.000              0.000              2.755
 Translational            0.889              2.981             37.530
 Rotational               0.889              2.981             19.083
 Vibrational              9.203              4.788              3.546
 Vibration     1          0.638              1.840              2.135
 Vibration     2          0.845              1.275              0.686
 Vibration     3          0.877              1.201              0.605

 Optimization completed.
    -- Stationary point found.
 Normal termination of Gaussian 09 at Sun Jun 19 00:38:17 2016.
