 Gaussian 09, Revision E.01,
 Gaussian 09:  EM64L-G09RevE.01 30-Nov-2015

 -----------------------------------------
 #p b3lyp/6-311+G(3df) freq symmetry=Loose
 -----------------------------------------

 ---------
 b3lyp opt
 ---------
 Symbolic Z-matrix:
 Charge =  2 Multiplicity = 1

                         Standard orientation:
 ---------------------------------------------------------------------
 Center     Atomic      Atomic             Coordinates (Angstroms)
 Number     Number       Type             X           Y           Z
 ---------------------------------------------------------------------
      1          6           0        0.000000    1.436013   -0.000000
      2          6           0        0.000000    0.000000    0.000000
      3          6           0        1.243623   -0.718006   -0.000000
      4          6           0       -1.243623   -0.718006   -0.000000
 ---------------------------------------------------------------------

 SCF Done:  E(RB3LYP) =  -150.981153735     A.U. after    9 cycles

 The electronic state is 1-A1'.
 Alpha  occ. eigenvalues --  -10.95009 -10.95009 -10.95006 -10.81402  -1.45617
 Alpha  occ. eigenvalues --   -1.25407  -1.25407  -0.94270  -0.92677  -0.89454
 Alpha  occ. eigenvalues --   -0.89454
 Alpha virt. eigenvalues --   -0.72850  -0.72850  -0.71029  -0.71029  -0.66199
 Alpha virt. eigenvalues --   -0.50547  -0.35167  -0.30717  -0.28095  -0.26900
 Alpha virt. eigenvalues --   -0.26900  -0.24493  -0.24170  -0.24170  -0.21956

 Mulliken charges:
               1
     1  C    0.368429
     2  C    0.894712
     3  C    0.368429
     4  C    0.368429
 Sum of Mulliken charges =   2.00000

 Dipole moment (field-independent basis, Debye):
    X=             -0.0000    Y=              0.0000    Z=             -0.0000  Tot=              0.0000
 Quadrupole moment (field-independent basis, Debye-Ang):
   XX=             -9.2823   YY=             -9.2823   ZZ=            -16.9066
   XY=             -0.0000   XZ=             -0.0000   YZ=              0.0000

  Exact polarizability:  43.172   0.000  43.173  -0.000  -0.000  21.626
 Approx polarizability: 121.223  -0.000 121.223   0.000   0.000  34.812

                      1                      2                      3
                     A2"                    E'                     E'
 Frequencies --    377.7235               383.8888               383.9030
 Red. masses --     12.0000                12.0000                12.0000
 Frc consts  --      1.0087                 1.0419                 1.0420
 IR Inten    --      0.1025                18.6668                18.6718

                      4                      5                      6
                     A1'                    E'                     E'
 Frequencies --    900.1951              1233.0426              1233.0550
 Red. masses --     12.0000                12.0000                12.0000
 Frc consts  --      5.7293                10.7495                10.7497
 IR Inten    --      0.0000               545.1301               545.0984

 - Thermochemistry -
 -------------------
 Temperature   298.150 Kelvin.  Pressure   1.00000 Atm.
 Atom     1 has atomic number  6 and mass  12.00000

 Molecular mass:    48.00000 amu.
 Principal axes and moments of inertia in atomic units:
                           1         2         3
     Eigenvalues --   132.55215 132.55215 265.10430
           X           -0.47382   0.88062   0.00000
           Y            0.88062   0.47382   0.00000
           Z           -0.00000  -0.00000   1.00000
 This molecule is an oblate symmetric top.
 Rotational symmetry number  6.
 Rotational temperatures (Kelvin)      0.65343     0.65343     0.32672
 Rotational constants (GHZ):          13.61533    13.61533     6.80766
 Zero-point vibrational energy      26986.6 (Joules/Mol)
                                    6.44995 (Kcal/Mol)
 Warning -- explicit consideration of   3 degrees of freedom as
           vibrations may cause significant error
 Vibrational temperatures:    543.46   552.33   552.35  1295.18  1774.07
          (Kelvin)           1774.09

 Zero-point correction=                           0.010279 (Hartree/Particle)
 Thermal correction to Energy=                    0.014177
 Thermal correction to Enthalpy=                  0.015121
 Thermal correction to Gibbs Free Energy=        -0.013546
 Sum of electronic and zero-point Energies=           -150.970875
 Sum of electronic and thermal Energies=              -150.966977
 Sum of electronic and thermal Enthalpies=            -150.966033
 Sum of electronic and thermal Free Energies=         -150.994700

                     E (Thermal)             CV                S
                      KCal/Mol        Cal/Mol-Kelvin    Cal/Mol-Kelvin
 Total                    8.896             11.357             60.336
 Electronic               0.000              0.000              0.000
 Translational            0.889              2.981             37.530
 Rotational               0.889              2.981             19.498
 Vibrational              7.119              5.395              3.307
 Vibration     1          0.748              1.518              1.048
 Vibration     2          0.753              1.505              1.024
 Vibration     3          0.753              1.505              1.024

 Optimization completed.
    -- Stationary point found.
 Normal termination of Gaussian 09 at Sun Oct 23 02:04:41 2016.
