 Gaussian 09, Revision E.01,
 Gaussian 09:  EM64L-G09RevE.01 30-Nov-2015

 ---------------------------------------------
 #p b3lyp/6-311++G(3df,2p) freq symmetry=Loose
 ---------------------------------------------

 ---------
 b3lyp opt
 ---------
 Symbolic Z-matrix:
 Charge =  0 Multiplicity = 1

                         Standard orientation:
 ---------------------------------------------------------------------
 Center     Atomic      Atomic             Coordinates (Angstroms)
 Number     Number       Type             X           Y           Z
 ---------------------------------------------------------------------
      1          6           0        0.000000    0.746541    0.000000
      2          6           0        1.233327   -0.000000    0.000000
      3          6           0       -0.000000   -0.746541    0.000000
      4          6           0       -1.233327    0.000000    0.000000
 ---------------------------------------------------------------------

 SCF Done:  E(RB3LYP) =  -152.116519067     A.U. after    9 cycles

 The electronic state is 1-AG.
 Alpha  occ. eigenvalues --  -10.30480 -10.30478 -10.30179 -10.30155  -1.04803
 Alpha  occ. eigenvalues --   -0.76882  -0.57734  -0.47161  -0.43875  -0.42648
 Alpha  occ. eigenvalues --   -0.31346  -0.31159
 Alpha virt. eigenvalues --   -0.18746  -0.11305  -0.05419   0.00579   0.02365
 Alpha virt. eigenvalues --    0.03262   0.04839   0.04870   0.06871   0.07891
 Alpha virt. eigenvalues --    0.08065   0.09365   0.09982   0.12937   0.13901

 Mulliken charges:
               1
     1  C    0.229724
     2  C   -0.229724
     3  C    0.229724
     4  C   -0.229724
 Sum of Mulliken charges =  -0.00000

 Dipole moment (field-independent basis, Debye):
    X=             -0.0000    Y=             -0.0000    Z=             -0.0000  Tot=              0.0000
 Quadrupole moment (field-independent basis, Debye-Ang):
   XX=            -29.6464   YY=            -24.4044   ZZ=            -20.7425
   XY=              0.0000   XZ=             -0.0000   YZ=             -0.0000

  Exact polarizability:  43.917   0.000  38.859  -0.000  -0.000  29.780
 Approx polarizability:  72.404   0.000  83.307  -0.000  -0.000  48.471

                      1                      2                      3
                     B1U                    B2U                    AG
 Frequencies --    311.7605               502.0497               952.9875
 Red. masses --     12.0000                12.0000                12.0000
 Frc consts  --      0.6872                 1.7821                 6.4210
 IR Inten    --     49.5516                55.1247                 0.0000

                      4                      5                      6
                     B1G                    AG                     B3U
 Frequencies --   1013.8691              1288.6370              1393.7002
 Red. masses --     12.0000                12.0000                12.0000
 Frc consts  --      7.2677                11.7407                13.7331
 IR Inten    --      0.0000                 0.0000               270.5475

 - Thermochemistry -
 -------------------
 Temperature   298.150 Kelvin.  Pressure   1.00000 Atm.
 Atom     1 has atomic number  6 and mass  12.00000

 Molecular mass:    48.00000 amu.
 Principal axes and moments of inertia in atomic units:
                           1         2         3
     Eigenvalues --    47.76572 130.36637 178.13209
           X            1.00000   0.00000   0.00000
           Y           -0.00000   1.00000   0.00000
           Z            0.00000  -0.00000   1.00000
 This molecule is an asymmetric top.
 Rotational symmetry number  4.
 Rotational temperatures (Kelvin)      1.81330     0.66439     0.48623
 Rotational constants (GHZ):          37.78318    13.84361    10.13148
 Zero-point vibrational energy      32676.0 (Joules/Mol)
                                    7.80976 (Kcal/Mol)
 Warning -- explicit consideration of   2 degrees of freedom as
           vibrations may cause significant error
 Vibrational temperatures:    448.55   722.34  1371.13  1458.73  1854.06
          (Kelvin)           2005.22

 Zero-point correction=                           0.012446 (Hartree/Particle)
 Thermal correction to Energy=                    0.016005
 Thermal correction to Enthalpy=                  0.016949
 Thermal correction to Gibbs Free Energy=        -0.010924
 Sum of electronic and zero-point Energies=           -152.104073
 Sum of electronic and thermal Energies=              -152.100514
 Sum of electronic and thermal Enthalpies=            -152.099570
 Sum of electronic and thermal Free Energies=         -152.127443

                     E (Thermal)             CV                S
                      KCal/Mol        Cal/Mol-Kelvin    Cal/Mol-Kelvin
 Total                   10.043              9.914             58.663
 Electronic               0.000              0.000              0.000
 Translational            0.889              2.981             37.530
 Rotational               0.889              2.981             18.878
 Vibrational              8.266              3.952              2.255
 Vibration     1          0.700              1.651              1.353
 Vibration     2          0.857              1.245              0.653

 Optimization completed.
    -- Stationary point found.
 Normal termination of Gaussian 09 at Sun Jun 19 00:35:12 2016.
