 Gaussian 09, Revision E.01,
 Gaussian 09:  EM64L-G09RevE.01 30-Nov-2015

 ---------------------------------------------
 #p b3lyp/6-311++G(3df,2p) freq symmetry=Loose
 ---------------------------------------------

 ---------
 b3lyp opt
 ---------
 Symbolic Z-matrix:
 Charge =  0 Multiplicity = 1

                         Standard orientation:
 ---------------------------------------------------------------------
 Center     Atomic      Atomic             Coordinates (Angstroms)
 Number     Number       Type             X           Y           Z
 ---------------------------------------------------------------------
      1          6           0        0.000000    0.000000    1.950380
      2          6           0        0.000000    0.000000    0.644704
      3          6           0        0.000000    0.000000   -0.644704
      4          6           0        0.000000    0.000000   -1.950380
 ---------------------------------------------------------------------

 SCF Done:  E(RB3LYP) =  -152.113441215     A.U. after   10 cycles

 Unable to determine electronic state:  partially filled degenerate orbitals.
 Alpha  occ. eigenvalues --  -10.28872 -10.28867 -10.27192 -10.27074  -0.87773
 Alpha  occ. eigenvalues --   -0.79761  -0.69479  -0.41916  -0.41651  -0.35606
 Alpha  occ. eigenvalues --   -0.34537  -0.29896
 Alpha virt. eigenvalues --   -0.25007  -0.09128  -0.08899   0.00361   0.04333
 Alpha virt. eigenvalues --    0.04636   0.04971   0.06055   0.06098   0.06308
 Alpha virt. eigenvalues --    0.09751   0.12067   0.12269   0.12958   0.13304

 Mulliken charges:
               1
     1  C   -0.509115
     2  C    0.509115
     3  C    0.509115
     4  C   -0.509115
 Sum of Mulliken charges =  -0.00000

 Dipole moment (field-independent basis, Debye):
    X=             -0.0000    Y=              0.0000    Z=              0.0000  Tot=              0.0000
 Quadrupole moment (field-independent basis, Debye-Ang):
   XX=            -20.5095   YY=            -24.1295   ZZ=            -33.4261
   XY=             -0.0000   XZ=              0.0000   YZ=              0.0000

  Exact polarizability:  30.864   0.000  30.580   0.000  -0.000  89.621
 Approx polarizability:  46.957  -0.000  42.050  -0.000  -0.000 217.142

                      1                      2                      3
                     PIU                    PIU                    PIG
 Frequencies --    149.1329               210.1060               297.0065
 Red. masses --     12.0000                12.0000                12.0000
 Frc consts  --      0.1572                 0.3121                 0.6237
 IR Inten    --     39.1360                 8.0202                 0.0000

                      4                      5                      6
                     PIG                    SGG                    SGU
 Frequencies --    484.6896               938.0821              1602.4373
 Red. masses --     12.0000                12.0000                12.0000
 Frc consts  --      1.6610                 6.2218                18.1549
 IR Inten    --      0.0000                 0.0000               390.6214

                      7
                     SGG
 Frequencies --   2126.6799
 Red. masses --     12.0000
 Frc consts  --     31.9768
 IR Inten    --      0.0000

 - Thermochemistry -
 -------------------
 Temperature   298.150 Kelvin.  Pressure   1.00000 Atm.
 Atom     1 has atomic number  6 and mass  12.00000

 Molecular mass:    48.00000 amu.
 Principal axes and moments of inertia in atomic units:
                           1         2         3
     Eigenvalues --     0.00000 361.64534 361.64534
           X           -0.00000   1.00000  -0.00000
           Y            0.00000   0.00000   1.00000
           Z            1.00000   0.00000  -0.00000
 This molecule is a prolate symmetric top.
 Rotational symmetry number  2.
 Rotational temperature (Kelvin)      0.23950
 Rotational constant (GHZ):           4.990362
 Zero-point vibrational energy      34740.4 (Joules/Mol)
                                    8.30314 (Kcal/Mol)
 Warning -- explicit consideration of   4 degrees of freedom as
           vibrations may cause significant error
 Vibrational temperatures:    214.57   302.30   427.33   697.36  1349.69
          (Kelvin)           2305.55  3059.81

 Zero-point correction=                           0.013232 (Hartree/Particle)
 Thermal correction to Energy=                    0.017492
 Thermal correction to Enthalpy=                  0.018436
 Thermal correction to Gibbs Free Energy=        -0.009733
 Sum of electronic and zero-point Energies=           -152.100209
 Sum of electronic and thermal Energies=              -152.095949
 Sum of electronic and thermal Enthalpies=            -152.095005
 Sum of electronic and thermal Free Energies=         -152.123175

                     E (Thermal)             CV                S
                      KCal/Mol        Cal/Mol-Kelvin    Cal/Mol-Kelvin
 Total                   10.976             12.170             59.288
 Electronic               0.000              0.000              0.000
 Translational            0.889              2.981             37.530
 Rotational               0.592              1.987             14.772
 Vibrational              9.495              7.202              6.986
 Vibration     1          0.618              1.904              2.683
 Vibration     2          0.642              1.825              2.043
 Vibration     3          0.691              1.679              1.434
 Vibration     4          0.841              1.284              0.698

 Optimization completed.
    -- Stationary point found.
 Normal termination of Gaussian 09 at Sun Jun 19 00:35:17 2016.
