 Gaussian 09, Revision C.01,
 Gaussian 09:  AM64L-G09RevC.01 23-Sep-2011

 ---------------------------------------------
 #p b3lyp/6-311++G(3df,2p) freq symmetry=Loose
 ---------------------------------------------

 (Enter /home/nestor/.gaussian09/l101.exe)
 ---------
 b3lyp opt
 ---------
 Charge =  0 Multiplicity = 1

                         Standard orientation:
 ---------------------------------------------------------------------
 Center     Atomic      Atomic             Coordinates (Angstroms)
 Number     Number       Type             X           Y           Z
 ---------------------------------------------------------------------
      1          6           0        0.992145   -0.663854    0.000000
      2          6           0       -0.314666   -1.132447    0.000000
      3          6           0        0.000000    0.328549    0.000000
      4          6           0       -0.677479    1.467753    0.000000
 ---------------------------------------------------------------------

 SCF Done:  E(RB3LYP) =  -152.081034506     A.U. after   13 cycles

 The electronic state is 1-A'.
 Alpha  occ. eigenvalues --  -10.31670 -10.28936 -10.28764 -10.27666  -0.97761
 Alpha  occ. eigenvalues --   -0.79686  -0.53810  -0.48268  -0.44182  -0.36931
 Alpha  occ. eigenvalues --   -0.31938  -0.30926
 Alpha virt. eigenvalues --   -0.22774  -0.13258  -0.05836  -0.00404   0.02286
 Alpha virt. eigenvalues --    0.03962   0.04404   0.05451   0.06255   0.07397
 Alpha virt. eigenvalues --    0.08055   0.08750   0.10770   0.12426   0.13218

 Mulliken atomic charges:
              1
     1  C   -0.110561
     2  C   -0.197605
     3  C    0.725132
     4  C   -0.416966
 Sum of Mulliken atomic charges =   0.00000

 Dipole moment (field-independent basis, Debye):
    X=              0.2695    Y=              0.2587    Z=              0.0000  Tot=              0.3735
 Quadrupole moment (field-independent basis, Debye-Ang):
   XX=            -27.3517   YY=            -26.6109   ZZ=            -20.8833
   XY=              0.4226   XZ=              0.0000   YZ=              0.0000

  Exact polarizability:  43.436 -11.137  61.125   0.000   0.000  30.762
 Approx polarizability:  81.756 -46.188 151.960   0.000   0.000  48.545

                     1                      2                      3
                    A'                     A"                     A'
 Frequencies --   107.0261               229.0581               702.2379
 Red. masses --    12.0000                12.0000                12.0000
 Frc consts  --     0.0810                 0.3710                 3.4866
 IR Inten    --    11.4774                27.7004                26.4074

                     4                      5                      6
                    A'                     A'                     A'
 Frequencies --   882.4912              1292.9327              1678.3805
 Red. masses --    12.0000                12.0000                12.0000
 Frc consts  --     5.5062                11.8191                19.9165
 IR Inten    --     0.3749                 8.8826               226.1568

 - Thermochemistry -
 -------------------
 Temperature   298.150 Kelvin.  Pressure   1.00000 Atm.
 Atom     1 has atomic number  6 and mass  12.00000

 Molecular mass:    48.00000 amu.
 Principal axes and moments of inertia in atomic units:
                           1         2         3
     Eigenvalues --    42.10044 194.77805 236.87849
           X           -0.39642   0.91807   0.00000
           Y            0.91807   0.39642   0.00000
           Z            0.00000   0.00000   1.00000
 This molecule is an asymmetric top.
 Rotational symmetry number  1.
 Rotational temperatures (Kelvin)      2.05731     0.44468     0.36565
 Rotational constants (GHZ):          42.86751     9.26563     7.61885
 Zero-point vibrational energy      29261.4 (Joules/Mol)
                                    6.99365 (Kcal/Mol)
 Warning -- explicit consideration of   2 degrees of freedom as
           vibrations may cause significant error
 Vibrational temperatures:    153.99   329.56  1010.36  1269.71  1860.24
          (Kelvin)           2414.81

 Zero-point correction=                           0.011145 (Hartree/Particle)
 Thermal correction to Energy=                    0.015399
 Thermal correction to Enthalpy=                  0.016343
 Thermal correction to Gibbs Free Energy=        -0.014738
 Sum of electronic and zero-point Energies=           -152.069889
 Sum of electronic and thermal Energies=              -152.065636
 Sum of electronic and thermal Enthalpies=            -152.064692
 Sum of electronic and thermal Free Energies=         -152.095772

                     E (Thermal)             CV                S
                      KCal/Mol        Cal/Mol-Kelvin    Cal/Mol-Kelvin
 Total                    9.663             11.242             65.415
 Electronic               0.000              0.000              0.000
 Translational            0.889              2.981             37.530
 Rotational               0.889              2.981             22.190
 Vibrational              7.885              5.281              5.695
 Vibration     1          0.606              1.944              3.322
 Vibration     2          0.652              1.797              1.886

 Optimization completed.
    -- Stationary point found.
 Normal termination of Gaussian 09 at Tue Jul  5 23:52:50 2016.
