 Gaussian 09, Revision E.01,
 Gaussian 09:  EM64L-G09RevE.01 30-Nov-2015

 -----------------------------------------
 #p b3lyp/6-311+G(3df) freq symmetry=Loose
 -----------------------------------------

 ---------
 b3lyp opt
 ---------
 Symbolic Z-matrix:
 Charge =  2 Multiplicity = 1

                         Standard orientation:
 ---------------------------------------------------------------------
 Center     Atomic      Atomic             Coordinates (Angstroms)
 Number     Number       Type             X           Y           Z
 ---------------------------------------------------------------------
      1          6           0        0.514063    0.514063    0.514063
      2          6           0       -0.514063   -0.514063    0.514063
      3          6           0       -0.514063    0.514063   -0.514063
      4          6           0        0.514063   -0.514063   -0.514063
 ---------------------------------------------------------------------

 SCF Done:  E(RB3LYP) =  -150.737430926     A.U. after    8 cycles

 The electronic state is 1-A1.
 Alpha  occ. eigenvalues --  -10.95269 -10.95204 -10.95204 -10.95204  -1.70138
 Alpha  occ. eigenvalues --   -1.19513  -1.19513  -1.19513  -0.98109  -0.88954
 Alpha  occ. eigenvalues --   -0.88954
 Alpha virt. eigenvalues --   -0.81339  -0.81339  -0.81339  -0.44521  -0.44521
 Alpha virt. eigenvalues --   -0.44521  -0.36367  -0.36367  -0.36367  -0.31031
 Alpha virt. eigenvalues --   -0.23395  -0.23395  -0.22989  -0.22989  -0.22989

 Mulliken charges:
               1
     1  C    0.500000
     2  C    0.500000
     3  C    0.500000
     4  C    0.500000
 Sum of Mulliken charges =   2.00000

 Dipole moment (field-independent basis, Debye):
    X=              0.0000    Y=             -0.0000    Z=             -0.0000  Tot=              0.0000
 Quadrupole moment (field-independent basis, Debye-Ang):
   XX=            -11.7225   YY=            -11.7225   ZZ=            -11.7225
   XY=              0.0000   XZ=              0.0000   YZ=             -0.0000

  Exact polarizability:  26.641  -0.000  26.641  -0.000  -0.000  26.641
 Approx polarizability:  58.984   0.000  58.984   0.000   0.000  58.984

                      1                      2                      3
                     T2                     T2                     T2
 Frequencies --    949.9357               949.9357               949.9357
 Red. masses --     12.0000                12.0000                12.0000
 Frc consts  --      6.3800                 6.3800                 6.3800
 IR Inten    --     27.6193                27.6193                27.6193

                      4                      5                      6
                      E                      E                     A1
 Frequencies --   1058.1921              1058.1921              1397.7832
 Red. masses --     12.0000                12.0000                12.0000
 Frc consts  --      7.9170                 7.9170                13.8137
 IR Inten    --      0.0000                 0.0000                 0.0000

 - Thermochemistry -
 -------------------
 Temperature   298.150 Kelvin.  Pressure   1.00000 Atm.
 Atom     1 has atomic number  6 and mass  12.00000

 Molecular mass:    48.00000 amu.
 Principal axes and moments of inertia in atomic units:
                           1         2         3
     Eigenvalues --    90.59438  90.59438  90.59438
           X            0.99338   0.06647  -0.09364
           Y           -0.07661   0.99106  -0.10925
           Z            0.08554   0.11570   0.98959
 This molecule is a spherical top.
 Rotational symmetry number 12.
 Rotational temperatures (Kelvin)      0.95606     0.95606     0.95606
 Rotational constants (GHZ):          19.92112    19.92112    19.92112
 Zero-point vibrational energy      38065.0 (Joules/Mol)
                                    9.09776 (Kcal/Mol)
 Vibrational temperatures:   1366.74  1366.74  1366.74  1522.50  1522.50
          (Kelvin)           2011.10

 Zero-point correction=                           0.014498 (Hartree/Particle)
 Thermal correction to Energy=                    0.017531
 Thermal correction to Enthalpy=                  0.018475
 Thermal correction to Gibbs Free Energy=        -0.007342
 Sum of electronic and zero-point Energies=           -150.722933
 Sum of electronic and thermal Energies=              -150.719900
 Sum of electronic and thermal Enthalpies=            -150.718956
 Sum of electronic and thermal Free Energies=         -150.744773

                     E (Thermal)             CV                S
                      KCal/Mol        Cal/Mol-Kelvin    Cal/Mol-Kelvin
 Total                   11.001              8.010             54.337
 Electronic               0.000              0.000              0.000
 Translational            0.889              2.981             37.530
 Rotational               0.889              2.981             16.298
 Vibrational              9.223              2.048              0.509

 Optimization completed.
    -- Stationary point found.
 Normal termination of Gaussian 09 at Sun Oct 23 02:03:37 2016.
