 Gaussian 09, Revision C.01,
 Gaussian 09:  AM64L-G09RevC.01 23-Sep-2011

 ---------------------------------------------
 #p b3lyp/6-311++G(3df,2p) freq symmetry=Loose
 ---------------------------------------------

 (Enter /home/nestor/.gaussian09/l101.exe)
 ---------
 b3lyp opt
 ---------
 Charge =  1 Multiplicity = 4

                         Standard orientation:
 ---------------------------------------------------------------------
 Center     Atomic      Atomic             Coordinates (Angstroms)
 Number     Number       Type             X           Y           Z
 ---------------------------------------------------------------------
      1          6           0        0.000000    0.757834    0.000000
      2          6           0        0.000000    0.000000    1.154637
      3          6           0        0.000000   -0.757834    0.000000
      4          6           0        0.000000    0.000000   -1.154637
 ---------------------------------------------------------------------

 SCF Done:  E(UB3LYP) =  -151.706575962     A.U. after   11 cycles

 The electronic state is 4-B3U.
 Alpha  occ. eigenvalues --  -10.61293 -10.61268 -10.59431 -10.59420  -1.35043
 Alpha  occ. eigenvalues --   -1.06352  -0.88315  -0.77343  -0.75012  -0.74990
 Alpha  occ. eigenvalues --   -0.64067  -0.61673  -0.55342
 Alpha virt. eigenvalues --   -0.38540  -0.34383  -0.26431  -0.15003  -0.13613
 Alpha virt. eigenvalues --   -0.12205  -0.11098  -0.09481  -0.08391  -0.06239
 Alpha virt. eigenvalues --   -0.05912  -0.05135  -0.02821  -0.01664   0.00322

  Beta  occ. eigenvalues --  -10.60778 -10.60756 -10.56638 -10.56633  -1.33338
  Beta  occ. eigenvalues --   -1.01606  -0.85634  -0.73231  -0.72910  -0.65132
  Beta virt. eigenvalues --   -0.47075  -0.44426  -0.39243  -0.37873  -0.29499
  Beta virt. eigenvalues --   -0.17943  -0.14431  -0.12990  -0.11343  -0.09764
  Beta virt. eigenvalues --   -0.09114  -0.08011  -0.05704  -0.05148  -0.05071

 Mulliken atomic charges:
              1
     1  C    0.468662
     2  C    0.031338
     3  C    0.468662
     4  C    0.031338
 Sum of Mulliken atomic charges =   1.00000

 Dipole moment (field-independent basis, Debye):
    X=              0.0000    Y=              0.0000    Z=              0.0000  Tot=              0.0000
 Quadrupole moment (field-independent basis, Debye-Ang):
   XX=            -18.7591   YY=            -17.2946   ZZ=            -15.0895
   XY=              0.0000   XZ=              0.0000   YZ=              0.0000

  Exact polarizability:  18.370   0.000  28.651   0.000   0.000  39.942
 Approx polarizability:  27.003   0.000  60.943   0.000   0.000  81.115

                     1                      2                      3
                    B3U                    B3G                    B2U
 Frequencies --   586.2300               770.8148               837.9017
 Red. masses --    12.0000                12.0000                12.0000
 Frc consts  --     2.4298                 4.2008                 4.9638
 IR Inten    --     0.7837                 0.0000                27.5876

                     4                      5                      6
                    AG                     B1U                    AG
 Frequencies --   888.6613              1386.5480              1452.4187
 Red. masses --    12.0000                12.0000                12.0000
 Frc consts  --     5.5835                13.5926                14.9147
 IR Inten    --     0.0000                51.5341                 0.0000

 - Thermochemistry -
 -------------------
 Temperature   298.150 Kelvin.  Pressure   1.00000 Atm.
 Atom     1 has atomic number  6 and mass  12.00000

 Molecular mass:    48.00000 amu.
 Principal axes and moments of inertia in atomic units:
                           1         2         3
     Eigenvalues --    49.22170 114.26160 163.48330
           X            0.00000   0.00000   1.00000
           Y            0.00000   1.00000   0.00000
           Z            1.00000   0.00000   0.00000
 This molecule is an asymmetric top.
 Rotational symmetry number  4.
 Rotational temperatures (Kelvin)      1.75967     0.75803     0.52980
 Rotational constants (GHZ):          36.66556    15.79482    11.03930
 Zero-point vibrational energy      35424.9 (Joules/Mol)
                                    8.46675 (Kcal/Mol)
 Warning -- explicit consideration of   1 degrees of freedom as
           vibrations may cause significant error
 Vibrational temperatures:    843.45  1109.03  1205.55  1278.58  1994.93
          (Kelvin)           2089.70

 Zero-point correction=                           0.013493 (Hartree/Particle)
 Thermal correction to Energy=                    0.016718
 Thermal correction to Enthalpy=                  0.017663
 Thermal correction to Gibbs Free Energy=        -0.010865
 Sum of electronic and zero-point Energies=           -151.693083
 Sum of electronic and thermal Energies=              -151.689857
 Sum of electronic and thermal Enthalpies=            -151.688913
 Sum of electronic and thermal Free Energies=         -151.717441

                     E (Thermal)             CV                S
                      KCal/Mol        Cal/Mol-Kelvin    Cal/Mol-Kelvin
 Total                   10.491              9.028             60.041
 Electronic               0.000              0.000              2.755
 Translational            0.889              2.981             37.530
 Rotational               0.889              2.981             18.692
 Vibrational              8.714              3.066              1.064
 Vibration     1          0.943              1.061              0.474

 Optimization completed.
    -- Stationary point found.
 Normal termination of Gaussian 09 at Wed Jul  6 00:20:43 2016.
