 Gaussian 09, Revision E.01,
 Gaussian 09:  EM64L-G09RevE.01 30-Nov-2015

 ---------------------------------------------
 #p b3lyp/6-311++G(3df,2p) freq symmetry=Loose
 ---------------------------------------------

 ---------
 b3lyp opt
 ---------
 Symbolic Z-matrix:
 Charge =  0 Multiplicity = 3

                         Standard orientation:
 ---------------------------------------------------------------------
 Center     Atomic      Atomic             Coordinates (Angstroms)
 Number     Number       Type             X           Y           Z
 ---------------------------------------------------------------------
      1          6           0        0.000000    0.000000    1.947612
      2          6           0        0.000000    0.000000    0.642976
      3          6           0        0.000000    0.000000   -0.642976
      4          6           0        0.000000    0.000000   -1.947612
 ---------------------------------------------------------------------

 SCF Done:  E(UB3LYP) =  -152.141880559     A.U. after   12 cycles

 The electronic state is 3-SGG.
 Alpha  occ. eigenvalues --  -10.28908 -10.28903 -10.27452 -10.27334  -0.88995
 Alpha  occ. eigenvalues --   -0.81953  -0.70494  -0.43697  -0.43697  -0.36508
 Alpha  occ. eigenvalues --   -0.35307  -0.32577  -0.32577
 Alpha virt. eigenvalues --   -0.11166  -0.11166   0.00279   0.04201   0.04595
 Alpha virt. eigenvalues --    0.04595   0.05745   0.05745   0.06056   0.09647
 Alpha virt. eigenvalues --    0.10978   0.10978   0.13095   0.13095   0.16000

  Beta  occ. eigenvalues --  -10.27772 -10.27767 -10.27133 -10.27007  -0.86845
  Beta  occ. eigenvalues --   -0.77339  -0.68367  -0.40174  -0.40174  -0.34216
  Beta  occ. eigenvalues --   -0.33295
  Beta virt. eigenvalues --   -0.22057  -0.22057  -0.06509  -0.06509   0.00504
  Beta virt. eigenvalues --    0.04574   0.05135   0.05135   0.06093   0.06663
  Beta virt. eigenvalues --    0.06663   0.09975   0.13198   0.13198   0.13821

 Mulliken charges and spin densities:
               1          2
     1  C   -0.514270   0.591827
     2  C    0.514270   0.408173
     3  C    0.514270   0.408173
     4  C   -0.514270   0.591827
 Sum of Mulliken charges =  -0.00000   2.00000

 Dipole moment (field-independent basis, Debye):
    X=             -0.0000    Y=             -0.0000    Z=             -0.0000  Tot=              0.0000
 Quadrupole moment (field-independent basis, Debye-Ang):
   XX=            -22.2114   YY=            -22.2114   ZZ=            -33.5993
   XY=             -0.0000   XZ=              0.0000   YZ=              0.0000

  Exact polarizability:  31.925  -0.000  31.925   0.000   0.000  92.056
 Approx polarizability:  43.685  -0.000  43.685  -0.000  -0.000 194.209

                      1                      2                      3
                     PIU                    PIU                    PIG
 Frequencies --    176.1544               176.1544               387.9987
 Red. masses --     12.0000                12.0000                12.0000
 Frc consts  --      0.2194                 0.2194                 1.0644
 IR Inten    --     26.3990                26.3991                 0.0000

                      4                      5                      6
                     PIG                    SGG                    SGU
 Frequencies --    387.9987               941.4681              1596.9770
 Red. masses --     12.0000                12.0000                12.0000
 Frc consts  --      1.0644                 6.2668                18.0314
 IR Inten    --      0.0000                 0.0000               321.3424

                      7
                     SGG
 Frequencies --   2123.9943
 Red. masses --     12.0000
 Frc consts  --     31.8961
 IR Inten    --      0.0000

 - Thermochemistry -
 -------------------
 Temperature   298.150 Kelvin.  Pressure   1.00000 Atm.
 Atom     1 has atomic number  6 and mass  12.00000

 Molecular mass:    48.00000 amu.
 Principal axes and moments of inertia in atomic units:
                           1         2         3
     Eigenvalues --     0.00000 360.52991 360.52991
           X           -0.00000   0.70711   0.70711
           Y           -0.00000   0.70711  -0.70711
           Z            1.00000   0.00000   0.00000
 This molecule is a prolate symmetric top.
 Rotational symmetry number  2.
 Rotational temperature (Kelvin)      0.24024
 Rotational constant (GHZ):           5.005802
 Zero-point vibrational energy      34636.4 (Joules/Mol)
                                    8.27829 (Kcal/Mol)
 Warning -- explicit consideration of   4 degrees of freedom as
           vibrations may cause significant error
 Vibrational temperatures:    253.45   253.45   558.24   558.24  1354.56
          (Kelvin)           2297.69  3055.95

 Zero-point correction=                           0.013192 (Hartree/Particle)
 Thermal correction to Energy=                    0.017443
 Thermal correction to Enthalpy=                  0.018387
 Thermal correction to Gibbs Free Energy=        -0.010767
 Sum of electronic and zero-point Energies=           -152.128688
 Sum of electronic and thermal Energies=              -152.124438
 Sum of electronic and thermal Enthalpies=            -152.123493
 Sum of electronic and thermal Free Energies=         -152.152647

                     E (Thermal)             CV                S
                      KCal/Mol        Cal/Mol-Kelvin    Cal/Mol-Kelvin
 Total                   10.946             12.210             61.360
 Electronic               0.000              0.000              2.183
 Translational            0.889              2.981             37.530
 Rotational               0.592              1.987             14.766
 Vibrational              9.464              7.241              6.880
 Vibration     1          0.628              1.872              2.369
 Vibration     2          0.628              1.872              2.369
 Vibration     3          0.756              1.496              1.008
 Vibration     4          0.756              1.496              1.008

 Optimization completed.
    -- Stationary point found.
 Normal termination of Gaussian 09 at Sun Jun 19 00:35:32 2016.
