 Gaussian 09, Revision C.01,
 Gaussian 09:  AM64L-G09RevC.01 23-Sep-2011

 ---------------------------------------------
 #p b3lyp/6-311++G(3df,2p) freq symmetry=Loose
 ---------------------------------------------

 (Enter /home/nestor/.gaussian09/l101.exe)
 ---------
 b3lyp opt
 ---------
 Charge =  1 Multiplicity = 4

                         Standard orientation:
 ---------------------------------------------------------------------
 Center     Atomic      Atomic             Coordinates (Angstroms)
 Number     Number       Type             X           Y           Z
 ---------------------------------------------------------------------
      1          6           0        0.000000    0.655843   -0.981208
      2          6           0        0.000000    0.000000    1.669914
      3          6           0        0.000000   -0.655843   -0.981208
      4          6           0        0.000000    0.000000    0.292503
 ---------------------------------------------------------------------

 SCF Done:  E(UB3LYP) =  -151.685413119     A.U. after   16 cycles

 The electronic state is 4-A2.
 Alpha  occ. eigenvalues --  -10.61064 -10.60960 -10.57577 -10.57299  -1.28328
 Alpha  occ. eigenvalues --   -1.06442  -0.84020  -0.80519  -0.73528  -0.67760
 Alpha  occ. eigenvalues --   -0.61448  -0.60329  -0.56512
 Alpha virt. eigenvalues --   -0.40301  -0.33963  -0.28267  -0.16272  -0.12820
 Alpha virt. eigenvalues --   -0.12529  -0.11569  -0.09860  -0.09574  -0.08083
 Alpha virt. eigenvalues --   -0.06001  -0.04811  -0.04809  -0.04054  -0.01535

  Beta  occ. eigenvalues --  -10.59083 -10.58996 -10.56761 -10.56288  -1.25908
  Beta  occ. eigenvalues --   -1.01397  -0.77008  -0.76619  -0.69678  -0.57748
  Beta virt. eigenvalues --   -0.48574  -0.47071  -0.43720  -0.35039  -0.28693
  Beta virt. eigenvalues --   -0.22768  -0.14785  -0.11892  -0.11373  -0.10999
  Beta virt. eigenvalues --   -0.08305  -0.07724  -0.07339  -0.05406  -0.04214

 Mulliken atomic charges:
              1
     1  C    0.248574
     2  C   -0.084236
     3  C    0.248574
     4  C    0.587088
 Sum of Mulliken atomic charges =   1.00000

 Dipole moment (field-independent basis, Debye):
    X=              0.0000    Y=              0.0000    Z=             -1.5119  Tot=              1.5119
 Quadrupole moment (field-independent basis, Debye-Ang):
   XX=            -19.2638   YY=            -16.6264   ZZ=            -15.6868
   XY=              0.0000   XZ=              0.0000   YZ=              0.0000

  Exact polarizability:  24.168   0.000  39.370   0.000   0.000  60.398
 Approx polarizability:  32.922   0.000  59.814   0.000   0.000 132.697

                     1                      2                      3
                    B2                     B1                     A1
 Frequencies --   227.5554               333.6470               840.1552
 Red. masses --    12.0000                12.0000                12.0000
 Frc consts  --     0.3661                 0.7871                 4.9906
 IR Inten    --    20.9552                 5.9925                 0.0231

                     4                      5                      6
                    B2                     A1                     A1
 Frequencies --   851.0374              1327.8719              1690.6821
 Red. masses --    12.0000                12.0000                12.0000
 Frc consts  --     5.1207                12.4665                20.2095
 IR Inten    --    15.2899               142.3626                49.5554

 - Thermochemistry -
 -------------------
 Temperature   298.150 Kelvin.  Pressure   1.00000 Atm.
 Atom     1 has atomic number  6 and mass  12.00000

 Molecular mass:    48.00000 amu.
 Principal axes and moments of inertia in atomic units:
                           1         2         3
     Eigenvalues --    36.86452 205.68094 242.54546
           X            0.00000   0.00000   1.00000
           Y            0.00000   1.00000   0.00000
           Z            1.00000   0.00000   0.00000
 This molecule is an asymmetric top.
 Rotational symmetry number  2.
 Rotational temperatures (Kelvin)      2.34952     0.42111     0.35710
 Rotational constants (GHZ):          48.95605     8.77447     7.44084
 Zero-point vibrational energy      31527.3 (Joules/Mol)
                                    7.53520 (Kcal/Mol)
 Warning -- explicit consideration of   2 degrees of freedom as
           vibrations may cause significant error
 Vibrational temperatures:    327.40   480.04  1208.79  1224.45  1910.51
          (Kelvin)           2432.51

 Zero-point correction=                           0.012008 (Hartree/Particle)
 Thermal correction to Energy=                    0.015884
 Thermal correction to Enthalpy=                  0.016828
 Thermal correction to Gibbs Free Energy=        -0.013846
 Sum of electronic and zero-point Energies=           -151.673405
 Sum of electronic and thermal Energies=              -151.669529
 Sum of electronic and thermal Enthalpies=            -151.668585
 Sum of electronic and thermal Free Energies=         -151.699259

                     E (Thermal)             CV                S
                      KCal/Mol        Cal/Mol-Kelvin    Cal/Mol-Kelvin
 Total                    9.967             10.699             64.560
 Electronic               0.000              0.000              2.755
 Translational            0.889              2.981             37.530
 Rotational               0.889              2.981             20.758
 Vibrational              8.190              4.737              3.517
 Vibration     1          0.651              1.799              1.898
 Vibration     2          0.715              1.608              1.242

 Optimization completed.
    -- Stationary point found.
 Normal termination of Gaussian 09 at Wed Jul  6 00:30:21 2016.
