 Gaussian 09, Revision E.01,
 Gaussian 09:  EM64L-G09RevE.01 30-Nov-2015

 -----------------------------------------
 #p b3lyp/6-311+G(3df) freq symmetry=Loose
 -----------------------------------------

 ---------
 b3lyp opt
 ---------
 Symbolic Z-matrix:
 Charge =  2 Multiplicity = 3

                         Standard orientation:
 ---------------------------------------------------------------------
 Center     Atomic      Atomic             Coordinates (Angstroms)
 Number     Number       Type             X           Y           Z
 ---------------------------------------------------------------------
      1          6           0        0.000000    0.676000   -0.985000
      2          6           0        0.000000    0.000000    0.250000
      3          6           0        0.000000    0.000000    1.720000
      4          6           0       -0.000000   -0.676000   -0.985000
 ---------------------------------------------------------------------

 SCF Done:  E(UB3LYP) =  -151.023109313     A.U. after   15 cycles

 The electronic state is 3-B2.
 Alpha  occ. eigenvalues --  -10.96499 -10.91545 -10.91468 -10.86976  -1.56744
 Alpha  occ. eigenvalues --   -1.33955  -1.12139  -1.07171  -0.99519  -0.94944
 Alpha  occ. eigenvalues --   -0.89894  -0.88781
 Alpha virt. eigenvalues --   -0.76022  -0.71420  -0.60756  -0.55727  -0.41340
 Alpha virt. eigenvalues --   -0.38021  -0.33719  -0.29703  -0.29022  -0.28280
 Alpha virt. eigenvalues --   -0.25722  -0.22124  -0.21782  -0.21547  -0.21527

  Beta  occ. eigenvalues --  -10.96148 -10.89536 -10.89473 -10.86844  -1.55018
  Beta  occ. eigenvalues --   -1.32275  -1.05938  -1.04061  -0.98289  -0.89818
  Beta virt. eigenvalues --   -0.75131  -0.74659  -0.74089  -0.65314  -0.56162
  Beta virt. eigenvalues --   -0.55092  -0.39737  -0.33164  -0.32915  -0.28977
  Beta virt. eigenvalues --   -0.28948  -0.27802  -0.25198  -0.21708  -0.21607

 Mulliken charges and spin densities:
               1          2
     1  C    0.472624   0.933896
     2  C    0.526337  -0.082857
     3  C    0.528416   0.215064
     4  C    0.472624   0.933896
 Sum of Mulliken charges =   2.00000   2.00000

 Dipole moment (field-independent basis, Debye):
    X=             -0.0000    Y=             -0.0000    Z=              0.3401  Tot=              0.3401
 Quadrupole moment (field-independent basis, Debye-Ang):
   XX=            -15.8135   YY=            -13.1306   ZZ=             -3.2670
   XY=             -0.0000   XZ=              0.0000   YZ=              0.0000

  Exact polarizability:  19.246  -0.000  27.095   0.000   0.000  48.406
 Approx polarizability:  29.889   0.000  47.356   0.000   0.000 111.728

                      1                      2                      3
                     B2                     B1                     A1
 Frequencies --    218.7185               263.7615               773.2757
 Red. masses --     12.0000                12.0000                12.0000
 Frc consts  --      0.3382                 0.4919                 4.2277
 IR Inten    --      2.4700                 1.8024                70.9151

                      4                      5                      6
                     B2                     A1                     A1
 Frequencies --    941.0620              1334.8035              1582.3192
 Red. masses --     12.0000                12.0000                12.0000
 Frc consts  --      6.2613                12.5970                17.7019
 IR Inten    --     57.5878               284.7207               282.9645

 - Thermochemistry -
 -------------------
 Temperature   298.150 Kelvin.  Pressure   1.00000 Atm.
 Atom     1 has atomic number  6 and mass  12.00000

 Molecular mass:    48.00000 amu.
 Principal axes and moments of inertia in atomic units:
                           1         2         3
     Eigenvalues --    39.16538 212.60763 251.77301
           X            0.00000   0.00000   1.00000
           Y            0.00000   1.00000   0.00000
           Z            1.00000   0.00000   0.00000
 This molecule is an asymmetric top.
 Rotational symmetry number  2.
 Rotational temperatures (Kelvin)      2.21149     0.40739     0.34402
 Rotational constants (GHZ):          46.08001     8.48860     7.16813
 Zero-point vibrational energy      30588.2 (Joules/Mol)
                                    7.31074 (Kcal/Mol)
 Warning -- explicit consideration of   2 degrees of freedom as
           vibrations may cause significant error
 Vibrational temperatures:    314.69   379.49  1112.57  1353.98  1920.48
          (Kelvin)           2276.60

 Zero-point correction=                           0.011650 (Hartree/Particle)
 Thermal correction to Energy=                    0.015628
 Thermal correction to Enthalpy=                  0.016572
 Thermal correction to Gibbs Free Energy=        -0.014116
 Sum of electronic and zero-point Energies=           -151.011459
 Sum of electronic and thermal Energies=              -151.007481
 Sum of electronic and thermal Enthalpies=            -151.006537
 Sum of electronic and thermal Free Energies=         -151.037225

                     E (Thermal)             CV                S
                      KCal/Mol        Cal/Mol-Kelvin    Cal/Mol-Kelvin
 Total                    9.807             10.844             64.589
 Electronic               0.000              0.000              2.183
 Translational            0.889              2.981             37.530
 Rotational               0.889              2.981             20.888
 Vibrational              8.029              4.882              3.987
 Vibration     1          0.646              1.813              1.970
 Vibration     2          0.670              1.739              1.637

 Normal termination of Gaussian 09 at Mon Nov 14 15:06:56 2016.
