 Gaussian 09, Revision C.01,
 Gaussian 09:  AM64L-G09RevC.01 23-Sep-2011

 ---------------------------------------------
 #p b3lyp/6-311++G(3df,2p) freq symmetry=Loose
 ---------------------------------------------

 (Enter /home/nestor/.gaussian09/l101.exe)
 ---------
 b3lyp opt
 ---------
 Charge =  0 Multiplicity = 3

                         Standard orientation:
 ---------------------------------------------------------------------
 Center     Atomic      Atomic             Coordinates (Angstroms)
 Number     Number       Type             X           Y           Z
 ---------------------------------------------------------------------
      1          6           0        0.000000    0.785096    0.000000
      2          6           0        0.000000    0.000000   -1.190900
      3          6           0        0.000000   -0.785096    0.000000
      4          6           0        0.000000    0.000000    1.190900
 ---------------------------------------------------------------------

 SCF Done:  E(UB3LYP) =  -152.084399348     A.U. after   10 cycles

 The electronic state is 3-B3U.
 Alpha  occ. eigenvalues --  -10.30882 -10.30864 -10.28416 -10.28409  -1.03396
 Alpha  occ. eigenvalues --   -0.75820  -0.58573  -0.47233  -0.44862  -0.44687
 Alpha  occ. eigenvalues --   -0.33961  -0.32159  -0.26645
 Alpha virt. eigenvalues --   -0.11284  -0.06717   0.00014   0.02650   0.03392
 Alpha virt. eigenvalues --    0.04468   0.04835   0.07358   0.07891   0.08147
 Alpha virt. eigenvalues --    0.09238   0.10263   0.12812   0.13513   0.14714

  Beta  occ. eigenvalues --  -10.30960 -10.30943 -10.26655 -10.26652  -1.01691
  Beta  occ. eigenvalues --   -0.71762  -0.58143  -0.44082  -0.43347  -0.38721
  Beta  occ. eigenvalues --   -0.28664
  Beta virt. eigenvalues --   -0.20786  -0.13069  -0.11866  -0.05587   0.02936
  Beta virt. eigenvalues --    0.03486   0.03594   0.05142   0.07410   0.07509
  Beta virt. eigenvalues --    0.08028   0.08235   0.10027   0.10159   0.12910

 Mulliken atomic charges:
              1
     1  C    0.242436
     2  C   -0.242436
     3  C    0.242436
     4  C   -0.242436
 Sum of Mulliken atomic charges =   0.00000

 Dipole moment (field-independent basis, Debye):
    X=              0.0000    Y=              0.0000    Z=              0.0000  Tot=              0.0000
 Quadrupole moment (field-independent basis, Debye-Ang):
   XX=            -22.1406   YY=            -23.6938   ZZ=            -25.7794
   XY=              0.0000   XZ=              0.0000   YZ=              0.0000

  Exact polarizability:  25.863   0.000  40.545   0.000   0.000 112.119
 Approx polarizability:  39.181   0.000  91.000   0.000   0.000 221.881

                     1                      2                      3
                    B3G                    B3U                    B2U
 Frequencies --   476.5745               594.5766               621.0611
 Red. masses --    12.0000                12.0000                12.0000
 Frc consts  --     1.6058                 2.4995                 2.7271
 IR Inten    --     0.0000                 0.3579                82.5829

                     4                      5                      6
                    B1U                    AG                     AG
 Frequencies --   720.1274               890.4549              1286.9647
 Red. masses --    12.0000                12.0000                12.0000
 Frc consts  --     3.6665                 5.6060                11.7102
 IR Inten    --  1553.0073                 0.0000                 0.0000

 - Thermochemistry -
 -------------------
 Temperature   298.150 Kelvin.  Pressure   1.00000 Atm.
 Atom     1 has atomic number  6 and mass  12.00000

 Molecular mass:    48.00000 amu.
 Principal axes and moments of inertia in atomic units:
                           1         2         3
     Eigenvalues --    52.82687 121.55126 174.37813
           X            0.00000   0.00000   1.00000
           Y            0.00000   1.00000   0.00000
           Z            1.00000   0.00000   0.00000
 This molecule is an asymmetric top.
 Rotational symmetry number  4.
 Rotational temperatures (Kelvin)      1.63958     0.71257     0.49670
 Rotational constants (GHZ):          34.16332    14.84757    10.34958
 Zero-point vibrational energy      27452.9 (Joules/Mol)
                                    6.56139 (Kcal/Mol)
 Warning -- explicit consideration of   2 degrees of freedom as
           vibrations may cause significant error
 Vibrational temperatures:    685.68   855.46   893.57  1036.10  1281.16
          (Kelvin)           1851.65

 Zero-point correction=                           0.010456 (Hartree/Particle)
 Thermal correction to Energy=                    0.014015
 Thermal correction to Enthalpy=                  0.014959
 Thermal correction to Gibbs Free Energy=        -0.013858
 Sum of electronic and zero-point Energies=           -152.073943
 Sum of electronic and thermal Energies=              -152.070384
 Sum of electronic and thermal Enthalpies=            -152.069440
 Sum of electronic and thermal Free Energies=         -152.098257

                     E (Thermal)             CV                S
                      KCal/Mol        Cal/Mol-Kelvin    Cal/Mol-Kelvin
 Total                    8.795             10.753             60.651
 Electronic               0.000              0.000              2.183
 Translational            0.889              2.981             37.530
 Rotational               0.889              2.981             18.888
 Vibrational              7.017              4.792              2.050
 Vibration     1          0.833              1.302              0.719
 Vibration     2          0.952              1.043              0.459

 Optimization completed.
    -- Stationary point found.
 Normal termination of Gaussian 09 at Wed Jul  6 00:01:42 2016.
