 Gaussian 09, Revision E.01,
 Gaussian 09:  EM64L-G09RevE.01 30-Nov-2015

 -----------------------------------------
 #p b3lyp/6-311+G(3df) freq symmetry=Loose
 -----------------------------------------

 ---------
 b3lyp opt
 ---------
 Symbolic Z-matrix:
 Charge =  2 Multiplicity = 1

                         Standard orientation:
 ---------------------------------------------------------------------
 Center     Atomic      Atomic             Coordinates (Angstroms)
 Number     Number       Type             X           Y           Z
 ---------------------------------------------------------------------
      1          6           0       -0.001060    1.188222   -0.000000
      2          6           0       -0.001060    0.000230    0.705445
      3          6           0        0.003180   -1.188704    0.000000
      4          6           0       -0.001060    0.000230   -0.705445
 ---------------------------------------------------------------------

 SCF Done:  E(RB3LYP) =  -150.975146758     A.U. after   15 cycles

 The electronic state is 1-A'.
 Alpha  occ. eigenvalues --  -10.97114 -10.97068 -10.94719 -10.94705  -1.70209
 Alpha  occ. eigenvalues --   -1.40298  -1.18468  -1.08949  -1.06032  -1.01644
 Alpha  occ. eigenvalues --   -0.87479
 Alpha virt. eigenvalues --   -0.83757  -0.75633  -0.69096  -0.61324  -0.53788
 Alpha virt. eigenvalues --   -0.37772  -0.34138  -0.31243  -0.30052  -0.29614
 Alpha virt. eigenvalues --   -0.29295  -0.26092  -0.22379  -0.22066  -0.21933

 Mulliken charges:
               1
     1  C    0.091094
     2  C    0.908873
     3  C    0.091160
     4  C    0.908873
 Sum of Mulliken charges =   2.00000

 Dipole moment (field-independent basis, Debye):
    X=             -0.0088    Y=              0.0078    Z=             -0.0000  Tot=              0.0118
 Quadrupole moment (field-independent basis, Debye-Ang):
   XX=            -15.2303   YY=            -11.1348   ZZ=            -11.9087
   XY=             -0.0073   XZ=             -0.0000   YZ=             -0.0000

  Exact polarizability:  19.345  -0.069  58.045  -0.000   0.000  19.937
 Approx polarizability:  28.874  -0.730 438.575  -0.000   0.000  42.320

                      1                      2                      3
                     A'                     A'                     A"
 Frequencies --    149.7497               607.0243               911.1274
 Red. masses --     12.0000                12.0000                12.0000
 Frc consts  --      0.1585                 2.6052                 5.8693
 IR Inten    --     60.9911               975.6053                14.5166

                      4                      5                      6
                     A'                     A"                     A'
 Frequencies --    992.9184              1238.0017              1553.0244
 Red. masses --     12.0000                12.0000                12.0000
 Frc consts  --      6.9704                10.8361                17.0525
 IR Inten    --      0.0302                 0.0017                 0.0019

 - Thermochemistry -
 -------------------
 Temperature   298.150 Kelvin.  Pressure   1.00000 Atm.
 Atom     1 has atomic number  6 and mass  12.00000

 Molecular mass:    48.00000 amu.
 Principal axes and moments of inertia in atomic units:
                           1         2         3
     Eigenvalues --    42.65183 121.05494 163.70638
           X           -0.00178   0.00000   1.00000
           Y            1.00000   0.00000   0.00178
           Z           -0.00000   1.00000  -0.00000
 This molecule is an asymmetric top.
 Rotational symmetry number  1.
 Rotational temperatures (Kelvin)      2.03072     0.71549     0.52908
 Rotational constants (GHZ):          42.31334    14.90845    11.02426
 Zero-point vibrational energy      32609.3 (Joules/Mol)
                                    7.79380 (Kcal/Mol)
 Warning -- explicit consideration of   2 degrees of freedom as
           vibrations may cause significant error
 Vibrational temperatures:    215.46   873.37  1310.91  1428.59  1781.21
          (Kelvin)           2234.45

 Zero-point correction=                           0.012420 (Hartree/Particle)
 Thermal correction to Energy=                    0.016161
 Thermal correction to Enthalpy=                  0.017105
 Thermal correction to Gibbs Free Energy=        -0.012487
 Sum of electronic and zero-point Energies=           -150.962727
 Sum of electronic and thermal Energies=              -150.958986
 Sum of electronic and thermal Enthalpies=            -150.958042
 Sum of electronic and thermal Free Energies=         -150.987634

                     E (Thermal)             CV                S
                      KCal/Mol        Cal/Mol-Kelvin    Cal/Mol-Kelvin
 Total                   10.141              9.995             62.281
 Electronic               0.000              0.000              0.000
 Translational            0.889              2.981             37.530
 Rotational               0.889              2.981             21.363
 Vibrational              8.363              4.033              3.388
 Vibration     1          0.618              1.903              2.675
 Vibration     2          0.966              1.017              0.438

 Normal termination of Gaussian 09 at Thu Jun 16 17:35:47 2016.
