 Gaussian 09, Revision E.01,
 Gaussian 09:  EM64L-G09RevE.01 30-Nov-2015

 ---------------------------------------------
 #p b3lyp/6-311++G(3df,2p) freq symmetry=Loose
 ---------------------------------------------

 ---------
 b3lyp opt
 ---------
 Symbolic Z-matrix:
 Charge =  1 Multiplicity = 2

                         Standard orientation:
 ---------------------------------------------------------------------
 Center     Atomic      Atomic             Coordinates (Angstroms)
 Number     Number       Type             X           Y           Z
 ---------------------------------------------------------------------
      1          6           0        0.000000    0.000000    1.990369
      2          6           0        0.000000    0.000000    0.627228
      3          6           0        0.000000    0.000000   -0.627228
      4          6           0        0.000000    0.000000   -1.990369
 ---------------------------------------------------------------------

 SCF Done:  E(UB3LYP) =  -151.726920453     A.U. after   11 cycles

 Unable to determine electronic state:  an orbital has unidentified symmetry.
 Alpha  occ. eigenvalues --  -10.60228 -10.60224 -10.55194 -10.55042  -1.14925
 Alpha  occ. eigenvalues --   -1.07226  -0.97443  -0.68996  -0.67370  -0.62230
 Alpha  occ. eigenvalues --   -0.60980  -0.57669
 Alpha virt. eigenvalues --   -0.50337  -0.38478  -0.35967  -0.18130  -0.17738
 Alpha virt. eigenvalues --   -0.16949  -0.12609  -0.11172  -0.11133  -0.06974
 Alpha virt. eigenvalues --   -0.05857  -0.05648  -0.05073  -0.04109  -0.01123

  Beta  occ. eigenvalues --  -10.59574 -10.59571 -10.55083 -10.54926  -1.14004
  Beta  occ. eigenvalues --   -1.04848  -0.96254  -0.67177  -0.66013  -0.60938
  Beta  occ. eigenvalues --   -0.59846
  Beta virt. eigenvalues --   -0.49547  -0.47338  -0.35328  -0.33302  -0.17602
  Beta virt. eigenvalues --   -0.16640  -0.15257  -0.11998  -0.11140  -0.10758
  Beta virt. eigenvalues --   -0.06927  -0.05552  -0.05110  -0.04674  -0.03751

 Mulliken charges and spin densities:
               1          2
     1  C   -0.074795   0.317436
     2  C    0.574795   0.182564
     3  C    0.574795   0.182564
     4  C   -0.074795   0.317436
 Sum of Mulliken charges =   1.00000   1.00000

 Dipole moment (field-independent basis, Debye):
    X=              0.0000    Y=              0.0000    Z=             -0.0000  Tot=              0.0000
 Quadrupole moment (field-independent basis, Debye-Ang):
   XX=            -18.0804   YY=            -19.7008   ZZ=            -14.1207
   XY=             -0.0000   XZ=              0.0000   YZ=              0.0000

  Exact polarizability:  24.660  -0.000  25.281   0.000   0.000  77.742
 Approx polarizability:  37.910  -0.000  34.831  -0.000  -0.000 199.964

                      1                      2                      3
                     PIU                    PIU                    PIG
 Frequencies --    118.8641               143.6185               252.0041
 Red. masses --     12.0000                12.0000                12.0000
 Frc consts  --      0.0999                 0.1458                 0.4490
 IR Inten    --     14.9612                 8.6705                 0.0000

                      4                      5                      6
                     PIG                    SGG                    SGU
 Frequencies --    333.1988               891.0222              1325.1768
 Red. masses --     12.0000                12.0000                12.0000
 Frc consts  --      0.7849                 5.6132                12.4159
 IR Inten    --      0.0000                 0.0000               651.6362

                      7
                     SGG
 Frequencies --   2140.3362
 Red. masses --     12.0000
 Frc consts  --     32.3888
 IR Inten    --      0.0000

 - Thermochemistry -
 -------------------
 Temperature   298.150 Kelvin.  Pressure   1.00000 Atm.
 Atom     1 has atomic number  6 and mass  12.00000

 Molecular mass:    48.00000 amu.
 Principal axes and moments of inertia in atomic units:
                           1         2         3
     Eigenvalues --     0.00000 373.24630 373.24630
           X           -0.00000   1.00000  -0.00000
           Y            0.00000   0.00000   1.00000
           Z            1.00000   0.00000  -0.00000
 This molecule is a prolate symmetric top.
 Rotational symmetry number  2.
 Rotational temperature (Kelvin)      0.23206
 Rotational constant (GHZ):           4.835255
 Zero-point vibrational energy      31128.2 (Joules/Mol)
                                    7.43981 (Kcal/Mol)
 Warning -- explicit consideration of   4 degrees of freedom as
           vibrations may cause significant error
 Vibrational temperatures:    171.02   206.63   362.58   479.40  1281.98
          (Kelvin)           1906.63  3079.46

 Zero-point correction=                           0.011856 (Hartree/Particle)
 Thermal correction to Energy=                    0.016500
 Thermal correction to Enthalpy=                  0.017445
 Thermal correction to Gibbs Free Energy=        -0.012369
 Sum of electronic and zero-point Energies=           -151.715064
 Sum of electronic and thermal Energies=              -151.710420
 Sum of electronic and thermal Enthalpies=            -151.709476
 Sum of electronic and thermal Free Energies=         -151.739289

                     E (Thermal)             CV                S
                      KCal/Mol        Cal/Mol-Kelvin    Cal/Mol-Kelvin
 Total                   10.354             12.835             62.748
 Electronic               0.000              0.000              1.377
 Translational            0.889              2.981             37.530
 Rotational               0.592              1.987             14.835
 Vibrational              8.873              7.867              9.005
 Vibration     1          0.609              1.934              3.119
 Vibration     2          0.616              1.910              2.755
 Vibration     3          0.664              1.759              1.717
 Vibration     4          0.715              1.609              1.245

 Optimization completed.
    -- Stationary point found.
 Normal termination of Gaussian 09 at Sun Jun 19 00:37:43 2016.
