 Gaussian 09, Revision E.01,
 Gaussian 09:  EM64L-G09RevE.01 30-Nov-2015

 ---------------------------------------------
 #p b3lyp/6-311++G(3df,2p) freq symmetry=Loose
 ---------------------------------------------

 ---------
 b3lyp opt
 ---------
 Symbolic Z-matrix:
 Charge =  1 Multiplicity = 2

                         Standard orientation:
 ---------------------------------------------------------------------
 Center     Atomic      Atomic             Coordinates (Angstroms)
 Number     Number       Type             X           Y           Z
 ---------------------------------------------------------------------
      1          6           0       -0.024783    0.035322    0.802221
      2          6           0       -0.024783    1.145587   -0.000000
      3          6           0       -0.024783    0.035322   -0.802221
      4          6           0        0.074348   -1.216230    0.000000
 ---------------------------------------------------------------------

 SCF Done:  E(UB3LYP) =  -151.717659194     A.U. after   29 cycles

 The electronic state is 2-A'.
 Alpha  occ. eigenvalues --  -10.62577 -10.61342 -10.60518 -10.60507  -1.32951
 Alpha  occ. eigenvalues --   -1.04121  -0.88799  -0.74765  -0.73985  -0.72778
 Alpha  occ. eigenvalues --   -0.60822  -0.59727
 Alpha virt. eigenvalues --   -0.46054  -0.39938  -0.35237  -0.25151  -0.15397
 Alpha virt. eigenvalues --   -0.14644  -0.12322  -0.11340  -0.09533  -0.08411
 Alpha virt. eigenvalues --   -0.06480  -0.05763  -0.05412  -0.04242  -0.03574

  Beta  occ. eigenvalues --  -10.61082 -10.61030 -10.60310 -10.60300  -1.32270
  Beta  occ. eigenvalues --   -1.02603  -0.87748  -0.73992  -0.73417  -0.66886
  Beta  occ. eigenvalues --   -0.57918
  Beta virt. eigenvalues --   -0.48270  -0.44814  -0.39697  -0.33853  -0.23401
  Beta virt. eigenvalues --   -0.15173  -0.14342  -0.12246  -0.10737  -0.09447
  Beta virt. eigenvalues --   -0.08090  -0.06260  -0.05644  -0.05403  -0.03932

 Mulliken charges and spin densities:
               1          2
     1  C    0.406713   0.041871
     2  C    0.149771   0.726620
     3  C    0.406713   0.041871
     4  C    0.036804   0.189638
 Sum of Mulliken charges =   1.00000   1.00000

 Dipole moment (field-independent basis, Debye):
    X=             -0.1686    Y=              1.0961    Z=              0.0000  Tot=              1.1090
 Quadrupole moment (field-independent basis, Debye-Ang):
   XX=            -18.0041   YY=            -17.0401   ZZ=            -18.6419
   XY=             -0.0108   XZ=              0.0000   YZ=              0.0000

  Exact polarizability:  21.622  -1.369  50.739   0.000  -0.000  33.339
 Approx polarizability:  33.475  -0.779 110.596  -0.000  -0.000  83.006

                      1                      2                      3
                     A'                     A'                     A"
 Frequencies --    313.0287               429.1406               570.3858
 Red. masses --     12.0000                12.0000                12.0000
 Frc consts  --      0.6928                 1.3021                 2.3002
 IR Inten    --     13.9144                30.6519                64.2554

                      4                      5                      6
                     A'                     A"                     A'
 Frequencies --   1107.7831              1205.7469              1311.3895
 Red. masses --     12.0000                12.0000                12.0000
 Frc consts  --      8.6764                10.2788                12.1589
 IR Inten    --     45.9085                 0.0610                14.6426

 - Thermochemistry -
 -------------------
 Temperature   298.150 Kelvin.  Pressure   1.00000 Atm.
 Atom     1 has atomic number  6 and mass  12.00000

 Molecular mass:    48.00000 amu.
 Principal axes and moments of inertia in atomic units:
                           1         2         3
     Eigenvalues --    55.24924 120.04990 175.11370
           X           -0.04314   0.00000   0.99907
           Y            0.99907   0.00000   0.04314
           Z           -0.00000   1.00000  -0.00000
 This molecule is an asymmetric top.
 Rotational symmetry number  1.
 Rotational temperatures (Kelvin)      1.56769     0.72148     0.49461
 Rotational constants (GHZ):          32.66545    15.03326    10.30611
 Zero-point vibrational energy      29532.7 (Joules/Mol)
                                    7.05847 (Kcal/Mol)
 Warning -- explicit consideration of   3 degrees of freedom as
           vibrations may cause significant error
 Vibrational temperatures:    450.38   617.44   820.66  1593.85  1734.80
          (Kelvin)           1886.79

 Zero-point correction=                           0.011248 (Hartree/Particle)
 Thermal correction to Energy=                    0.014995
 Thermal correction to Enthalpy=                  0.015940
 Thermal correction to Gibbs Free Energy=        -0.014195
 Sum of electronic and zero-point Energies=           -151.706411
 Sum of electronic and thermal Energies=              -151.702664
 Sum of electronic and thermal Enthalpies=            -151.701720
 Sum of electronic and thermal Free Energies=         -151.731855

                     E (Thermal)             CV                S
                      KCal/Mol        Cal/Mol-Kelvin    Cal/Mol-Kelvin
 Total                    9.410             10.730             63.424
 Electronic               0.000              0.000              1.377
 Translational            0.889              2.981             37.530
 Rotational               0.889              2.981             21.679
 Vibrational              7.632              4.768              2.838
 Vibration     1          0.701              1.649              1.346
 Vibration     2          0.790              1.407              0.861
 Vibration     3          0.926              1.095              0.503

 Normal termination of Gaussian 09 at Sun Jun 19 00:38:40 2016.
