 Gaussian 09, Revision C.01,
 Gaussian 09:  AM64L-G09RevC.01 23-Sep-2011

 ---------------------------------------------
 #p b3lyp/6-311++G(3df,2p) freq symmetry=Loose
 ---------------------------------------------

 (Enter /home/nestor/.gaussian09/l101.exe)
 ---------
 b3lyp opt
 ---------
 Charge =  0 Multiplicity = 3

                         Standard orientation:
 ---------------------------------------------------------------------
 Center     Atomic      Atomic             Coordinates (Angstroms)
 Number     Number       Type             X           Y           Z
 ---------------------------------------------------------------------
      1          6           0        0.000000    0.974959    0.196948
      2          6           0       -0.974959    0.000000   -0.196948
      3          6           0        0.974959    0.000000   -0.196948
      4          6           0        0.000000   -0.974959    0.196948
 ---------------------------------------------------------------------

 SCF Done:  E(UB3LYP) =  -152.073077186     A.U. after   10 cycles

 The electronic state is 3-A1.
 Alpha  occ. eigenvalues --  -10.29235 -10.29196 -10.29196 -10.29152  -1.00624
 Alpha  occ. eigenvalues --   -0.66303  -0.66303  -0.47698  -0.45302  -0.41350
 Alpha  occ. eigenvalues --   -0.32563  -0.29888  -0.29888
 Alpha virt. eigenvalues --   -0.10702  -0.10702  -0.03521   0.03005   0.04114
 Alpha virt. eigenvalues --    0.04132   0.04132   0.08297   0.08557   0.09429
 Alpha virt. eigenvalues --    0.09429   0.10137   0.12523   0.12523   0.13767

  Beta  occ. eigenvalues --  -10.28309 -10.28271 -10.28271 -10.28235  -0.98551
  Beta  occ. eigenvalues --   -0.63611  -0.63611  -0.43268  -0.42734  -0.36664
  Beta  occ. eigenvalues --   -0.28721
  Beta virt. eigenvalues --   -0.17403  -0.17403  -0.09611  -0.09611  -0.00907
  Beta virt. eigenvalues --    0.04103   0.04358   0.04456   0.04456   0.08383
  Beta virt. eigenvalues --    0.08677   0.09833   0.09833   0.11330   0.12754

 Mulliken atomic charges:
              1
     1  C    0.000000
     2  C    0.000000
     3  C    0.000000
     4  C    0.000000
 Sum of Mulliken atomic charges =   0.00000

 Dipole moment (field-independent basis, Debye):
    X=              0.0000    Y=              0.0000    Z=              0.0000  Tot=              0.0000
 Quadrupole moment (field-independent basis, Debye-Ang):
   XX=            -24.6846   YY=            -24.6846   ZZ=            -22.3864
   XY=              0.0000   XZ=              0.0000   YZ=              0.0000

  Exact polarizability:  61.143   0.000  61.143   0.000   0.000  27.179
 Approx polarizability: 136.649   0.000 136.649   0.000   0.000  41.842

                     1                      2                      3
                    A1                     B2                     B1
 Frequencies --   615.2535               636.4419               643.2312
 Red. masses --    12.0000                12.0000                12.0000
 Frc consts  --     2.6763                 2.8638                 2.9253
 IR Inten    --     0.0000                 9.7016                 0.0000

                     4                      5                      6
                     E                      E                     A1
 Frequencies --   705.9973               705.9973              1318.2655
 Red. masses --    12.0000                12.0000                12.0000
 Frc consts  --     3.5240                 3.5240                12.2868
 IR Inten    --   294.7546               294.7546                 0.0000

 - Thermochemistry -
 -------------------
 Temperature   298.150 Kelvin.  Pressure   1.00000 Atm.
 Atom     1 has atomic number  6 and mass  12.00000

 Molecular mass:    48.00000 amu.
 Principal axes and moments of inertia in atomic units:
                           1         2         3
     Eigenvalues --    88.11568  88.11568 162.93386
           X            0.91188   0.41046   0.00000
           Y           -0.41046   0.91188   0.00000
           Z            0.00000   0.00000   1.00000
 This molecule is an oblate symmetric top.
 Rotational symmetry number  4.
 Rotational temperatures (Kelvin)      0.98296     0.98296     0.53159
 Rotational constants (GHZ):          20.48150    20.48150    11.07653
 Zero-point vibrational energy      27664.8 (Joules/Mol)
                                    6.61204 (Kcal/Mol)
 Warning -- explicit consideration of   1 degrees of freedom as
           vibrations may cause significant error
 Vibrational temperatures:    885.21   915.70   925.47  1015.77  1015.77
          (Kelvin)           1896.69

 Zero-point correction=                           0.010537 (Hartree/Particle)
 Thermal correction to Energy=                    0.014031
 Thermal correction to Enthalpy=                  0.014975
 Thermal correction to Gibbs Free Energy=        -0.013790
 Sum of electronic and zero-point Energies=           -152.062540
 Sum of electronic and thermal Energies=              -152.059046
 Sum of electronic and thermal Enthalpies=            -152.058102
 Sum of electronic and thermal Free Energies=         -152.086868

                     E (Thermal)             CV                S
                      KCal/Mol        Cal/Mol-Kelvin    Cal/Mol-Kelvin
 Total                    8.804             10.633             60.542
 Electronic               0.000              0.000              2.183
 Translational            0.889              2.981             37.530
 Rotational               0.889              2.981             19.009
 Vibrational              7.027              4.672              1.820
 Vibration     1          0.975              1.000              0.424

 Optimization completed.
    -- Stationary point found.
 Normal termination of Gaussian 09 at Wed Jul  6 00:12:08 2016.
