 Gaussian 09, Revision E.01,
 Gaussian 09:  EM64L-G09RevE.01 30-Nov-2015

 ----------------------------------
 #p b3lyp/6-311++G(3df,2p) opt freq
 ----------------------------------

 ---------
 b3lyp opt
 ---------
 Symbolic Z-matrix:
 Charge =  0 Multiplicity = 2

 SCF Done:  E(UB3LYP) =  -206.843630051     A.U. after   18 cycles
 SCF Done:  E(UB3LYP) =  -206.843675581     A.U. after   12 cycles
 SCF Done:  E(UB3LYP) =  -206.843676312     A.U. after   11 cycles
 Optimization completed.
    -- Stationary point found.
 Normal termination of Gaussian 09 at Tue Dec 13 10:44:24 2016.

 ----------------------------------------------------------------------
 #P Geom=AllCheck Guess=TCheck SCRF=Check GenChk UB3LYP/6-311++G(3df,2p
 ) Freq
 ----------------------------------------------------------------------

 Structure from the checkpoint file:  "/scratch/sergio/C4N.q0.m2-10.com-2358066/Gau-4432.chk"
 ---------
 b3lyp opt
 ---------
 Charge =  0 Multiplicity = 2

                         Standard orientation:
 ---------------------------------------------------------------------
 Center     Atomic      Atomic             Coordinates (Angstroms)
 Number     Number       Type             X           Y           Z
 ---------------------------------------------------------------------
      1          7           0       -0.000000    0.000000    0.268287
      2          6           0       -0.000000    0.690120    1.479247
      3          6           0       -0.000000   -0.690120    1.479247
      4          6           0        0.000000   -0.000000   -2.277799
      5          6           0        0.000000    0.000000   -0.993698
 ---------------------------------------------------------------------

 SCF Done:  E(UB3LYP) =  -206.843676312     A.U. after    1 cycles

 The electronic state is 2-B2.
 Alpha  occ. eigenvalues --  -14.52903 -10.29942 -10.29882 -10.27410 -10.26973
 Alpha  occ. eigenvalues --   -1.14121  -0.91433  -0.78056  -0.62941  -0.54158
 Alpha  occ. eigenvalues --   -0.54077  -0.39076  -0.34528  -0.34501  -0.33528
 Alpha  occ. eigenvalues --   -0.31231
 Alpha virt. eigenvalues --   -0.17397  -0.06751  -0.03974  -0.00221   0.02266
 Alpha virt. eigenvalues --    0.02442   0.03278   0.04481   0.05958   0.07280
 Alpha virt. eigenvalues --    0.07509   0.09247   0.09267   0.09850   0.10295

  Beta  occ. eigenvalues --  -14.52501 -10.29577 -10.29515 -10.27260 -10.26393
  Beta  occ. eigenvalues --   -1.13414  -0.91069  -0.75984  -0.61214  -0.53906
  Beta  occ. eigenvalues --   -0.52329  -0.35209  -0.34065  -0.33200  -0.32231
  Beta virt. eigenvalues --   -0.22357  -0.16742  -0.06186  -0.01168   0.00074
  Beta virt. eigenvalues --    0.02478   0.02564   0.03602   0.04576   0.06043
  Beta virt. eigenvalues --    0.07551   0.07773   0.09420   0.09944   0.09976

 Mulliken charges and spin densities:
               1          2
     1  N   -0.512246   0.100230
     2  C    0.038370   0.177377
     3  C    0.038370   0.177377
     4  C   -0.562117   0.404277
     5  C    0.997623   0.140739
 Sum of Mulliken charges =  -0.00000   1.00000

 Dipole moment (field-independent basis, Debye):
    X=              0.0000    Y=              0.0000    Z=              1.3906  Tot=              1.3906
 Quadrupole moment (field-independent basis, Debye-Ang):
   XX=            -27.0658   YY=            -31.2521   ZZ=            -37.1543
   XY=             -0.0000   XZ=              0.0000   YZ=              0.0000

  Exact polarizability:  34.144   0.000  51.053   0.000  -0.000 111.582
 Approx polarizability:  51.756   0.000  77.566  -0.000   0.000 294.832

                      1                      2                      3
                     B2                     B1                     B2
 Frequencies --     90.3876               181.5072               267.4523
 Red. masses --     12.9072                12.2318                12.4401
 Frc consts  --      0.0621                 0.2374                 0.5243
 IR Inten    --     82.9482                 8.8926                41.3234

                      4                      5                      6
                     B2                     B1                     A1
 Frequencies --    521.8508               535.8462               742.5355
 Red. masses --     12.0486                13.1964                12.0380
 Frc consts  --      1.9332                 2.2325                 3.9106
 IR Inten    --     18.4698                 4.0322                21.3404

                      7                      8                      9
                     A1                     A1                     A1
 Frequencies --   1134.1072              1500.7036              1940.0791
 Red. masses --     12.5555                12.6459                12.1489
 Frc consts  --      9.5147                16.7800                26.9418
 IR Inten    --      0.0282                 2.2351               779.7198

 - Thermochemistry -
 -------------------
 Temperature   298.150 Kelvin.  Pressure   1.00000 Atm.
 Atom     1 has atomic number  7 and mass  14.00307

 Molecular mass:    62.00307 amu.
 Principal axes and moments of inertia in atomic units:
                           1         2         3
     Eigenvalues --    40.81859 455.78817 496.60676
           X            0.00000  -0.00000   1.00000
           Y            0.00000   1.00000  -0.00000
           Z            1.00000  -0.00000  -0.00000
 This molecule is an asymmetric top.
 Rotational symmetry number  2.
 Rotational temperatures (Kelvin)      2.12192     0.19003     0.17441
 Rotational constants (GHZ):          44.21370     3.95961     3.63415
 Zero-point vibrational energy      41357.7 (Joules/Mol)
                                    9.88473 (Kcal/Mol)
 Warning -- explicit consideration of   5 degrees of freedom as
           vibrations may cause significant error
 Vibrational temperatures:    130.05   261.15   384.80   750.83   770.96
          (Kelvin)           1068.34  1631.73  2159.18  2791.34

 Zero-point correction=                           0.015752 (Hartree/Particle)
 Thermal correction to Energy=                    0.020922
 Thermal correction to Enthalpy=                  0.021866
 Thermal correction to Gibbs Free Energy=        -0.011923
 Sum of electronic and zero-point Energies=           -206.827924
 Sum of electronic and thermal Energies=              -206.822754
 Sum of electronic and thermal Enthalpies=            -206.821810
 Sum of electronic and thermal Free Energies=         -206.855600

                     E (Thermal)             CV                S
                      KCal/Mol        Cal/Mol-Kelvin    Cal/Mol-Kelvin
 Total                   13.129             14.980             71.117
 Electronic               0.000              0.000              1.377
 Translational            0.889              2.981             38.293
 Rotational               0.889              2.981             22.362
 Vibrational             11.351              9.018              9.084
 Vibration     1          0.602              1.956              3.652
 Vibration     2          0.630              1.865              2.313
 Vibration     3          0.673              1.733              1.613
 Vibration     4          0.877              1.202              0.606
 Vibration     5          0.891              1.171              0.574

 Optimization completed.
    -- Stationary point found.
 Normal termination of Gaussian 09 at Tue Dec 13 10:48:39 2016.
