 Gaussian 09, Revision E.01,
 Gaussian 09:  EM64L-G09RevE.01 30-Nov-2015

 ----------------------------------
 #p b3lyp/6-311++G(3df,2p) opt freq
 ----------------------------------

 ---------
 b3lyp opt
 ---------
 Symbolic Z-matrix:
 Charge =  0 Multiplicity = 2

 SCF Done:  E(UB3LYP) =  -206.935199914     A.U. after   18 cycles
 Optimization completed.
    -- Stationary point found.
 Normal termination of Gaussian 09 at Tue Dec 13 10:37:09 2016.

 ----------------------------------------------------------------------
 #P Geom=AllCheck Guess=TCheck SCRF=Check GenChk UB3LYP/6-311++G(3df,2p
 ) Freq
 ----------------------------------------------------------------------

 Structure from the checkpoint file:  "/scratch/sergio/C4N.q0.m2-2.com-2358063/Gau-4073.chk"
 ---------
 b3lyp opt
 ---------
 Charge =  0 Multiplicity = 2

                         Standard orientation:
 ---------------------------------------------------------------------
 Center     Atomic      Atomic             Coordinates (Angstroms)
 Number     Number       Type             X           Y           Z
 ---------------------------------------------------------------------
      1          6           0       -0.229759    1.674119    0.000000
      2          6           0        0.000000    0.224961    0.000000
      3          6           0       -0.279460   -1.040249   -0.000000
      4          6           0       -0.612059   -2.280185   -0.000000
      5          7           0        0.961096    1.218303    0.000000
 ---------------------------------------------------------------------

 SCF Done:  E(UB3LYP) =  -206.935199914     A.U. after    1 cycles

 The electronic state is 2-A'.
 Alpha  occ. eigenvalues --  -14.44289 -10.35067 -10.31180 -10.26065 -10.22908
 Alpha  occ. eigenvalues --   -1.12606  -0.84667  -0.73128  -0.61761  -0.58212
 Alpha  occ. eigenvalues --   -0.50704  -0.40816  -0.38100  -0.35462  -0.33099
 Alpha  occ. eigenvalues --   -0.29692
 Alpha virt. eigenvalues --   -0.14844  -0.08775  -0.04362   0.00596   0.02720
 Alpha virt. eigenvalues --    0.04026   0.04233   0.05607   0.06343   0.07299
 Alpha virt. eigenvalues --    0.09413   0.10039   0.10175   0.11230   0.12663

  Beta  occ. eigenvalues --  -14.43973 -10.34743 -10.30621 -10.25489 -10.22849
  Beta  occ. eigenvalues --   -1.11884  -0.83897  -0.71597  -0.60072  -0.56251
  Beta  occ. eigenvalues --   -0.50451  -0.39310  -0.35144  -0.34412  -0.32050
  Beta virt. eigenvalues --   -0.20471  -0.14244  -0.08067  -0.01522   0.00693
  Beta virt. eigenvalues --    0.02903   0.04274   0.04307   0.05739   0.06423
  Beta virt. eigenvalues --    0.07679   0.09609   0.10291   0.10479   0.11474

 Mulliken charges and spin densities:
               1          2
     1  C   -0.238024   0.313760
     2  C    0.348182   0.178207
     3  C    0.980657   0.113571
     4  C   -0.641089   0.285387
     5  N   -0.449724   0.109074
 Sum of Mulliken charges =  -0.00000   1.00000

 Dipole moment (field-independent basis, Debye):
    X=              0.5883    Y=              1.9925    Z=             -0.0000  Tot=              2.0775
 Quadrupole moment (field-independent basis, Debye-Ang):
   XX=            -30.2152   YY=            -36.6598   ZZ=            -26.7785
   XY=             -1.5571   XZ=             -0.0000   YZ=             -0.0000

  Exact polarizability:  40.823  10.365 103.855   0.000   0.000  31.804
 Approx polarizability:  68.149  31.558 227.128   0.000   0.000  47.380

                      1                      2                      3
                     A"                     A'                     A'
 Frequencies --    158.5929               169.5083               454.2978
 Red. masses --     12.0712                12.1713                12.1677
 Frc consts  --      0.1789                 0.2060                 1.4796
 IR Inten    --      9.0272                12.3481                 0.4686

                      4                      5                      6
                     A"                     A'                     A'
 Frequencies --    531.7938               688.2030               771.9435
 Red. masses --     12.0392                12.1077                13.0222
 Frc consts  --      2.0060                 3.3787                 4.5720
 IR Inten    --      7.3993                17.2322                 6.7165

                      7                      8                      9
                     A'                     A'                     A'
 Frequencies --   1284.6824              1664.5828              2008.1024
 Red. masses --     12.3071                12.5692                12.0447
 Frc consts  --     11.9673                20.5197                28.6167
 IR Inten    --      5.3158                 5.7277               750.2355

 - Thermochemistry -
 -------------------
 Temperature   298.150 Kelvin.  Pressure   1.00000 Atm.
 Atom     1 has atomic number  6 and mass  12.00000

 Molecular mass:    62.00307 amu.
 Principal axes and moments of inertia in atomic units:
                           1         2         3
     Eigenvalues --    37.33471 496.18492 533.51963
           X            0.25790   0.96617   0.00000
           Y            0.96617  -0.25790   0.00000
           Z            0.00000   0.00000   1.00000
 This molecule is an asymmetric top.
 Rotational symmetry number  1.
 Rotational temperatures (Kelvin)      2.31993     0.17456     0.16234
 Rotational constants (GHZ):          48.33950     3.63724     3.38271
 Zero-point vibrational energy      46245.9 (Joules/Mol)
                                   11.05303 (Kcal/Mol)
 Warning -- explicit consideration of   4 degrees of freedom as
           vibrations may cause significant error
 Vibrational temperatures:    228.18   243.88   653.63   765.13   990.17
          (Kelvin)           1110.65  1848.37  2394.96  2889.21

 Zero-point correction=                           0.017614 (Hartree/Particle)
 Thermal correction to Energy=                    0.022366
 Thermal correction to Enthalpy=                  0.023311
 Thermal correction to Gibbs Free Energy=        -0.010157
 Sum of electronic and zero-point Energies=           -206.917586
 Sum of electronic and thermal Energies=              -206.912833
 Sum of electronic and thermal Enthalpies=            -206.911889
 Sum of electronic and thermal Free Energies=         -206.945357

                     E (Thermal)             CV                S
                      KCal/Mol        Cal/Mol-Kelvin    Cal/Mol-Kelvin
 Total                   14.035             14.025             70.438
 Electronic               0.000              0.000              1.377
 Translational            0.889              2.981             38.293
 Rotational               0.889              2.981             23.806
 Vibrational             12.258              8.063              6.962
 Vibration     1          0.621              1.893              2.567
 Vibration     2          0.625              1.880              2.441
 Vibration     3          0.813              1.351              0.783
 Vibration     4          0.887              1.180              0.583

 Optimization completed.
    -- Stationary point found.
 Normal termination of Gaussian 09 at Tue Dec 13 10:45:08 2016.
