 Gaussian 09, Revision E.01,
 Gaussian 09:  EM64L-G09RevE.01 30-Nov-2015

 ---------------------------------------------
 #p b3lyp/6-311++G(3df,2p) freq symmetry=Loose
 ---------------------------------------------

 ---------
 b3lyp opt
 ---------
 Symbolic Z-matrix:
 Charge =  0 Multiplicity = 4

                         Standard orientation:
 ---------------------------------------------------------------------
 Center     Atomic      Atomic             Coordinates (Angstroms)
 Number     Number       Type             X           Y           Z
 ---------------------------------------------------------------------
      1          6           0       -0.278026   -0.001141    0.416660
      2          6           0       -1.518068    0.656127   -0.140657
      3          6           0       -1.518985   -0.654990   -0.141806
      4          6           0        2.161080    0.000686   -0.153885
      5          7           0        0.989142   -0.000585    0.016875
 ---------------------------------------------------------------------

 SCF Done:  E(UB3LYP) =  -206.859075341     A.U. after   18 cycles

 The electronic state is 4-A.
 Alpha  occ. eigenvalues --  -14.39438 -10.31867 -10.30230 -10.30130 -10.25029
 Alpha  occ. eigenvalues --   -1.02247  -0.95375  -0.77076  -0.55813  -0.53232
 Alpha  occ. eigenvalues --   -0.48107  -0.43136  -0.39820  -0.38523  -0.34605
 Alpha  occ. eigenvalues --   -0.29285  -0.24502
 Alpha virt. eigenvalues --   -0.06923  -0.02787  -0.01644   0.01911   0.02706
 Alpha virt. eigenvalues --    0.03121   0.04046   0.06633   0.07721   0.08098
 Alpha virt. eigenvalues --    0.08619   0.09666   0.10123   0.10163   0.13020

  Beta  occ. eigenvalues --  -14.39574 -10.30054 -10.28534 -10.28451 -10.24476
  Beta  occ. eigenvalues --   -1.00857  -0.92523  -0.74757  -0.49406  -0.48377
  Beta  occ. eigenvalues --   -0.45042  -0.39407  -0.36153  -0.33467
  Beta virt. eigenvalues --   -0.22948  -0.16175  -0.11445  -0.03266  -0.00793
  Beta virt. eigenvalues --    0.00190   0.02916   0.03302   0.03549   0.04610
  Beta virt. eigenvalues --    0.06859   0.08354   0.08463   0.09558   0.10296

 Mulliken charges and spin densities:
               1          2
     1  C    0.369972   0.975990
     2  C    0.042811   0.941942
     3  C    0.043060   0.940711
     4  C   -0.005560   0.317538
     5  N   -0.450283  -0.176181
 Sum of Mulliken charges =  -0.00000   3.00000

 Dipole moment (field-independent basis, Debye):
    X=             -2.2303    Y=             -0.0002    Z=             -0.0044  Tot=              2.2304
 Quadrupole moment (field-independent basis, Debye-Ang):
   XX=            -34.7151   YY=            -27.1238   ZZ=            -28.3071
   XY=             -0.0060   XZ=              1.1946   YZ=              0.0008

  Exact polarizability:  82.714   0.010  44.200  -0.685   0.004  36.520
 Approx polarizability: 132.256   0.028  83.866  -0.785   0.016  53.537

                      1                      2                      3
                      A                      A                      A
 Frequencies --    201.2173               216.9476               456.8214
 Red. masses --     12.5088                12.4973                12.5761
 Frc consts  --      0.2984                 0.3466                 1.5463
 IR Inten    --      1.8468                 3.6031                 1.0090

                      4                      5                      6
                      A                      A                      A
 Frequencies --    483.9297               645.3680               762.3411
 Red. masses --     12.8036                12.1192                12.2494
 Frc consts  --      1.7666                 2.9740                 4.1943
 IR Inten    --      4.4427                17.5759                 6.6268

                      7                      8                      9
                      A                      A                      A
 Frequencies --   1215.6556              1628.7318              2009.3406
 Red. masses --     12.0777                12.0004                12.9994
 Frc consts  --     10.5162                18.7562                30.9228
 IR Inten    --     37.8753                42.3510               140.3964

 - Thermochemistry -
 -------------------
 Temperature   298.150 Kelvin.  Pressure   1.00000 Atm.
 Atom     1 has atomic number  6 and mass  12.00000

 Molecular mass:    62.00307 amu.
 Principal axes and moments of inertia in atomic units:
                           1         2         3
     Eigenvalues --    47.01070 460.18080 486.83539
           X            1.00000   0.00000  -0.00000
           Y           -0.00000   1.00000   0.00000
           Z            0.00000  -0.00000   1.00000
 This molecule is an asymmetric top.
 Rotational symmetry number  1.
 Rotational temperatures (Kelvin)      1.84243     0.18822     0.17791
 Rotational constants (GHZ):          38.39001     3.92181     3.70709
 Zero-point vibrational energy      45579.8 (Joules/Mol)
                                   10.89384 (Kcal/Mol)
 Warning -- explicit consideration of   4 degrees of freedom as
           vibrations may cause significant error
 Vibrational temperatures:    289.51   312.14   657.26   696.27   928.54
          (Kelvin)           1096.84  1749.06  2343.38  2890.99

 Zero-point correction=                           0.017360 (Hartree/Particle)
 Thermal correction to Energy=                    0.022027
 Thermal correction to Enthalpy=                  0.022971
 Thermal correction to Gibbs Free Energy=        -0.010841
 Sum of electronic and zero-point Energies=           -206.841715
 Sum of electronic and thermal Energies=              -206.837049
 Sum of electronic and thermal Enthalpies=            -206.836105
 Sum of electronic and thermal Free Energies=         -206.869917

                     E (Thermal)             CV                S
                      KCal/Mol        Cal/Mol-Kelvin    Cal/Mol-Kelvin
 Total                   13.822             14.152             71.164
 Electronic               0.000              0.000              2.755
 Translational            0.889              2.981             38.293
 Rotational               0.889              2.981             23.869
 Vibrational             12.044              8.191              6.246
 Vibration     1          0.638              1.838              2.122
 Vibration     2          0.646              1.815              1.984
 Vibration     3          0.815              1.346              0.775
 Vibration     4          0.840              1.286              0.700

 Optimization completed.
    -- Stationary point found.
 Normal termination of Gaussian 09 at Tue Aug 16 18:10:25 2016.
