 Gaussian 09, Revision E.01,
 Gaussian 09:  EM64L-G09RevE.01 30-Nov-2015

 ---------------------------------------------
 #p b3lyp/6-311++G(3df,2p) freq symmetry=Loose
 ---------------------------------------------

 ---------
 b3lyp opt
 ---------
 Symbolic Z-matrix:
 Charge =  0 Multiplicity = 4

                         Standard orientation:
 ---------------------------------------------------------------------
 Center     Atomic      Atomic             Coordinates (Angstroms)
 Number     Number       Type             X           Y           Z
 ---------------------------------------------------------------------
      1          6           0       -0.000000   -1.807419   -0.773531
      2          6           0        0.000000    1.807419   -0.773531
      3          6           0        0.000000    0.784178    0.086622
      4          6           0       -0.000000   -0.784178    0.086622
      5          7           0        0.000000    0.000000    1.177558
 ---------------------------------------------------------------------

 SCF Done:  E(UB3LYP) =  -206.814615088     A.U. after   14 cycles

 The electronic state is 4-A1.
 Alpha  occ. eigenvalues --  -14.44942 -10.33267 -10.33252 -10.28194 -10.28192
 Alpha  occ. eigenvalues --   -1.11661  -0.82976  -0.82491  -0.59053  -0.58008
 Alpha  occ. eigenvalues --   -0.53245  -0.39144  -0.36560  -0.36003  -0.35591
 Alpha  occ. eigenvalues --   -0.30707  -0.28597
 Alpha virt. eigenvalues --   -0.12458  -0.04860  -0.02715  -0.01108   0.03720
 Alpha virt. eigenvalues --    0.04365   0.04846   0.06239   0.07336   0.08363
 Alpha virt. eigenvalues --    0.08456   0.09646   0.09854   0.11231   0.11913

  Beta  occ. eigenvalues --  -14.43945 -10.32853 -10.32833 -10.26719 -10.26718
  Beta  occ. eigenvalues --   -1.09927  -0.77943  -0.77523  -0.57087  -0.56276
  Beta  occ. eigenvalues --   -0.47734  -0.36584  -0.33306  -0.32892
  Beta virt. eigenvalues --   -0.23129  -0.17591  -0.17190  -0.07746  -0.00429
  Beta virt. eigenvalues --    0.00368   0.02214   0.04091   0.05275   0.05688
  Beta virt. eigenvalues --    0.06427   0.07842   0.08838   0.09551   0.10252

 Mulliken charges and spin densities:
               1          2
     1  C   -0.445978   0.887185
     2  C   -0.445978   0.887185
     3  C    0.769334   0.392113
     4  C    0.769334   0.392113
     5  N   -0.646713   0.441403
 Sum of Mulliken charges =   0.00000   3.00000

 Dipole moment (field-independent basis, Debye):
    X=             -0.0000    Y=             -0.0000    Z=              1.6305  Tot=              1.6305
 Quadrupole moment (field-independent basis, Debye-Ang):
   XX=            -26.9925   YY=            -36.0979   ZZ=            -33.0983
   XY=             -0.0000   XZ=              0.0000   YZ=             -0.0000

  Exact polarizability:  38.362  -0.000  89.095  -0.000   0.000  48.823
 Approx polarizability:  50.518   0.000 171.507  -0.000  -0.000  85.750

                      1                      2                      3
                     A1                     B1                     A2
 Frequencies --    211.9988               275.7364               308.6673
 Red. masses --     12.1048                12.3578                12.0000
 Frc consts  --      0.3205                 0.5536                 0.6736
 IR Inten    --      9.3067                70.4093                 0.0000

                      4                      5                      6
                     B2                     A1                     B2
 Frequencies --    375.1611               429.2481               879.4180
 Red. masses --     12.1339                12.1727                12.9610
 Frc consts  --      1.0062                 1.3215                 5.9058
 IR Inten    --     16.6284                 4.7488                35.9239

                      7                      8                      9
                     A1                     B2                     A1
 Frequencies --   1029.2498              1453.3148              1711.7763
 Red. masses --     12.8400                12.0447                12.2759
 Frc consts  --      8.0141                14.9888                21.1933
 IR Inten    --     14.0313                 0.6060                 3.8854

 - Thermochemistry -
 -------------------
 Temperature   298.150 Kelvin.  Pressure   1.00000 Atm.
 Atom     1 has atomic number  6 and mass  12.00000

 Molecular mass:    62.00307 amu.
 Principal axes and moments of inertia in atomic units:
                           1         2         3
     Eigenvalues --   121.26533 332.68319 453.94853
           X            0.00000   0.00000   1.00000
           Y            1.00000   0.00000  -0.00000
           Z            0.00000   1.00000   0.00000
 This molecule is an asymmetric top.
 Rotational symmetry number  2.
 Rotational temperatures (Kelvin)      0.71425     0.26035     0.19080
 Rotational constants (GHZ):          14.88258     5.42480     3.97565
 Zero-point vibrational energy      39922.8 (Joules/Mol)
                                    9.54178 (Kcal/Mol)
 Warning -- explicit consideration of   5 degrees of freedom as
           vibrations may cause significant error
 Vibrational temperatures:    305.02   396.72   444.10   539.77   617.59
          (Kelvin)           1265.28  1480.86  2090.99  2462.86

 Zero-point correction=                           0.015206 (Hartree/Particle)
 Thermal correction to Energy=                    0.020157
 Thermal correction to Enthalpy=                  0.021101
 Thermal correction to Gibbs Free Energy=        -0.012737
 Sum of electronic and zero-point Energies=           -206.799409
 Sum of electronic and thermal Energies=              -206.794458
 Sum of electronic and thermal Enthalpies=            -206.793514
 Sum of electronic and thermal Free Energies=         -206.827353

                     E (Thermal)             CV                S
                      KCal/Mol        Cal/Mol-Kelvin    Cal/Mol-Kelvin
 Total                   12.649             15.087             71.219
 Electronic               0.000              0.000              2.755
 Translational            0.889              2.981             38.293
 Rotational               0.889              2.981             23.042
 Vibrational             10.871              9.126              7.129
 Vibration     1          0.643              1.823              2.026
 Vibration     2          0.677              1.718              1.560
 Vibration     3          0.698              1.657              1.369
 Vibration     4          0.746              1.523              1.059
 Vibration     5          0.791              1.407              0.861

 Optimization completed.
    -- Stationary point found.
 Normal termination of Gaussian 09 at Tue Aug 16 17:58:18 2016.
