 Gaussian 09, Revision E.01,
 Gaussian 09:  EM64L-G09RevE.01 30-Nov-2015

 ----------------------------------
 #p b3lyp/6-311++G(3df,2p) opt freq
 ----------------------------------

 ---------
 b3lyp opt
 ---------
 Symbolic Z-matrix:
 Charge =  0 Multiplicity = 4

 SCF Done:  E(UB3LYP) =  -206.857463398     A.U. after   17 cycles
 Optimization completed.
    -- Stationary point found.
 Normal termination of Gaussian 09 at Tue Dec 13 11:08:42 2016.

 ----------------------------------------------------------------------
 #P Geom=AllCheck Guess=TCheck SCRF=Check GenChk UB3LYP/6-311++G(3df,2p
 ) Freq
 ----------------------------------------------------------------------

 Structure from the checkpoint file:  "/scratch/sergio/C4N.q0.m4-4.com-2358074/Gau-5180.chk"
 ---------
 b3lyp opt
 ---------
 Charge =  0 Multiplicity = 4

                         Standard orientation:
 ---------------------------------------------------------------------
 Center     Atomic      Atomic             Coordinates (Angstroms)
 Number     Number       Type             X           Y           Z
 ---------------------------------------------------------------------
      1          6           0       -0.792823    1.455743   -0.000000
      2          6           0        0.000000    0.265211   -0.000000
      3          6           0        0.874630   -0.689373    0.000000
      4          6           0        1.733583   -1.597804    0.000000
      5          7           0       -1.556048    0.485334   -0.000000
 ---------------------------------------------------------------------

 SCF Done:  E(UB3LYP) =  -206.857463398     A.U. after    1 cycles

 The electronic state is 4-A".
 Alpha  occ. eigenvalues --  -14.40214 -10.29382 -10.28901 -10.27498 -10.23900
 Alpha  occ. eigenvalues --   -1.05662  -0.84020  -0.73614  -0.59620  -0.51884
 Alpha  occ. eigenvalues --   -0.47065  -0.44803  -0.40057  -0.37535  -0.37004
 Alpha  occ. eigenvalues --   -0.27765  -0.23822
 Alpha virt. eigenvalues --   -0.05720  -0.05067   0.01322   0.03186   0.04455
 Alpha virt. eigenvalues --    0.04941   0.05131   0.05181   0.07415   0.09691
 Alpha virt. eigenvalues --    0.09843   0.10093   0.12263   0.13059   0.14124

  Beta  occ. eigenvalues --  -14.39470 -10.27905 -10.26909 -10.25504 -10.24209
  Beta  occ. eigenvalues --   -1.04222  -0.81720  -0.68751  -0.57290  -0.49028
  Beta  occ. eigenvalues --   -0.43874  -0.38104  -0.33775  -0.33192
  Beta virt. eigenvalues --   -0.21610  -0.16176  -0.10754  -0.02861  -0.01568
  Beta virt. eigenvalues --    0.01965   0.03762   0.04836   0.05110   0.05799
  Beta virt. eigenvalues --    0.06613   0.08321   0.10036   0.11035   0.12672

 Mulliken charges and spin densities:
               1          2
     1  C   -0.145516   0.335807
     2  C    0.266033   0.736390
     3  C    0.413933  -0.267772
     4  C   -0.036955   1.902077
     5  N   -0.497496   0.293498
 Sum of Mulliken charges =  -0.00000   3.00000

 Dipole moment (field-independent basis, Debye):
    X=              1.2514    Y=             -0.6526    Z=              0.0000  Tot=              1.4114
 Quadrupole moment (field-independent basis, Debye-Ang):
   XX=            -28.0964   YY=            -27.2262   ZZ=            -27.9110
   XY=             -2.0599   XZ=             -0.0000   YZ=              0.0000

  Exact polarizability:  66.169 -29.447  68.867   0.000   0.000  31.154
 Approx polarizability: 121.777 -62.357 124.710   0.000  -0.000  42.533

                      1                      2                      3
                     A"                     A'                     A"
 Frequencies --    130.5714               186.9861               349.0293
 Red. masses --     12.0158                12.2085                12.0012
 Frc consts  --      0.1207                 0.2515                 0.8614
 IR Inten    --      0.2059                 0.4700                 0.0498

                      4                      5                      6
                     A'                     A'                     A'
 Frequencies --    369.8907               457.6205               711.6549
 Red. masses --     13.1650                12.0848                12.1050
 Frc consts  --      1.0613                 1.4911                 3.6120
 IR Inten    --      9.8551                 0.4179                 9.3711

                      7                      8                      9
                     A'                     A'                     A'
 Frequencies --   1379.4252              1720.7138              1858.9669
 Red. masses --     12.1625                12.3488                12.2918
 Frc consts  --     13.6354                21.5422                25.0271
 IR Inten    --     24.5132                22.1763                78.1655

 - Thermochemistry -
 -------------------
 Temperature   298.150 Kelvin.  Pressure   1.00000 Atm.
 Atom     1 has atomic number  6 and mass  12.00000

 Molecular mass:    62.00307 amu.
 Principal axes and moments of inertia in atomic units:
                           1         2         3
     Eigenvalues --    37.76628 507.18897 544.95526
           X            0.76095   0.64881   0.00000
           Y           -0.64881   0.76095   0.00000
           Z           -0.00000   0.00000   1.00000
 This molecule is an asymmetric top.
 Rotational symmetry number  1.
 Rotational temperatures (Kelvin)      2.29342     0.17077     0.15894
 Rotational constants (GHZ):          47.78710     3.55832     3.31172
 Zero-point vibrational energy      42855.4 (Joules/Mol)
                                   10.24268 (Kcal/Mol)
 Warning -- explicit consideration of   5 degrees of freedom as
           vibrations may cause significant error
 Vibrational temperatures:    187.86   269.03   502.17   532.19   658.41
          (Kelvin)           1023.91  1984.68  2475.72  2674.64

 Zero-point correction=                           0.016323 (Hartree/Particle)
 Thermal correction to Energy=                    0.021493
 Thermal correction to Enthalpy=                  0.022437
 Thermal correction to Gibbs Free Energy=        -0.012460
 Sum of electronic and zero-point Energies=           -206.841141
 Sum of electronic and thermal Energies=              -206.835970
 Sum of electronic and thermal Enthalpies=            -206.835026
 Sum of electronic and thermal Free Energies=         -206.869923

                     E (Thermal)             CV                S
                      KCal/Mol        Cal/Mol-Kelvin    Cal/Mol-Kelvin
 Total                   13.487             15.172             73.447
 Electronic               0.000              0.000              2.755
 Translational            0.889              2.981             38.293
 Rotational               0.889              2.981             23.861
 Vibrational             11.710              9.211              8.538
 Vibration     1          0.612              1.923              2.938
 Vibration     2          0.632              1.858              2.258
 Vibration     3          0.726              1.577              1.171
 Vibration     4          0.742              1.534              1.080
 Vibration     5          0.816              1.344              0.773

 Optimization completed.
    -- Stationary point found.
 Normal termination of Gaussian 09 at Tue Dec 13 11:15:55 2016.
