 Gaussian 09, Revision E.01,
 Gaussian 09:  EM64L-G09RevE.01 30-Nov-2015

 ---------------------------------------------
 #p b3lyp/6-311++G(3df,2p) freq symmetry=Loose
 ---------------------------------------------

 ---------
 b3lyp opt
 ---------
 Symbolic Z-matrix:
 Charge =  0 Multiplicity = 4

                         Standard orientation:
 ---------------------------------------------------------------------
 Center     Atomic      Atomic             Coordinates (Angstroms)
 Number     Number       Type             X           Y           Z
 ---------------------------------------------------------------------
      1          6           0        0.069051   -0.162901    1.052668
      2          6           0        0.069051    0.904766    0.000000
      3          6           0        0.069051   -0.162901   -1.052668
      4          6           0        1.008942   -0.530433    0.000000
      5          7           0       -1.042367   -0.041598   -0.000000
 ---------------------------------------------------------------------

 SCF Done:  E(UB3LYP) =  -206.760954736     A.U. after   15 cycles

 The electronic state is 4-A".
 Alpha  occ. eigenvalues --  -14.43419 -10.32220 -10.30642 -10.29923 -10.29918
 Alpha  occ. eigenvalues --   -1.15250  -0.81488  -0.74118  -0.63689  -0.49701
 Alpha  occ. eigenvalues --   -0.48919  -0.42051  -0.39824  -0.37508  -0.34443
 Alpha  occ. eigenvalues --   -0.30885  -0.29491
 Alpha virt. eigenvalues --   -0.05511   0.01181   0.01762   0.02259   0.02293
 Alpha virt. eigenvalues --    0.03668   0.04673   0.06909   0.07560   0.07807
 Alpha virt. eigenvalues --    0.09038   0.09112   0.11135   0.11581   0.13519

  Beta  occ. eigenvalues --  -14.42469 -10.30906 -10.29124 -10.28749 -10.28747
  Beta  occ. eigenvalues --   -1.13049  -0.78283  -0.71376  -0.60274  -0.47204
  Beta  occ. eigenvalues --   -0.42266  -0.37705  -0.35966  -0.33696
  Beta virt. eigenvalues --   -0.19490  -0.16925  -0.16109  -0.02546   0.02456
  Beta virt. eigenvalues --    0.02852   0.03002   0.03083   0.05761   0.06340
  Beta virt. eigenvalues --    0.07435   0.07637   0.08267   0.09388   0.09478

 Mulliken charges and spin densities:
               1          2
     1  C    0.006577   0.531770
     2  C    0.161876   0.576298
     3  C    0.006577   0.531770
     4  C    0.206662   0.977141
     5  N   -0.381693   0.383020
 Sum of Mulliken charges =  -0.00000   3.00000

 Dipole moment (field-independent basis, Debye):
    X=              0.8271    Y=              0.3110    Z=              0.0000  Tot=              0.8837
 Quadrupole moment (field-independent basis, Debye-Ang):
   XX=            -29.1786   YY=            -27.6965   ZZ=            -30.1008
   XY=             -0.2168   XZ=              0.0000   YZ=             -0.0000

  Exact polarizability:  45.305  -4.288  38.707   0.000   0.000  58.032
 Approx polarizability:  89.442 -11.979  72.302   0.000   0.000 111.314

                      1                      2                      3
                     A'                     A"                     A'
 Frequencies --    381.8260               481.9856               588.1162
 Red. masses --     12.0401                12.7577                12.5772
 Frc consts  --      1.0342                 1.7462                 2.5631
 IR Inten    --      3.0186                57.4002                15.1958

                      4                      5                      6
                     A'                     A"                     A'
 Frequencies --    773.5080               856.1764               933.2349
 Red. masses --     12.2451                12.1203                12.9063
 Frc consts  --      4.3166                 5.2347                 6.6227
 IR Inten    --     10.0472                 0.0128                11.7512

                      7                      8                      9
                     A'                     A"                     A'
 Frequencies --   1033.9814              1150.6652              1282.0312
 Red. masses --     12.1100                12.0027                12.2495
 Frc consts  --      7.6281                 9.3633                11.8622
 IR Inten    --      3.2370                 5.4889                 2.4795

 - Thermochemistry -
 -------------------
 Temperature   298.150 Kelvin.  Pressure   1.00000 Atm.
 Atom     1 has atomic number  6 and mass  12.00000

 Molecular mass:    62.00307 amu.
 Principal axes and moments of inertia in atomic units:
                           1         2         3
     Eigenvalues --   137.93973 148.06564 200.06820
           X            0.94600   0.00000   0.32417
           Y           -0.32417   0.00000   0.94600
           Z           -0.00000   1.00000  -0.00000
 This molecule is an asymmetric top.
 Rotational symmetry number  1.
 Rotational temperatures (Kelvin)      0.62791     0.58497     0.43292
 Rotational constants (GHZ):          13.08355    12.18879     9.02063
 Zero-point vibrational energy      44749.5 (Joules/Mol)
                                   10.69538 (Kcal/Mol)
 Warning -- explicit consideration of   3 degrees of freedom as
           vibrations may cause significant error
 Vibrational temperatures:    549.36   693.47   846.17  1112.90  1231.85
          (Kelvin)           1342.72  1487.67  1655.55  1844.55

 Zero-point correction=                           0.017044 (Hartree/Particle)
 Thermal correction to Energy=                    0.020871
 Thermal correction to Enthalpy=                  0.021815
 Thermal correction to Gibbs Free Energy=        -0.009954
 Sum of electronic and zero-point Energies=           -206.743911
 Sum of electronic and thermal Energies=              -206.740084
 Sum of electronic and thermal Enthalpies=            -206.739140
 Sum of electronic and thermal Free Energies=         -206.770909

                     E (Thermal)             CV                S
                      KCal/Mol        Cal/Mol-Kelvin    Cal/Mol-Kelvin
 Total                   13.097             12.270             66.864
 Electronic               0.000              0.000              2.755
 Translational            0.889              2.981             38.293
 Rotational               0.889              2.981             22.929
 Vibrational             11.319              6.308              2.887
 Vibration     1          0.751              1.509              1.032
 Vibration     2          0.838              1.290              0.705
 Vibration     3          0.945              1.057              0.471

 Optimization completed.
    -- Stationary point found.
 Normal termination of Gaussian 09 at Tue Aug 16 18:05:49 2016.
