 Gaussian 09, Revision E.01,
 Gaussian 09:  EM64L-G09RevE.01 30-Nov-2015

 ----------------------------------
 #p b3lyp/6-311++G(3df,2p) opt freq
 ----------------------------------

 ---------
 b3lyp opt
 ---------
 Symbolic Z-matrix:
 Charge =  0 Multiplicity = 2

 SCF Done:  E(UB3LYP) =  -206.984500847     A.U. after   14 cycles
 SCF Done:  E(UB3LYP) =  -206.984552093     A.U. after   11 cycles
 SCF Done:  E(UB3LYP) =  -206.984552772     A.U. after    9 cycles
 Optimization completed.
    -- Stationary point found.
 Normal termination of Gaussian 09 at Tue Dec 13 10:41:28 2016.

 ----------------------------------------------------------------------
 #P Geom=AllCheck Guess=TCheck SCRF=Check GenChk UB3LYP/6-311++G(3df,2p
 ) Freq
 ----------------------------------------------------------------------

 Structure from the checkpoint file:  "/scratch/sergio/C4N.q0.m2-6.com-2358065/Gau-4210.chk"
 ---------
 b3lyp opt
 ---------
 Charge =  0 Multiplicity = 2

                         Standard orientation:
 ---------------------------------------------------------------------
 Center     Atomic      Atomic             Coordinates (Angstroms)
 Number     Number       Type             X           Y           Z
 ---------------------------------------------------------------------
      1          6           0        0.000000    0.000000    1.011721
      2          6           0        0.000000   -0.000000   -0.380386
      3          6           0        0.000000    0.678774   -1.579154
      4          6           0       -0.000000   -0.678774   -1.579154
      5          7           0        0.000000    0.000000    2.165977
 ---------------------------------------------------------------------

 SCF Done:  E(UB3LYP) =  -206.984552772     A.U. after    1 cycles

 The electronic state is 2-B2.
 Alpha  occ. eigenvalues --  -14.38897 -10.33089 -10.27628 -10.27109 -10.27037
 Alpha  occ. eigenvalues --   -1.00400  -0.97378  -0.76121  -0.56076  -0.49543
 Alpha  occ. eigenvalues --   -0.47314  -0.43271  -0.41769  -0.39479  -0.33339
 Alpha  occ. eigenvalues --   -0.30284
 Alpha virt. eigenvalues --   -0.13741  -0.05502  -0.03423   0.00126   0.03217
 Alpha virt. eigenvalues --    0.03227   0.03614   0.05990   0.06242   0.06959
 Alpha virt. eigenvalues --    0.07620   0.09783   0.10667   0.11453   0.11682

  Beta  occ. eigenvalues --  -14.38633 -10.32578 -10.27750 -10.26363 -10.26288
  Beta  occ. eigenvalues --   -0.99684  -0.96933  -0.75420  -0.53513  -0.46975
  Beta  occ. eigenvalues --   -0.46567  -0.42689  -0.40388  -0.39148  -0.30270
  Beta virt. eigenvalues --   -0.19436  -0.13032  -0.04143  -0.02142   0.00280
  Beta virt. eigenvalues --    0.03287   0.03529   0.03934   0.06054   0.06352
  Beta virt. eigenvalues --    0.07300   0.07654   0.10023   0.10923   0.11566

 Mulliken charges and spin densities:
               1          2
     1  C    0.256710  -0.103138
     2  C    0.924379   0.283555
     3  C   -0.139995   0.344190
     4  C   -0.139995   0.344190
     5  N   -0.901098   0.131203
 Sum of Mulliken charges =  -0.00000   1.00000

 Dipole moment (field-independent basis, Debye):
    X=              0.0000    Y=              0.0000    Z=             -0.6367  Tot=              0.6367
 Quadrupole moment (field-independent basis, Debye-Ang):
   XX=            -26.3815   YY=            -30.3443   ZZ=            -34.9750
   XY=             -0.0000   XZ=             -0.0000   YZ=             -0.0000

  Exact polarizability:  29.900  -0.000  55.042  -0.000   0.000  73.052
 Approx polarizability:  44.231   0.000  85.513   0.000  -0.000 134.459

                      1                      2                      3
                     B2                     B1                     B2
 Frequencies --    200.5861               234.0311               540.3627
 Red. masses --     12.4849                12.4758                12.1091
 Frc consts  --      0.2960                 0.4026                 2.0832
 IR Inten    --     53.7132                16.7495               169.3902

                      4                      5                      6
                     B2                     B1                     A1
 Frequencies --    575.2980               575.5440               722.4550
 Red. masses --     12.0061                12.0637                12.6308
 Frc consts  --      2.3412                 2.3544                 3.8842
 IR Inten    --    358.0346                 1.3981                 0.0319

                      7                      8                      9
                     A1                     A1                     A1
 Frequencies --   1291.8542              1672.7952              2300.5669
 Red. masses --     12.0489                12.0425                12.6744
 Frc consts  --     11.8474                19.8541                39.5228
 IR Inten    --     38.1575                14.1130                14.7841

 - Thermochemistry -
 -------------------
 Temperature   298.150 Kelvin.  Pressure   1.00000 Atm.
 Atom     1 has atomic number  6 and mass  12.00000

 Molecular mass:    62.00307 amu.
 Principal axes and moments of inertia in atomic units:
                           1         2         3
     Eigenvalues --    39.48745 498.39049 537.87794
           X            0.00000  -0.00000   1.00000
           Y            0.00000   1.00000   0.00000
           Z            1.00000  -0.00000   0.00000
 This molecule is an asymmetric top.
 Rotational symmetry number  2.
 Rotational temperatures (Kelvin)      2.19345     0.17379     0.16103
 Rotational constants (GHZ):          45.70417     3.62114     3.35530
 Zero-point vibrational energy      48529.5 (Joules/Mol)
                                   11.59882 (Kcal/Mol)
 Warning -- explicit consideration of   5 degrees of freedom as
           vibrations may cause significant error
 Vibrational temperatures:    288.60   336.72   777.46   827.72   828.08
          (Kelvin)           1039.45  1858.69  2406.78  3310.00

 Zero-point correction=                           0.018484 (Hartree/Particle)
 Thermal correction to Energy=                    0.023048
 Thermal correction to Enthalpy=                  0.023992
 Thermal correction to Gibbs Free Energy=        -0.008322
 Sum of electronic and zero-point Energies=           -206.966069
 Sum of electronic and thermal Energies=              -206.961505
 Sum of electronic and thermal Enthalpies=            -206.960561
 Sum of electronic and thermal Free Energies=         -206.992875

                     E (Thermal)             CV                S
                      KCal/Mol        Cal/Mol-Kelvin    Cal/Mol-Kelvin
 Total                   14.463             13.902             68.010
 Electronic               0.000              0.000              1.377
 Translational            0.889              2.981             38.293
 Rotational               0.889              2.981             22.497
 Vibrational             12.685              7.941              5.843
 Vibration     1          0.638              1.839              2.128
 Vibration     2          0.654              1.789              1.848
 Vibration     3          0.895              1.161              0.565
 Vibration     4          0.932              1.085              0.494
 Vibration     5          0.932              1.084              0.494

 Optimization completed.
    -- Stationary point found.
 Normal termination of Gaussian 09 at Tue Dec 13 10:46:13 2016.
