 Gaussian 09, Revision D.01,
 Gaussian 09:  EM64L-G09RevD.01 24-Apr-2013

 ------------------------------
 #p b3lyp/6-311++G(3df,2p) freq
 ------------------------------

 ---------
 b3lyp opt
 ---------
 Symbolic Z-matrix:
 Charge =  0 Multiplicity = 2

                         Standard orientation:
 ---------------------------------------------------------------------
 Center     Atomic      Atomic             Coordinates (Angstroms)
 Number     Number       Type             X           Y           Z
 ---------------------------------------------------------------------
      1          6           0        0.000000    0.000000    1.252868
      2          6           0        0.000000    0.000000   -0.084071
      3          6           0        0.000000    0.000000   -1.337751
      4          6           0        0.000000    0.000000   -2.654390
      5          7           0        0.000000    0.000000    2.420011
 ---------------------------------------------------------------------

 SCF Done:  E(UB3LYP) =  -206.997049758     A.U. after   17 cycles

 Unable to determine electronic state:  an orbital has unidentified symmetry.
 Alpha  occ. eigenvalues --  -14.39372 -10.30865 -10.28074 -10.28051 -10.24808
 Alpha  occ. eigenvalues --   -0.98032  -0.87686  -0.78757  -0.68936  -0.46537
 Alpha  occ. eigenvalues --   -0.45518  -0.43746  -0.38852  -0.37375  -0.34776
 Alpha  occ. eigenvalues --   -0.27134
 Alpha virt. eigenvalues --   -0.20092  -0.04259  -0.03104  -0.00899   0.03096
 Alpha virt. eigenvalues --    0.04006   0.04096   0.05488   0.07417   0.07556
 Alpha virt. eigenvalues --    0.08750   0.10745   0.11196   0.12794   0.14933

  Beta  occ. eigenvalues --  -14.38815 -10.30174 -10.28277 -10.27227 -10.25027
  Beta  occ. eigenvalues --   -0.97186  -0.86626  -0.77062  -0.68074  -0.45238
  Beta  occ. eigenvalues --   -0.44202  -0.42924  -0.37165  -0.36026  -0.33317
  Beta virt. eigenvalues --   -0.19108  -0.16880  -0.02903  -0.01648  -0.00811
  Beta virt. eigenvalues --    0.03207   0.04005   0.04259   0.05572   0.07620
  Beta virt. eigenvalues --    0.07980   0.08770   0.11327   0.11870   0.13241

 Mulliken charges and spin densities:
               1          2
     1  C   -0.169189  -0.236854
     2  C    0.669118   0.487502
     3  C    1.361862   0.012433
     4  C   -0.954240   0.461747
     5  N   -0.907551   0.275172
 Sum of Mulliken charges =   0.00000   1.00000

 Dipole moment (field-independent basis, Debye):
    X=              0.0000    Y=              0.0000    Z=              0.3340  Tot=              0.3340
 Quadrupole moment (field-independent basis, Debye-Ang):
   XX=            -26.3555   YY=            -27.9997   ZZ=            -42.2392
   XY=              0.0000   XZ=              0.0000   YZ=              0.0000

  Exact polarizability:  31.417   0.000  32.149   0.000   0.000 115.823
 Approx polarizability:  45.756   0.000  43.848   0.000   0.000 270.468

                      1                      2                      3
                     ?A                     ?A                     ?A
 Frequencies --    116.6820               134.7191               308.2723
 Red. masses --     12.3613                12.3500                12.2554
 Frc consts  --      0.0992                 0.1321                 0.6862
 IR Inten    --      8.8360                18.7968                 0.4896

                      4                      5                      6
                     ?A                     ?A                     ?A
 Frequencies --    368.8868               448.2148               592.1714
 Red. masses --     12.0170                12.2878                12.0589
 Frc consts  --      0.9635                 1.4544                 2.4914
 IR Inten    --      1.8084                 6.4941                 0.0943

                      7                      8                      9
                     SG                     SG                     SG
 Frequencies --    752.5259              1421.3257              1988.2358
 Red. masses --     12.5790                12.1856                12.0224
 Frc consts  --      4.1970                14.5038                28.0011
 IR Inten    --      7.4975               101.9457               328.5605

                     10
                     SG
 Frequencies --   2180.5980
 Red. masses --     12.6000
 Frc consts  --     35.2998
 IR Inten    --      0.1243

 - Thermochemistry -
 -------------------
 Temperature   298.150 Kelvin.  Pressure   1.00000 Atm.
 Atom     1 has atomic number  6 and mass  12.00000

 Molecular mass:    62.00307 amu.
 Principal axes and moments of inertia in atomic units:
                           1         2         3
     Eigenvalues --     0.00000 739.04498 739.04498
           X            0.00000   0.00000   1.00000
           Y            0.00000   1.00000   0.00000
           Z            1.00000   0.00000   0.00000
 This molecule is a prolate symmetric top.
 Rotational symmetry number  1.
 Warning -- assumption of classical behavior for rotation
           may cause significant error
 Rotational temperature (Kelvin)      0.11720
 Rotational constant (GHZ):           2.441991
 Zero-point vibrational energy      49714.6 (Joules/Mol)
                                   11.88207 (Kcal/Mol)
 Warning -- explicit consideration of   6 degrees of freedom as
           vibrations may cause significant error
 Vibrational temperatures:    167.88   193.83   443.53   530.75   644.88
          (Kelvin)            852.00  1082.72  2044.97  2860.62  3137.39

 Zero-point correction=                           0.018935 (Hartree/Particle)
 Thermal correction to Energy=                    0.023951
 Thermal correction to Enthalpy=                  0.024895
 Thermal correction to Gibbs Free Energy=        -0.007063
 Sum of electronic and zero-point Energies=           -206.978114
 Sum of electronic and thermal Energies=              -206.973099
 Sum of electronic and thermal Enthalpies=            -206.972155
 Sum of electronic and thermal Free Energies=         -207.004113

                     E (Thermal)             CV                S
                      KCal/Mol        Cal/Mol-Kelvin    Cal/Mol-Kelvin
 Total                   15.029             15.279             67.261
 Electronic               0.000              0.000              1.377
 Translational            0.889              2.981             38.293
 Rotational               0.592              1.987             17.570
 Vibrational             13.548             10.311             10.021
 Vibration     1          0.608              1.936              3.155
 Vibration     2          0.613              1.919              2.878
 Vibration     3          0.698              1.658              1.372
 Vibration     4          0.741              1.536              1.084
 Vibration     5          0.807              1.365              0.801
 Vibration     6          0.950              1.048              0.463

 Optimization completed.
    -- Stationary point found.
 Normal termination of Gaussian 09 at Sun Aug 19 20:09:23 2018.
