 Gaussian 09, Revision E.01,
 Gaussian 09:  EM64L-G09RevE.01 30-Nov-2015

 ---------------------------------------------
 #p b3lyp/6-311++G(3df,2p) freq symmetry=Loose
 ---------------------------------------------

 ---------
 b3lyp opt
 ---------
 Symbolic Z-matrix:
 Charge =  0 Multiplicity = 2

                         Standard orientation:
 ---------------------------------------------------------------------
 Center     Atomic      Atomic             Coordinates (Angstroms)
 Number     Number       Type             X           Y           Z
 ---------------------------------------------------------------------
      1          6           0        0.000000    0.000000    2.440669
      2          6           0       -0.000000   -0.000000   -2.588303
      3          6           0       -0.000000   -0.000000   -1.278705
      4          6           0       -0.000000   -0.000000   -0.022710
      5          7           0        0.000000    0.000000    1.242042
 ---------------------------------------------------------------------

 SCF Done:  E(UB3LYP) =  -206.960836677     A.U. after   17 cycles

 Unable to determine electronic state:  an orbital has unidentified symmetry.
 Alpha  occ. eigenvalues --  -14.44343 -10.32947 -10.29731 -10.26328 -10.23430
 Alpha  occ. eigenvalues --   -1.05845  -0.87295  -0.80549  -0.70588  -0.50861
 Alpha  occ. eigenvalues --   -0.50224  -0.38315  -0.37948  -0.36571  -0.33408
 Alpha  occ. eigenvalues --   -0.25127
 Alpha virt. eigenvalues --   -0.18231  -0.05726  -0.04375  -0.00921   0.03266
 Alpha virt. eigenvalues --    0.03369   0.03725   0.05486   0.07710   0.07992
 Alpha virt. eigenvalues --    0.08326   0.09375   0.09984   0.12048   0.13653

  Beta  occ. eigenvalues --  -14.44586 -10.32230 -10.29254 -10.25524 -10.23663
  Beta  occ. eigenvalues --   -1.05541  -0.86242  -0.79638  -0.69184  -0.50126
  Beta  occ. eigenvalues --   -0.49341  -0.37307  -0.36484  -0.35402  -0.31974
  Beta virt. eigenvalues --   -0.17241  -0.15074  -0.04082  -0.02883  -0.00857
  Beta virt. eigenvalues --    0.03244   0.03492   0.03840   0.05632   0.08097
  Beta virt. eigenvalues --    0.08328   0.08523   0.10158   0.10757   0.12500

 Mulliken charges and spin densities:
               1          2
     1  C    0.092308   0.293418
     2  C   -0.638429   0.477967
     3  C    1.341232  -0.100354
     4  C    0.045754   0.436352
     5  N   -0.840866  -0.107383
 Sum of Mulliken charges =  -0.00000   1.00000

 Dipole moment (field-independent basis, Debye):
    X=              0.0000    Y=              0.0000    Z=              1.4634  Tot=              1.4634
 Quadrupole moment (field-independent basis, Debye-Ang):
   XX=            -26.5352   YY=            -28.2526   ZZ=            -43.1102
   XY=              0.0000   XZ=             -0.0000   YZ=             -0.0000

  Exact polarizability:  33.270  -0.000  34.069  -0.000  -0.000 122.727
 Approx polarizability:  48.935   0.000  46.873   0.000   0.000 266.320

                      1                      2                      3
                     ?A                     ?A                     ?A
 Frequencies --     69.4626               131.9839               255.8273
 Red. masses --     12.0002                12.0760                12.7575
 Frc consts  --      0.0341                 0.1239                 0.4919
 IR Inten    --      6.5235                16.1209                 0.0532

                      4                      5                      6
                     ?A                     ?A                     ?A
 Frequencies --    298.6494               355.8112               556.4906
 Red. masses --     12.2894                12.9196                12.3592
 Frc consts  --      0.6458                 0.9637                 2.2550
 IR Inten    --      4.4584                 0.0545                 3.4917

                      7                      8                      9
                     SG                     SG                     SG
 Frequencies --    793.5139              1465.3300              1934.5442
 Red. masses --     12.3405                12.0083                12.9335
 Frc consts  --      4.5782                15.1916                28.5183
 IR Inten    --      3.6689               133.7270               179.8411

                     10
                     SG
 Frequencies --   1986.9460
 Red. masses --     12.1246
 Frc consts  --     28.2026
 IR Inten    --    127.7807

 - Thermochemistry -
 -------------------
 Temperature   298.150 Kelvin.  Pressure   1.00000 Atm.
 Atom     1 has atomic number  6 and mass  12.00000

 Molecular mass:    62.00307 amu.
 Principal axes and moments of inertia in atomic units:
                           1         2         3
     Eigenvalues --     0.00000 689.58479 689.58479
           X            0.00000   0.80000  -0.60000
           Y            0.00000   0.60000   0.80000
           Z            1.00000  -0.00000  -0.00000
 This molecule is a prolate symmetric top.
 Rotational symmetry number  1.
 Warning -- assumption of classical behavior for rotation
           may cause significant error
 Rotational temperature (Kelvin)      0.12560
 Rotational constant (GHZ):           2.617142
 Zero-point vibrational energy      46944.8 (Joules/Mol)
                                   11.22008 (Kcal/Mol)
 Warning -- explicit consideration of   6 degrees of freedom as
           vibrations may cause significant error
 Vibrational temperatures:     99.94   189.90   368.08   429.69   511.93
          (Kelvin)            800.66  1141.69  2108.28  2783.37  2858.77

 Zero-point correction=                           0.017880 (Hartree/Particle)
 Thermal correction to Energy=                    0.023239
 Thermal correction to Enthalpy=                  0.024183
 Thermal correction to Gibbs Free Energy=        -0.008698
 Sum of electronic and zero-point Energies=           -206.942956
 Sum of electronic and thermal Energies=              -206.937598
 Sum of electronic and thermal Enthalpies=            -206.936654
 Sum of electronic and thermal Free Energies=         -206.969535

                     E (Thermal)             CV                S
                      KCal/Mol        Cal/Mol-Kelvin    Cal/Mol-Kelvin
 Total                   14.583             15.750             69.204
 Electronic               0.000              0.000              1.377
 Translational            0.889              2.981             38.293
 Rotational               0.592              1.987             17.432
 Vibrational             13.101             10.782             12.101
 Vibration     1          0.598              1.969              4.169
 Vibration     2          0.612              1.921              2.917
 Vibration     3          0.666              1.753              1.690
 Vibration     4          0.692              1.676              1.424
 Vibration     5          0.731              1.563              1.140
 Vibration     6          0.912              1.126              0.531

 Optimization completed.
    -- Stationary point found.
 Normal termination of Gaussian 09 at Tue Aug 16 18:02:30 2016.
