 Gaussian 09, Revision E.01,
 Gaussian 09:  EM64L-G09RevE.01 30-Nov-2015

 -----------------------------------------
 #p b3lyp/6-311+G(3df) freq symmetry=Loose
 -----------------------------------------

 ---------
 b3lyp opt
 ---------
 Symbolic Z-matrix:
 Charge =  2 Multiplicity = 1

                         Standard orientation:
 ---------------------------------------------------------------------
 Center     Atomic      Atomic             Coordinates (Angstroms)
 Number     Number       Type             X           Y           Z
 ---------------------------------------------------------------------
      1          6           0       -1.009654   -0.508742   -0.053115
      2          6           0        0.496603    0.999560   -0.382958
      3          6           0        1.109310   -0.187577    0.348196
      4          6           0        0.181003   -1.082848   -0.189305
      5          6           0       -0.777262    0.779606    0.277182
 ---------------------------------------------------------------------

 SCF Done:  E(RB3LYP) =  -189.084275389     A.U. after   16 cycles

 The electronic state is 1-A.
 Alpha  occ. eigenvalues --  -10.88679 -10.88456 -10.88225 -10.87879 -10.87717
 Alpha  occ. eigenvalues --   -1.55748  -1.30413  -1.29779  -1.11594  -1.03358
 Alpha  occ. eigenvalues --   -0.99442  -0.94921  -0.83482  -0.83243
 Alpha virt. eigenvalues --   -0.73388  -0.72908  -0.66361  -0.65635  -0.59747
 Alpha virt. eigenvalues --   -0.51354  -0.32085  -0.31474  -0.29207  -0.28606
 Alpha virt. eigenvalues --   -0.26782  -0.24822  -0.24727  -0.24049  -0.22779

 Mulliken charges:
               1
     1  C    0.166477
     2  C    0.367503
     3  C    0.290001
     4  C    0.624496
     5  C    0.551522
 Sum of Mulliken charges =   2.00000

 Dipole moment (field-independent basis, Debye):
    X=             -0.9078    Y=             -0.8363    Z=             -0.1231  Tot=              1.2404
 Quadrupole moment (field-independent basis, Debye-Ang):
   XX=            -11.7589   YY=            -11.8206   ZZ=            -22.9440
   XY=             -0.1358   XZ=             -0.0759   YZ=              0.6111

  Exact polarizability:  47.352  -0.831  46.028  -0.091   0.814  29.624
 Approx polarizability: 169.726  -8.601 159.017  -0.857   7.807  60.962

                      1                      2                      3
                      A                      A                      A
 Frequencies --     19.3930               352.1792               413.8533
 Red. masses --     12.0000                12.0000                12.0000
 Frc consts  --      0.0027                 0.8769                 1.2109
 IR Inten    --     57.5903                 0.3742                21.3998

                      4                      5                      6
                      A                      A                      A
 Frequencies --    508.4275               586.9487               737.7799
 Red. masses --     12.0000                12.0000                12.0000
 Frc consts  --      1.8276                 2.4357                 3.8484
 IR Inten    --      0.5692                 0.3579                15.9117

                      7                      8                      9
                      A                      A                      A
 Frequencies --   1068.8738              1282.4393              1454.5962
 Red. masses --     12.0000                12.0000                12.0000
 Frc consts  --      8.0776                11.6280                14.9595
 IR Inten    --     16.5482                 6.3186                63.9201

 - Thermochemistry -
 -------------------
 Temperature   298.150 Kelvin.  Pressure   1.00000 Atm.
 Atom     1 has atomic number  6 and mass  12.00000

 Molecular mass:    60.00000 amu.
 Principal axes and moments of inertia in atomic units:
                           1         2         3
     Eigenvalues --   148.13581 150.70760 265.98520
           X            1.00000  -0.00000   0.00000
           Y            0.00000   1.00000   0.00000
           Z           -0.00000  -0.00000   1.00000
 This molecule is an asymmetric top.
 Rotational symmetry number  1.
 Rotational temperatures (Kelvin)      0.58469     0.57471     0.32563
 Rotational constants (GHZ):          12.18302    11.97512     6.78512
 Zero-point vibrational energy      38427.0 (Joules/Mol)
                                    9.18427 (Kcal/Mol)
 Warning -- explicit consideration of   5 degrees of freedom as
           vibrations may cause significant error
 Vibrational temperatures:     27.90   506.71   595.44   731.51   844.49
          (Kelvin)           1061.50  1537.87  1845.14  2092.84

 Zero-point correction=                           0.014636 (Hartree/Particle)
 Thermal correction to Energy=                    0.019554
 Thermal correction to Enthalpy=                  0.020498
 Thermal correction to Gibbs Free Energy=        -0.013592
 Sum of electronic and zero-point Energies=           -189.069639
 Sum of electronic and thermal Energies=              -189.064721
 Sum of electronic and thermal Enthalpies=            -189.063777
 Sum of electronic and thermal Free Energies=         -189.097868

                     E (Thermal)             CV                S
                      KCal/Mol        Cal/Mol-Kelvin    Cal/Mol-Kelvin
 Total                   12.270             14.560             71.749
 Electronic               0.000              0.000              0.000
 Translational            0.889              2.981             38.195
 Rotational               0.889              2.981             23.300
 Vibrational             10.493              8.599             10.254
 Vibration     1          0.593              1.986              6.695
 Vibration     2          0.729              1.571              1.156
 Vibration     3          0.777              1.440              0.913
 Vibration     4          0.864              1.231              0.637
 Vibration     5          0.944              1.060              0.473

 Normal termination of Gaussian 09 at Thu Jun 16 17:46:27 2016.
