 Gaussian 09, Revision E.01,
 Gaussian 09:  EM64L-G09RevE.01 30-Nov-2015

 ---------------------------------------------
 #p b3lyp/6-311++G(3df,2p) freq symmetry=Loose
 ---------------------------------------------

 ---------
 b3lyp opt
 ---------
 Symbolic Z-matrix:
 Charge =  0 Multiplicity = 1

                         Standard orientation:
 ---------------------------------------------------------------------
 Center     Atomic      Atomic             Coordinates (Angstroms)
 Number     Number       Type             X           Y           Z
 ---------------------------------------------------------------------
      1          6           0        0.000000    0.000000    2.560114
      2          6           0        0.000000    0.000000    1.278164
      3          6           0        0.000000    0.000000    0.000000
      4          6           0        0.000000    0.000000   -1.278164
      5          6           0        0.000000    0.000000   -2.560114
 ---------------------------------------------------------------------

 SCF Done:  E(RB3LYP) =  -190.267721710     A.U. after   10 cycles

 The electronic state is 1-SGG.
 Alpha  occ. eigenvalues --  -10.33352 -10.28176 -10.28173 -10.23571 -10.23563
 Alpha  occ. eigenvalues --   -0.89494  -0.82765  -0.75379  -0.67726  -0.44110
 Alpha  occ. eigenvalues --   -0.44110  -0.34495  -0.34200  -0.33756  -0.33756
 Alpha virt. eigenvalues --   -0.18561  -0.18561  -0.02032  -0.02032  -0.00341
 Alpha virt. eigenvalues --    0.03742   0.04172   0.04172   0.05870   0.07850
 Alpha virt. eigenvalues --    0.07949   0.07949   0.09517   0.09517   0.13431

 Mulliken charges:
               1
     1  C   -0.746575
     2  C    1.194909
     3  C   -0.896669
     4  C    1.194909
     5  C   -0.746575
 Sum of Mulliken charges =  -0.00000

 Dipole moment (field-independent basis, Debye):
    X=             -0.0000    Y=              0.0000    Z=             -0.0000  Tot=              0.0000
 Quadrupole moment (field-independent basis, Debye-Ang):
   XX=            -27.6842   YY=            -27.6842   ZZ=            -43.1730
   XY=             -0.0000   XZ=              0.0000   YZ=              0.0000

  Exact polarizability:  35.562  -0.000  35.562   0.000   0.000 139.841
 Approx polarizability:  51.584  -0.000  51.584  -0.000  -0.000 444.138

                      1                      2                      3
                     PIU                    PIU                    PIG
 Frequencies --    125.2219               125.2219               237.0112
 Red. masses --     12.0000                12.0000                12.0000
 Frc consts  --      0.1109                 0.1109                 0.3972
 IR Inten    --     15.1339                15.1339                 0.0000

                      4                      5                      6
                     PIG                    PIU                    PIU
 Frequencies --    237.0112               614.6919               614.6919
 Red. masses --     12.0000                12.0000                12.0000
 Frc consts  --      0.3972                 2.6714                 2.6714
 IR Inten    --      0.0000                 2.3861                 2.3861

                      7                      8                      9
                     SGG                    SGU                    SGG
 Frequencies --    798.4044              1495.0032              2041.7722
 Red. masses --     12.0000                12.0000                12.0000
 Frc consts  --      4.5069                15.8021                29.4745
 IR Inten    --      0.0000               126.1906                 0.0000

                     10
                     SGU
 Frequencies --   2254.4927
 Red. masses --     12.0000
 Frc consts  --     35.9359
 IR Inten    --   2837.4798

 - Thermochemistry -
 -------------------
 Temperature   298.150 Kelvin.  Pressure   1.00000 Atm.
 Atom     1 has atomic number  6 and mass  12.00000

 Molecular mass:    60.00000 amu.
 Principal axes and moments of inertia in atomic units:
                           1         2         3
     Eigenvalues --     0.00000 701.74740 701.74740
           X           -0.00000   1.00000  -0.00000
           Y            0.00000   0.00000   1.00000
           Z            1.00000   0.00000  -0.00000
 This molecule is a prolate symmetric top.
 Rotational symmetry number  2.
 Warning -- assumption of classical behavior for rotation
           may cause significant error
 Rotational temperature (Kelvin)      0.12343
 Rotational constant (GHZ):           2.571782
 Zero-point vibrational energy      51101.6 (Joules/Mol)
                                   12.21358 (Kcal/Mol)
 Warning -- explicit consideration of   6 degrees of freedom as
           vibrations may cause significant error
 Vibrational temperatures:    180.17   180.17   341.01   341.01   884.40
          (Kelvin)            884.40  1148.72  2150.97  2937.65  3243.71

 Zero-point correction=                           0.019464 (Hartree/Particle)
 Thermal correction to Energy=                    0.024598
 Thermal correction to Enthalpy=                  0.025542
 Thermal correction to Gibbs Free Energy=        -0.005363
 Sum of electronic and zero-point Energies=           -190.248258
 Sum of electronic and thermal Energies=              -190.243124
 Sum of electronic and thermal Enthalpies=            -190.242180
 Sum of electronic and thermal Free Energies=         -190.273084

                     E (Thermal)             CV                S
                      KCal/Mol        Cal/Mol-Kelvin    Cal/Mol-Kelvin
 Total                   15.435             15.138             65.044
 Electronic               0.000              0.000              0.000
 Translational            0.889              2.981             38.195
 Rotational               0.592              1.987             16.090
 Vibrational             13.954             10.170             10.759
 Vibration     1          0.610              1.928              3.018
 Vibration     2          0.610              1.928              3.018
 Vibration     3          0.656              1.784              1.825
 Vibration     4          0.656              1.784              1.825
 Vibration     5          0.974              1.001              0.425
 Vibration     6          0.974              1.001              0.425

 Optimization completed.
    -- Stationary point found.
 Normal termination of Gaussian 09 at Sun Jun 19 00:38:19 2016.
