 Gaussian 09, Revision C.01,
 Gaussian 09:  AM64L-G09RevC.01 23-Sep-2011

 ---------------------------------------------
 #p b3lyp/6-311++G(3df,2p) freq symmetry=Loose
 ---------------------------------------------

 (Enter /home/nestor/.gaussian09/l101.exe)
 ---------
 b3lyp opt
 ---------
 Charge =  1 Multiplicity = 2

                         Standard orientation:
 ---------------------------------------------------------------------
 Center     Atomic      Atomic             Coordinates (Angstroms)
 Number     Number       Type             X           Y           Z
 ---------------------------------------------------------------------
      1          6           0        0.000000    0.000000    2.024068
      2          6           0        0.000000    0.761599   -0.534197
      3          6           0        0.000000    0.000000   -1.641205
      4          6           0        0.000000   -0.761599   -0.534197
      5          6           0        0.000000    0.000000    0.685532
 ---------------------------------------------------------------------

 SCF Done:  E(UB3LYP) =  -189.793004147     A.U. after   15 cycles

 The electronic state is 2-A1.
 Alpha  occ. eigenvalues --  -10.60225 -10.60200 -10.57868 -10.54988 -10.52875
 Alpha  occ. eigenvalues --   -1.33125  -1.07867  -0.95608  -0.87032  -0.75008
 Alpha  occ. eigenvalues --   -0.73992  -0.69144  -0.59535  -0.57093  -0.56393
 Alpha virt. eigenvalues --   -0.42183  -0.37629  -0.34812  -0.28777  -0.17517
 Alpha virt. eigenvalues --   -0.14986  -0.11836  -0.11777  -0.11623  -0.09028
 Alpha virt. eigenvalues --   -0.07170  -0.06482  -0.05452  -0.05280  -0.04649

  Beta  occ. eigenvalues --  -10.59872 -10.59849 -10.56074 -10.55082 -10.52719
  Beta  occ. eigenvalues --   -1.32720  -1.07449  -0.94671  -0.85576  -0.74300
  Beta  occ. eigenvalues --   -0.73357  -0.63326  -0.56994  -0.55893
  Beta virt. eigenvalues --   -0.45615  -0.41676  -0.37117  -0.33285  -0.27124
  Beta virt. eigenvalues --   -0.16163  -0.14743  -0.11755  -0.11539  -0.11121
  Beta virt. eigenvalues --   -0.08937  -0.07127  -0.06072  -0.05298  -0.05261

 Mulliken atomic charges:
              1
     1  C   -0.665177
     2  C    0.885842
     3  C   -0.510431
     4  C    0.885842
     5  C    0.403925
 Sum of Mulliken atomic charges =   1.00000

 Dipole moment (field-independent basis, Debye):
    X=              0.0000    Y=              0.0000    Z=             -1.5659  Tot=              1.5659
 Quadrupole moment (field-independent basis, Debye-Ang):
   XX=            -24.7224   YY=            -22.4449   ZZ=            -19.7551
   XY=              0.0000   XZ=              0.0000   YZ=              0.0000

  Exact polarizability:  26.090   0.000  36.508   0.000   0.000  66.715
 Approx polarizability:  39.237   0.000  79.864   0.000   0.000 143.675

                     1                      2                      3
                    B2                     B1                     B1
 Frequencies --   197.2911               215.0829               477.5963
 Red. masses --    12.0000                12.0000                12.0000
 Frc consts  --     0.2752                 0.3271                 1.6127
 IR Inten    --    11.9514                 0.5691                 8.5402

                     4                      5                      6
                    B2                     A1                     A1
 Frequencies --   649.6591               718.9669              1011.5668
 Red. masses --    12.0000                12.0000                12.0000
 Frc consts  --     2.9840                 3.6547                 7.2347
 IR Inten    --    36.6808                16.9041                 8.6741

                     7                      8                      9
                    B2                     A1                     A1
 Frequencies --  1047.0662              1650.5654              1758.1336
 Red. masses --    12.0000                12.0000                12.0000
 Frc consts  --     7.7514                19.2618                21.8542
 IR Inten    --    11.2316                34.3532               146.7206

 - Thermochemistry -
 -------------------
 Temperature   298.150 Kelvin.  Pressure   1.00000 Atm.
 Atom     1 has atomic number  6 and mass  12.00000

 Molecular mass:    60.00000 amu.
 Principal axes and moments of inertia in atomic units:
                           1         2         3
     Eigenvalues --    49.71212 335.58415 385.29627
           X            0.00000   0.00000   1.00000
           Y            0.00000   1.00000   0.00000
           Z            1.00000   0.00000   0.00000
 This molecule is an asymmetric top.
 Rotational symmetry number  2.
 Rotational temperatures (Kelvin)      1.74231     0.25810     0.22480
 Rotational constants (GHZ):          36.30385     5.37791     4.68403
 Zero-point vibrational energy      46211.3 (Joules/Mol)
                                   11.04477 (Kcal/Mol)
 Warning -- explicit consideration of   3 degrees of freedom as
           vibrations may cause significant error
 Vibrational temperatures:    283.86   309.46   687.15   934.71  1034.43
          (Kelvin)           1455.42  1506.49  2374.79  2529.56

 Zero-point correction=                           0.017601 (Hartree/Particle)
 Thermal correction to Energy=                    0.022087
 Thermal correction to Enthalpy=                  0.023031
 Thermal correction to Gibbs Free Energy=        -0.008936
 Sum of electronic and zero-point Energies=           -189.775403
 Sum of electronic and thermal Energies=              -189.770917
 Sum of electronic and thermal Enthalpies=            -189.769973
 Sum of electronic and thermal Free Energies=         -189.801940

                     E (Thermal)             CV                S
                      KCal/Mol        Cal/Mol-Kelvin    Cal/Mol-Kelvin
 Total                   13.860             13.412             67.282
 Electronic               0.000              0.000              1.377
 Translational            0.889              2.981             38.195
 Rotational               0.889              2.981             22.001
 Vibrational             12.083              7.450              5.708
 Vibration     1          0.637              1.844              2.158
 Vibration     2          0.645              1.818              2.000
 Vibration     3          0.834              1.300              0.717

 Optimization completed.
    -- Stationary point found.
 Normal termination of Gaussian 09 at Wed Jul  6 01:29:23 2016.
