 Gaussian 09, Revision E.01,
 Gaussian 09:  EM64L-G09RevE.01 30-Nov-2015

 -----------------------------------------
 #p b3lyp/6-311+G(3df) freq symmetry=Loose
 -----------------------------------------

 ---------
 b3lyp opt
 ---------
 Symbolic Z-matrix:
 Charge =  2 Multiplicity = 3

                         Standard orientation:
 ---------------------------------------------------------------------
 Center     Atomic      Atomic             Coordinates (Angstroms)
 Number     Number       Type             X           Y           Z
 ---------------------------------------------------------------------
      1          6           0       -0.997152   -0.689301   -0.000000
      2          6           0        0.509798    0.354417    0.853498
      3          6           0        0.509798    0.354417   -0.853498
      4          6           0        0.509798   -0.870318    0.000000
      5          6           0       -0.532243    0.850786   -0.000000
 ---------------------------------------------------------------------

 SCF Done:  E(UB3LYP) =  -189.037753639     A.U. after   24 cycles

 The electronic state is 3-A".
 Alpha  occ. eigenvalues --  -10.91960 -10.91709 -10.91700 -10.88229 -10.87798
 Alpha  occ. eigenvalues --   -1.64717  -1.27928  -1.24109  -1.21703  -0.99410
 Alpha  occ. eigenvalues --   -0.97701  -0.97676  -0.89697  -0.89645  -0.88361
 Alpha virt. eigenvalues --   -0.70470  -0.68676  -0.65711  -0.57527  -0.43292
 Alpha virt. eigenvalues --   -0.40233  -0.38642  -0.35422  -0.33942  -0.30108
 Alpha virt. eigenvalues --   -0.26715  -0.24211  -0.24070  -0.23696  -0.23225

  Beta  occ. eigenvalues --  -10.92016 -10.89527 -10.89520 -10.88420 -10.87121
  Beta  occ. eigenvalues --   -1.63617  -1.26600  -1.22525  -1.16985  -0.98387
  Beta  occ. eigenvalues --   -0.96150  -0.93001  -0.88793
  Beta virt. eigenvalues --   -0.74486  -0.74111  -0.68165  -0.66420  -0.60605
  Beta virt. eigenvalues --   -0.50162  -0.43906  -0.37274  -0.36817  -0.34947
  Beta virt. eigenvalues --   -0.31572  -0.29269  -0.26311  -0.24196  -0.23782

 Mulliken charges and spin densities:
               1          2
     1  C    0.121080   0.004111
     2  C    0.169481   1.025265
     3  C    0.169481   1.025265
     4  C    0.780218   0.389753
     5  C    0.759741  -0.444393
 Sum of Mulliken charges =   2.00000   2.00000

 Dipole moment (field-independent basis, Debye):
    X=              0.1456    Y=              0.2306    Z=             -0.0000  Tot=              0.2727
 Quadrupole moment (field-independent basis, Debye-Ang):
   XX=            -16.7607   YY=            -15.9555   ZZ=            -16.7899
   XY=              0.8469   XZ=             -0.0000   YZ=             -0.0000

  Exact polarizability:  37.768   0.391  39.036  -0.000  -0.000  29.200
 Approx polarizability: 104.262  -2.134 111.505   0.000   0.000  62.426

                      1                      2                      3
                     A'                     A'                     A"
 Frequencies --    279.1071               360.5362               548.8492
 Red. masses --     12.0000                12.0000                12.0000
 Frc consts  --      0.5508                 0.9190                 2.1298
 IR Inten    --      9.1849                 0.9116                 0.0001

                      4                      5                      6
                     A"                     A'                     A'
 Frequencies --    628.7719               668.0717               823.3525
 Red. masses --     12.0000                12.0000                12.0000
 Frc consts  --      2.7952                 3.1556                 4.7930
 IR Inten    --      0.0119                31.8504                14.5185

                      7                      8                      9
                     A'                     A"                     A'
 Frequencies --    998.6353              1065.5406              1212.3881
 Red. masses --     12.0000                12.0000                12.0000
 Frc consts  --      7.0509                 8.0273                10.3924
 IR Inten    --     11.9115                 8.6326                 2.4552

 - Thermochemistry -
 -------------------
 Temperature   298.150 Kelvin.  Pressure   1.00000 Atm.
 Atom     1 has atomic number  6 and mass  12.00000

 Molecular mass:    60.00000 amu.
 Principal axes and moments of inertia in atomic units:
                           1         2         3
     Eigenvalues --   146.54065 161.08903 182.76384
           X            0.52777   0.84939   0.00000
           Y            0.84939  -0.52777   0.00000
           Z           -0.00000  -0.00000   1.00000
 This molecule is an asymmetric top.
 Rotational symmetry number  1.
 Rotational temperatures (Kelvin)      0.59106     0.53768     0.47391
 Rotational constants (GHZ):          12.31564    11.20338     9.87472
 Zero-point vibrational energy      39388.6 (Joules/Mol)
                                    9.41409 (Kcal/Mol)
 Warning -- explicit consideration of   3 degrees of freedom as
           vibrations may cause significant error
 Vibrational temperatures:    401.57   518.73   789.67   904.66   961.21
          (Kelvin)           1184.62  1436.81  1533.07  1744.35

 Zero-point correction=                           0.015002 (Hartree/Particle)
 Thermal correction to Energy=                    0.019246
 Thermal correction to Enthalpy=                  0.020191
 Thermal correction to Gibbs Free Energy=        -0.011981
 Sum of electronic and zero-point Energies=           -189.022751
 Sum of electronic and thermal Energies=              -189.018507
 Sum of electronic and thermal Enthalpies=            -189.017563
 Sum of electronic and thermal Free Energies=         -189.049734

                     E (Thermal)             CV                S
                      KCal/Mol        Cal/Mol-Kelvin    Cal/Mol-Kelvin
 Total                   12.077             13.732             67.710
 Electronic               0.000              0.000              2.183
 Translational            0.889              2.981             38.195
 Rotational               0.889              2.981             22.983
 Vibrational             10.300              7.770              4.349
 Vibration     1          0.679              1.712              1.539
 Vibration     2          0.735              1.554              1.120
 Vibration     3          0.904              1.142              0.547

 Optimization completed.
    -- Stationary point found.
 Normal termination of Gaussian 09 at Sun Oct 23 02:13:09 2016.
