 Gaussian 09, Revision E.01,
 Gaussian 09:  EM64L-G09RevE.01 30-Nov-2015

 ---------------------------------------------
 #p b3lyp/6-311++G(3df,2p) freq symmetry=Loose
 ---------------------------------------------

 ---------
 b3lyp opt
 ---------
 Symbolic Z-matrix:
 Charge =  1 Multiplicity = 4

                         Standard orientation:
 ---------------------------------------------------------------------
 Center     Atomic      Atomic             Coordinates (Angstroms)
 Number     Number       Type             X           Y           Z
 ---------------------------------------------------------------------
      1          6           0        0.000000   -0.000000    1.058361
      2          6           0        0.000000   -1.095156    0.039923
      3          6           0       -0.765432    0.000000   -0.569104
      4          6           0        0.765432   -0.000000   -0.569104
      5          6           0       -0.000000    1.095156    0.039923
 ---------------------------------------------------------------------

 SCF Done:  E(UB3LYP) =  -189.688730134     A.U. after   15 cycles

 The electronic state is 4-A2.
 Alpha  occ. eigenvalues --  -10.60590 -10.60391 -10.60367 -10.58624 -10.58619
 Alpha  occ. eigenvalues --   -1.40331  -1.03594  -0.97931  -0.91767  -0.73406
 Alpha  occ. eigenvalues --   -0.73263  -0.68834  -0.63944  -0.61674  -0.61244
 Alpha  occ. eigenvalues --   -0.58406
 Alpha virt. eigenvalues --   -0.38296  -0.33782  -0.24490  -0.17907  -0.14888
 Alpha virt. eigenvalues --   -0.13228  -0.13093  -0.12864  -0.09259  -0.07296
 Alpha virt. eigenvalues --   -0.06660  -0.06645  -0.06611  -0.06348  -0.05848

  Beta  occ. eigenvalues --  -10.60169 -10.58734 -10.58712 -10.57061 -10.57059
  Beta  occ. eigenvalues --   -1.38669  -1.00930  -0.95286  -0.87375  -0.71448
  Beta  occ. eigenvalues --   -0.66925  -0.65203  -0.59183
  Beta virt. eigenvalues --   -0.46832  -0.46677  -0.41931  -0.35559  -0.28503
  Beta virt. eigenvalues --   -0.19465  -0.16065  -0.13847  -0.12581  -0.12061
  Beta virt. eigenvalues --   -0.09895  -0.08095  -0.06773  -0.06230  -0.06123

 Mulliken charges and spin densities:
               1          2
     1  C    0.012854   0.298714
     2  C    0.398855   0.582092
     3  C    0.094718   0.768551
     4  C    0.094718   0.768551
     5  C    0.398855   0.582092
 Sum of Mulliken charges =   1.00000   3.00000

 Dipole moment (field-independent basis, Debye):
    X=              0.0000    Y=             -0.0000    Z=             -0.4137  Tot=              0.4137
 Quadrupole moment (field-independent basis, Debye-Ang):
   XX=            -22.6879   YY=            -22.8259   ZZ=            -22.1476
   XY=              0.0000   XZ=              0.0000   YZ=              0.0000

  Exact polarizability:  33.137  -0.000  44.329   0.000  -0.000  38.269
 Approx polarizability:  64.704  -0.000  85.958   0.000   0.000  94.236

                      1                      2                      3
                     B2                     A1                     B1
 Frequencies --    423.7407               449.0874               592.0386
 Red. masses --     12.0000                12.0000                12.0000
 Frc consts  --      1.2695                 1.4259                 2.4782
 IR Inten    --     15.8663                20.4646                 0.3520

                      4                      5                      6
                     A2                     A1                     B1
 Frequencies --    747.7198               834.1255               956.7544
 Red. masses --     12.0000                12.0000                12.0000
 Frc consts  --      3.9528                 4.9192                 6.4719
 IR Inten    --      0.0000                22.7907                 1.4311

                      7                      8                      9
                     A1                     B2                     A1
 Frequencies --    958.9455              1258.4394              1305.3168
 Red. masses --     12.0000                12.0000                12.0000
 Frc consts  --      6.5016                11.1969                12.0466
 IR Inten    --      0.0920                 8.2083                 1.6748

 - Thermochemistry -
 -------------------
 Temperature   298.150 Kelvin.  Pressure   1.00000 Atm.
 Atom     1 has atomic number  6 and mass  12.00000

 Molecular mass:    60.00000 amu.
 Principal axes and moments of inertia in atomic units:
                           1         2         3
     Eigenvalues --   126.10907 153.00608 178.68781
           X           -0.00000   0.00000   1.00000
           Y            1.00000   0.00000   0.00000
           Z           -0.00000   1.00000  -0.00000
 This molecule is an asymmetric top.
 Rotational symmetry number  2.
 Rotational temperatures (Kelvin)      0.68682     0.56608     0.48472
 Rotational constants (GHZ):          14.31095    11.79523    10.09997
 Zero-point vibrational energy      45016.5 (Joules/Mol)
                                   10.75920 (Kcal/Mol)
 Warning -- explicit consideration of   3 degrees of freedom as
           vibrations may cause significant error
 Vibrational temperatures:    609.67   646.14   851.81  1075.80  1200.12
          (Kelvin)           1376.55  1379.71  1810.61  1878.06

 Zero-point correction=                           0.017146 (Hartree/Particle)
 Thermal correction to Energy=                    0.020969
 Thermal correction to Enthalpy=                  0.021913
 Thermal correction to Gibbs Free Energy=        -0.009061
 Sum of electronic and zero-point Energies=           -189.671584
 Sum of electronic and thermal Energies=              -189.667761
 Sum of electronic and thermal Enthalpies=            -189.666817
 Sum of electronic and thermal Free Energies=         -189.697791

                     E (Thermal)             CV                S
                      KCal/Mol        Cal/Mol-Kelvin    Cal/Mol-Kelvin
 Total                   13.158             12.295             65.191
 Electronic               0.000              0.000              2.755
 Translational            0.889              2.981             38.195
 Rotational               0.889              2.981             21.382
 Vibrational             11.381              6.334              2.858
 Vibration     1          0.786              1.419              0.879
 Vibration     2          0.808              1.363              0.799
 Vibration     3          0.950              1.049              0.464

 Optimization completed.
    -- Stationary point found.
 Normal termination of Gaussian 09 at Sat Jul  2 15:29:47 2016.
