 Gaussian 09, Revision E.01,
 Gaussian 09:  EM64L-G09RevE.01 30-Nov-2015

 ---------------------------------------------
 #p b3lyp/6-311++G(3df,2p) freq symmetry=Loose
 ---------------------------------------------

 ---------
 b3lyp opt
 ---------
 Symbolic Z-matrix:
 Charge =  1 Multiplicity = 2

                         Standard orientation:
 ---------------------------------------------------------------------
 Center     Atomic      Atomic             Coordinates (Angstroms)
 Number     Number       Type             X           Y           Z
 ---------------------------------------------------------------------
      1          6           0        0.000000    0.000000    0.606759
      2          6           0        0.000000   -1.467622    0.386432
      3          6           0       -0.000000   -0.719026   -0.689811
      4          6           0        0.000000    0.719026   -0.689811
      5          6           0        0.000000    1.467622    0.386432
 ---------------------------------------------------------------------

 SCF Done:  E(UB3LYP) =  -189.778631658     A.U. after   13 cycles

 The electronic state is 2-A1.
 Alpha  occ. eigenvalues --  -10.64626 -10.60169 -10.60130 -10.55722 -10.55719
 Alpha  occ. eigenvalues --   -1.36885  -1.16264  -0.96563  -0.84410  -0.77857
 Alpha  occ. eigenvalues --   -0.74668  -0.71837  -0.62704  -0.58435  -0.56359
 Alpha virt. eigenvalues --   -0.40904  -0.40786  -0.30513  -0.23296  -0.22557
 Alpha virt. eigenvalues --   -0.17346  -0.13394  -0.12178  -0.10374  -0.09642
 Alpha virt. eigenvalues --   -0.07600  -0.07272  -0.06195  -0.05444  -0.04961

  Beta  occ. eigenvalues --  -10.64198 -10.60009 -10.59973 -10.54841 -10.54837
  Beta  occ. eigenvalues --   -1.36682  -1.15985  -0.95592  -0.82975  -0.77606
  Beta  occ. eigenvalues --   -0.73780  -0.69934  -0.57751  -0.55892
  Beta virt. eigenvalues --   -0.45967  -0.40381  -0.39642  -0.28786  -0.21591
  Beta virt. eigenvalues --   -0.21479  -0.17131  -0.12980  -0.12132  -0.10091
  Beta virt. eigenvalues --   -0.09491  -0.07404  -0.06858  -0.06146  -0.05400

 Mulliken charges and spin densities:
               1          2
     1  C    0.360299   0.154028
     2  C    0.069190   0.381687
     3  C    0.250660   0.041299
     4  C    0.250660   0.041299
     5  C    0.069190   0.381687
 Sum of Mulliken charges =   1.00000   1.00000

 Dipole moment (field-independent basis, Debye):
    X=              0.0000    Y=             -0.0000    Z=             -1.4579  Tot=              1.4579
 Quadrupole moment (field-independent basis, Debye-Ang):
   XX=            -24.2415   YY=            -22.3593   ZZ=            -21.6097
   XY=             -0.0000   XZ=             -0.0000   YZ=              0.0000

  Exact polarizability:  24.416   0.000  94.889  -0.000  -0.000  33.693
 Approx polarizability:  37.785   0.000 244.770   0.000  -0.000  76.046

                      1                      2                      3
                     A2                     B1                     B2
 Frequencies --    289.2825               365.9671               378.1384
 Red. masses --     12.0000                12.0000                12.0000
 Frc consts  --      0.5917                 0.9469                 1.0110
 IR Inten    --      0.0000                 1.9328               352.3471

                      4                      5                      6
                     A1                     B2                     A1
 Frequencies --    587.3711               597.4006               838.5339
 Red. masses --     12.0000                12.0000                12.0000
 Frc consts  --      2.4393                 2.5233                 4.9713
 IR Inten    --      0.7217                 1.6682                10.3336

                      7                      8                      9
                     A1                     B2                     A1
 Frequencies --   1246.9886              1461.3551              1673.2459
 Red. masses --     12.0000                12.0000                12.0000
 Frc consts  --     10.9940                15.0988                19.7948
 IR Inten    --      3.2446               452.0081                17.1366

 - Thermochemistry -
 -------------------
 Temperature   298.150 Kelvin.  Pressure   1.00000 Atm.
 Atom     1 has atomic number  6 and mass  12.00000

 Molecular mass:    60.00000 amu.
 Principal axes and moments of inertia in atomic units:
                           1         2         3
     Eigenvalues --    69.35698 228.91211 298.26909
           X            0.00000   0.00000   1.00000
           Y            1.00000   0.00000  -0.00000
           Z            0.00000   1.00000   0.00000
 This molecule is an asymmetric top.
 Rotational symmetry number  2.
 Rotational temperatures (Kelvin)      1.24881     0.37837     0.29039
 Rotational constants (GHZ):          26.02105     7.88399     6.05071
 Zero-point vibrational energy      44490.8 (Joules/Mol)
                                   10.63356 (Kcal/Mol)
 Warning -- explicit consideration of   5 degrees of freedom as
           vibrations may cause significant error
 Vibrational temperatures:    416.21   526.54   544.06   845.09   859.53
          (Kelvin)           1206.46  1794.14  2102.56  2407.42

 Zero-point correction=                           0.016946 (Hartree/Particle)
 Thermal correction to Energy=                    0.021306
 Thermal correction to Enthalpy=                  0.022250
 Thermal correction to Gibbs Free Energy=        -0.009133
 Sum of electronic and zero-point Energies=           -189.761686
 Sum of electronic and thermal Energies=              -189.757326
 Sum of electronic and thermal Enthalpies=            -189.756382
 Sum of electronic and thermal Free Energies=         -189.787764

                     E (Thermal)             CV                S
                      KCal/Mol        Cal/Mol-Kelvin    Cal/Mol-Kelvin
 Total                   13.369             13.702             66.050
 Electronic               0.000              0.000              1.377
 Translational            0.889              2.981             38.195
 Rotational               0.889              2.981             21.698
 Vibrational             11.592              7.740              4.779
 Vibration     1          0.686              1.694              1.478
 Vibration     2          0.739              1.542              1.097
 Vibration     3          0.748              1.517              1.047
 Vibration     4          0.945              1.059              0.472
 Vibration     5          0.955              1.037              0.454

 Optimization completed.
    -- Stationary point found.
 Normal termination of Gaussian 09 at Sat Jul  2 15:31:22 2016.
