 Gaussian 09, Revision E.01,
 Gaussian 09:  EM64L-G09RevE.01 30-Nov-2015

 ---------------------------------------------
 #p b3lyp/6-311++G(3df,2p) freq symmetry=Loose
 ---------------------------------------------

 ---------
 b3lyp opt
 ---------
 Symbolic Z-matrix:
 Charge =  0 Multiplicity = 1

                         Standard orientation:
 ---------------------------------------------------------------------
 Center     Atomic      Atomic             Coordinates (Angstroms)
 Number     Number       Type             X           Y           Z
 ---------------------------------------------------------------------
      1          6           0       -0.000000    0.744507    0.073294
      2          6           0        0.000000   -0.000000    1.281295
      3          6           0       -0.000000   -1.786129   -0.713969
      4          6           0        0.000000    1.786129   -0.713969
      5          6           0       -0.000000   -0.744507    0.073294
 ---------------------------------------------------------------------

 SCF Done:  E(RB3LYP) =  -190.147476943     A.U. after   11 cycles

 The electronic state is 1-A1.
 Alpha  occ. eigenvalues --  -10.31658 -10.29954 -10.29953 -10.27242 -10.27216
 Alpha  occ. eigenvalues --   -0.98513  -0.80309  -0.77650  -0.51719  -0.48420
 Alpha  occ. eigenvalues --   -0.45994  -0.35900  -0.35030  -0.33018  -0.31586
 Alpha virt. eigenvalues --   -0.19595  -0.18893  -0.10547  -0.01330   0.01077
 Alpha virt. eigenvalues --    0.02260   0.03782   0.04752   0.05352   0.06024
 Alpha virt. eigenvalues --    0.06390   0.07457   0.08823   0.09204   0.10771

 Mulliken charges:
               1
     1  C    0.865865
     2  C   -0.312610
     3  C   -0.709560
     4  C   -0.709560
     5  C    0.865865
 Sum of Mulliken charges =  -0.00000

 Dipole moment (field-independent basis, Debye):
    X=             -0.0000    Y=             -0.0000    Z=              0.4384  Tot=              0.4384
 Quadrupole moment (field-independent basis, Debye-Ang):
   XX=            -28.1509   YY=            -34.6621   ZZ=            -32.3756
   XY=             -0.0000   XZ=              0.0000   YZ=             -0.0000

  Exact polarizability:  36.091  -0.000  88.686  -0.000  -0.000  54.865
 Approx polarizability:  55.383   0.000 264.351  -0.000  -0.000 106.514

                      1                      2                      3
                     A1                     B2                     B1
 Frequencies --     98.2547               252.0559               271.6724
 Red. masses --     12.0000                12.0000                12.0000
 Frc consts  --      0.0683                 0.4492                 0.5218
 IR Inten    --      9.6738                12.6012                11.0105

                      4                      5                      6
                     A2                     A1                     B2
 Frequencies --    346.5020               723.9655               801.4587
 Red. masses --     12.0000                12.0000                12.0000
 Frc consts  --      0.8489                 3.7057                 4.5414
 IR Inten    --      0.0000                 2.0114               137.3175

                      7                      8                      9
                     A1                     B2                     A1
 Frequencies --   1060.7102              1619.7409              1848.7808
 Red. masses --     12.0000                12.0000                12.0000
 Frc consts  --      7.9547                18.5491                24.1659
 IR Inten    --      3.5729               847.5223                92.3204

 - Thermochemistry -
 -------------------
 Temperature   298.150 Kelvin.  Pressure   1.00000 Atm.
 Atom     1 has atomic number  6 and mass  12.00000

 Molecular mass:    60.00000 amu.
 Principal axes and moments of inertia in atomic units:
                           1         2         3
     Eigenvalues --   114.50117 320.92863 435.42979
           X            0.00000  -0.00000   1.00000
           Y            1.00000   0.00000  -0.00000
           Z           -0.00000   1.00000   0.00000
 This molecule is an asymmetric top.
 Rotational symmetry number  2.
 Rotational temperatures (Kelvin)      0.75644     0.26988     0.19892
 Rotational constants (GHZ):          15.76177     5.62350     4.14474
 Zero-point vibrational energy      42007.7 (Joules/Mol)
                                   10.04008 (Kcal/Mol)
 Warning -- explicit consideration of   4 degrees of freedom as
           vibrations may cause significant error
 Vibrational temperatures:    141.37   362.65   390.88   498.54  1041.62
          (Kelvin)           1153.12  1526.12  2330.44  2659.98

 Zero-point correction=                           0.016000 (Hartree/Particle)
 Thermal correction to Energy=                    0.021091
 Thermal correction to Enthalpy=                  0.022035
 Thermal correction to Gibbs Free Energy=        -0.011055
 Sum of electronic and zero-point Energies=           -190.131477
 Sum of electronic and thermal Energies=              -190.126386
 Sum of electronic and thermal Enthalpies=            -190.125442
 Sum of electronic and thermal Free Energies=         -190.158532

                     E (Thermal)             CV                S
                      KCal/Mol        Cal/Mol-Kelvin    Cal/Mol-Kelvin
 Total                   13.235             14.797             69.643
 Electronic               0.000              0.000              0.000
 Translational            0.889              2.981             38.195
 Rotational               0.889              2.981             22.908
 Vibrational             11.457              8.835              8.540
 Vibration     1          0.604              1.950              3.489
 Vibration     2          0.664              1.759              1.716
 Vibration     3          0.675              1.725              1.586
 Vibration     4          0.724              1.582              1.182

 Normal termination of Gaussian 09 at Sun Jun 19 00:42:16 2016.
