 Gaussian 09, Revision E.01,
 Gaussian 09:  EM64L-G09RevE.01 30-Nov-2015

 -----------------------------------------
 #p b3lyp/6-311+G(3df) freq symmetry=Loose
 -----------------------------------------

 ---------
 b3lyp opt
 ---------
 Symbolic Z-matrix:
 Charge =  2 Multiplicity = 3

                         Standard orientation:
 ---------------------------------------------------------------------
 Center     Atomic      Atomic             Coordinates (Angstroms)
 Number     Number       Type             X           Y           Z
 ---------------------------------------------------------------------
      1          6           0       -0.000000    0.740208    0.358443
      2          6           0       -0.000000   -0.000000    1.506937
      3          6           0        0.000000    0.710753   -1.111912
      4          6           0       -0.000000   -0.710753   -1.111912
      5          6           0       -0.000000   -0.740208    0.358443
 ---------------------------------------------------------------------

 SCF Done:  E(UB3LYP) =  -189.122486323     A.U. after   16 cycles

 The electronic state is 3-A2.
 Alpha  occ. eigenvalues --  -10.89326 -10.89281 -10.89042 -10.89013 -10.85091
 Alpha  occ. eigenvalues --   -1.60147  -1.41847  -1.22709  -1.10864  -1.04789
 Alpha  occ. eigenvalues --   -1.02771  -0.98915  -0.86502  -0.86160  -0.85821
 Alpha virt. eigenvalues --   -0.71732  -0.69249  -0.54122  -0.53263  -0.51676
 Alpha virt. eigenvalues --   -0.46047  -0.34802  -0.33495  -0.29326  -0.26408
 Alpha virt. eigenvalues --   -0.26147  -0.25868  -0.23746  -0.22144  -0.21624

  Beta  occ. eigenvalues --  -10.89068 -10.89038 -10.86961 -10.86925 -10.85733
  Beta  occ. eigenvalues --   -1.58662  -1.38610  -1.20414  -1.07502  -1.03751
  Beta  occ. eigenvalues --   -0.99756  -0.97531  -0.83706
  Beta virt. eigenvalues --   -0.74466  -0.68848  -0.67682  -0.67213  -0.51984
  Beta virt. eigenvalues --   -0.51956  -0.46805  -0.44460  -0.34141  -0.31352
  Beta virt. eigenvalues --   -0.28922  -0.26222  -0.24836  -0.24480  -0.23149

 Mulliken charges and spin densities:
               1          2
     1  C    0.318098  -0.063713
     2  C    0.554880  -0.134687
     3  C    0.404462   1.131057
     4  C    0.404462   1.131057
     5  C    0.318098  -0.063713
 Sum of Mulliken charges =   2.00000   2.00000

 Dipole moment (field-independent basis, Debye):
    X=             -0.0000    Y=             -0.0000    Z=             -0.7414  Tot=              0.7414
 Quadrupole moment (field-independent basis, Debye-Ang):
   XX=            -20.7412   YY=            -15.7424   ZZ=            -11.5499
   XY=              0.0000   XZ=              0.0000   YZ=              0.0000

  Exact polarizability:  24.698   0.000  33.505  -0.000  -0.000  54.680
 Approx polarizability:  33.639   0.000  79.134   0.000  -0.000 130.778

                      1                      2                      3
                     B1                     A2                     B2
 Frequencies --    202.3229               500.0089               535.5345
 Red. masses --     12.0000                12.0000                12.0000
 Frc consts  --      0.2894                 1.7676                 2.0277
 IR Inten    --     28.1348                 0.0000                 2.1901

                      4                      5                      6
                     B2                     A1                     A1
 Frequencies --    708.7550               797.0656              1060.5203
 Red. masses --     12.0000                12.0000                12.0000
 Frc consts  --      3.5516                 4.4918                 7.9519
 IR Inten    --      6.4892                 9.1048                 0.1098

                      7                      8                      9
                     B2                     A1                     A1
 Frequencies --   1167.7572              1279.9065              1467.2868
 Red. masses --     12.0000                12.0000                12.0000
 Frc consts  --      9.6413                11.5821                15.2216
 IR Inten    --     12.8359                22.5286                 5.6072

 - Thermochemistry -
 -------------------
 Temperature   298.150 Kelvin.  Pressure   1.00000 Atm.
 Atom     1 has atomic number  6 and mass  12.00000

 Molecular mass:    60.00000 amu.
 Principal axes and moments of inertia in atomic units:
                           1         2         3
     Eigenvalues --    90.25451 214.28602 304.54053
           X            0.00000   0.00000   1.00000
           Y           -0.00000   1.00000  -0.00000
           Z            1.00000   0.00000  -0.00000
 This molecule is an asymmetric top.
 Rotational symmetry number  2.
 Rotational temperatures (Kelvin)      0.95966     0.40420     0.28441
 Rotational constants (GHZ):          19.99613     8.42211     5.92611
 Zero-point vibrational energy      46170.8 (Joules/Mol)
                                   11.03509 (Kcal/Mol)
 Warning -- explicit consideration of   3 degrees of freedom as
           vibrations may cause significant error
 Vibrational temperatures:    291.10   719.40   770.51  1019.74  1146.80
          (Kelvin)           1525.85  1680.14  1841.50  2111.10

 Zero-point correction=                           0.017586 (Hartree/Particle)
 Thermal correction to Energy=                    0.021653
 Thermal correction to Enthalpy=                  0.022597
 Thermal correction to Gibbs Free Energy=        -0.008908
 Sum of electronic and zero-point Energies=           -189.104901
 Sum of electronic and thermal Energies=              -189.100834
 Sum of electronic and thermal Enthalpies=            -189.099889
 Sum of electronic and thermal Free Energies=         -189.131394

                     E (Thermal)             CV                S
                      KCal/Mol        Cal/Mol-Kelvin    Cal/Mol-Kelvin
 Total                   13.587             12.472             66.307
 Electronic               0.000              0.000              2.183
 Translational            0.889              2.981             38.195
 Rotational               0.889              2.981             21.915
 Vibrational             11.810              6.511              4.014
 Vibration     1          0.639              1.837              2.112
 Vibration     2          0.855              1.250              0.658
 Vibration     3          0.891              1.171              0.575

 Optimization completed.
    -- Stationary point found.
 Normal termination of Gaussian 09 at Mon Oct 31 08:39:22 2016.
