 Gaussian 09, Revision C.01,
 Gaussian 09:  AM64L-G09RevC.01 23-Sep-2011

 ---------------------------------------------
 #p b3lyp/6-311++G(3df,2p) freq symmetry=Loose
 ---------------------------------------------

 (Enter /home/nestor/.gaussian09/l101.exe)
 ---------
 b3lyp opt
 ---------
 Charge =  0 Multiplicity = 1

                         Standard orientation:
 ---------------------------------------------------------------------
 Center     Atomic      Atomic             Coordinates (Angstroms)
 Number     Number       Type             X           Y           Z
 ---------------------------------------------------------------------
      1          6           0        0.000000    0.000000    0.930684
      2          6           0        0.000000    0.000000   -0.930684
      3          6           0        0.000000    1.170660    0.000000
      4          6           0        1.013821   -0.585330    0.000000
      5          6           0       -1.013821   -0.585330    0.000000
 ---------------------------------------------------------------------

 SCF Done:  E(RB3LYP) =  -190.105027325     A.U. after    9 cycles

 The electronic state is 1-A1'.
 Alpha  occ. eigenvalues --  -10.30844 -10.30841 -10.30841 -10.30236 -10.30234
 Alpha  occ. eigenvalues --   -1.07321  -0.68867  -0.68867  -0.66827  -0.42519
 Alpha  occ. eigenvalues --   -0.42519  -0.41717  -0.32752  -0.32752  -0.32502
 Alpha virt. eigenvalues --   -0.14343  -0.14122  -0.14122  -0.05736   0.02189
 Alpha virt. eigenvalues --    0.02745   0.03827   0.03827   0.08126   0.08126
 Alpha virt. eigenvalues --    0.08245   0.08697   0.08697   0.11082   0.11082

 Mulliken atomic charges:
              1
     1  C    0.393624
     2  C    0.393624
     3  C   -0.262416
     4  C   -0.262416
     5  C   -0.262416
 Sum of Mulliken atomic charges =   0.00000

 Dipole moment (field-independent basis, Debye):
    X=              0.0000    Y=              0.0000    Z=              0.0000  Tot=              0.0000
 Quadrupole moment (field-independent basis, Debye-Ang):
   XX=            -30.6794   YY=            -30.6794   ZZ=            -28.4942
   XY=              0.0000   XZ=              0.0000   YZ=              0.0000

  Exact polarizability:  53.444   0.000  53.443   0.000   0.000  50.235
 Approx polarizability: 133.796   0.000 133.796   0.000   0.000 144.414

                     1                      2                      3
                    E"                     E"                     E'
 Frequencies --   426.6076               426.6396               582.1893
 Red. masses --    12.0000                12.0000                12.0000
 Frc consts  --     1.2867                 1.2869                 2.3964
 IR Inten    --     0.0000                 0.0000                15.7427

                     4                      5                      6
                    E'                     A1'                    A2"
 Frequencies --   582.1895               702.3513               810.3799
 Red. masses --    12.0000                12.0000                12.0000
 Frc consts  --     2.3964                 3.4877                 4.6431
 IR Inten    --    15.7426                 0.0000                83.7620

                     7                      8                      9
                    E'                     E'                     A1'
 Frequencies --  1008.1576              1008.1591              1236.3028
 Red. masses --    12.0000                12.0000                12.0000
 Frc consts  --     7.1860                 7.1860                10.8064
 IR Inten    --     0.7142                 0.7143                 0.0000

 - Thermochemistry -
 -------------------
 Temperature   298.150 Kelvin.  Pressure   1.00000 Atm.
 Atom     1 has atomic number  6 and mass  12.00000

 Molecular mass:    60.00000 amu.
 Principal axes and moments of inertia in atomic units:
                           1         2         3
     Eigenvalues --   162.32693 162.32693 176.18211
           X           -0.51075   0.85973   0.00000
           Y            0.85973   0.51075   0.00000
           Z            0.00000   0.00000   1.00000
 This molecule is an oblate symmetric top.
 Rotational symmetry number  6.
 Rotational temperatures (Kelvin)      0.53358     0.53358     0.49162
 Rotational constants (GHZ):          11.11794    11.11794    10.24361
 Zero-point vibrational energy      40571.2 (Joules/Mol)
                                    9.69675 (Kcal/Mol)
 Warning -- explicit consideration of   4 degrees of freedom as
           vibrations may cause significant error
 Vibrational temperatures:    613.79   613.84   837.64   837.64  1010.53
          (Kelvin)           1165.95  1450.51  1450.51  1778.76

 Zero-point correction=                           0.015453 (Hartree/Particle)
 Thermal correction to Energy=                    0.019467
 Thermal correction to Enthalpy=                  0.020411
 Thermal correction to Gibbs Free Energy=        -0.008625
 Sum of electronic and zero-point Energies=           -190.089575
 Sum of electronic and thermal Energies=              -190.085560
 Sum of electronic and thermal Enthalpies=            -190.084616
 Sum of electronic and thermal Free Energies=         -190.113652

                     E (Thermal)             CV                S
                      KCal/Mol        Cal/Mol-Kelvin    Cal/Mol-Kelvin
 Total                   12.216             13.303             61.111
 Electronic               0.000              0.000              0.000
 Translational            0.889              2.981             38.195
 Rotational               0.889              2.981             19.495
 Vibrational             10.438              7.342              3.421
 Vibration     1          0.788              1.412              0.870
 Vibration     2          0.788              1.412              0.870
 Vibration     3          0.939              1.070              0.481
 Vibration     4          0.939              1.070              0.481

 Optimization completed.
    -- Stationary point found.
 Normal termination of Gaussian 09 at Wed Jul  6 00:59:58 2016.
