 Gaussian 09, Revision C.01,
 Gaussian 09:  AM64L-G09RevC.01 23-Sep-2011

 ---------------------------------------------
 #p b3lyp/6-311++G(3df,2p) freq symmetry=Loose
 ---------------------------------------------

 (Enter /home/nestor/.gaussian09/l101.exe)
 ---------
 b3lyp opt
 ---------
 Charge =  0 Multiplicity = 1

                         Standard orientation:
 ---------------------------------------------------------------------
 Center     Atomic      Atomic             Coordinates (Angstroms)
 Number     Number       Type             X           Y           Z
 ---------------------------------------------------------------------
      1          6           0        0.000000    0.000000    2.028228
      2          6           0        0.000000    0.739017   -0.510280
      3          6           0        0.000000    0.000000   -1.724697
      4          6           0        0.000000   -0.739017   -0.510280
      5          6           0        0.000000    0.000000    0.717028
 ---------------------------------------------------------------------

 SCF Done:  E(RB3LYP) =  -190.171809955     A.U. after   12 cycles

 The electronic state is 1-A1.
 Alpha  occ. eigenvalues --  -10.32124 -10.32090 -10.30430 -10.28529 -10.27555
 Alpha  occ. eigenvalues --   -1.05888  -0.83760  -0.71187  -0.59204  -0.49103
 Alpha  occ. eigenvalues --   -0.45801  -0.39545  -0.35429  -0.32553  -0.30107
 Alpha virt. eigenvalues --   -0.19162  -0.11611  -0.10618  -0.03495   0.01920
 Alpha virt. eigenvalues --    0.03659   0.03899   0.04714   0.04991   0.06103
 Alpha virt. eigenvalues --    0.06924   0.07508   0.09692   0.09838   0.10137

 Mulliken atomic charges:
              1
     1  C   -0.851182
     2  C    0.342106
     3  C   -0.634135
     4  C    0.342106
     5  C    0.801106
 Sum of Mulliken atomic charges =   0.00000

 Dipole moment (field-independent basis, Debye):
    X=              0.0000    Y=              0.0000    Z=              0.9260  Tot=              0.9260
 Quadrupole moment (field-independent basis, Debye-Ang):
   XX=            -27.9504   YY=            -28.3306   ZZ=            -39.0532
   XY=              0.0000   XZ=              0.0000   YZ=              0.0000

  Exact polarizability:  33.611   0.000  45.414   0.000   0.000  77.868
 Approx polarizability:  52.076   0.000  96.957   0.000   0.000 150.992

                     1                      2                      3
                    B2                     B1                     B2
 Frequencies --   174.7997               237.2991               381.5799
 Red. masses --    12.0000                12.0000                12.0000
 Frc consts  --     0.2160                 0.3981                 1.0294
 IR Inten    --    24.5700                12.9622               117.9860

                     4                      5                      6
                    B1                     A1                     B2
 Frequencies --   540.6649               792.4002               909.2382
 Red. masses --    12.0000                12.0000                12.0000
 Frc consts  --     2.0667                 4.4394                 5.8450
 IR Inten    --     1.3882                 5.7652                 3.0267

                     7                      8                      9
                    A1                     A1                     A1
 Frequencies --  1103.9900              1417.0268              1808.0540
 Red. masses --    12.0000                12.0000                12.0000
 Frc consts  --     8.6171                14.1967                23.1129
 IR Inten    --    26.2563                85.9662               105.3645

 - Thermochemistry -
 -------------------
 Temperature   298.150 Kelvin.  Pressure   1.00000 Atm.
 Atom     1 has atomic number  6 and mass  12.00000

 Molecular mass:    60.00000 amu.
 Principal axes and moments of inertia in atomic units:
                           1         2         3
     Eigenvalues --    46.80776 348.10112 394.90888
           X            0.00000   0.00000   1.00000
           Y            0.00000   1.00000   0.00000
           Z            1.00000   0.00000   0.00000
 This molecule is an asymmetric top.
 Rotational symmetry number  2.
 Rotational temperatures (Kelvin)      1.85042     0.24882     0.21933
 Rotational constants (GHZ):          38.55645     5.18453     4.57002
 Zero-point vibrational energy      44052.8 (Joules/Mol)
                                   10.52887 (Kcal/Mol)
 Warning -- explicit consideration of   4 degrees of freedom as
           vibrations may cause significant error
 Vibrational temperatures:    251.50   341.42   549.01   777.90  1140.09
          (Kelvin)           1308.19  1588.39  2038.78  2601.38

 Zero-point correction=                           0.016779 (Hartree/Particle)
 Thermal correction to Energy=                    0.021406
 Thermal correction to Enthalpy=                  0.022350
 Thermal correction to Gibbs Free Energy=        -0.009213
 Sum of electronic and zero-point Energies=           -190.155031
 Sum of electronic and thermal Energies=              -190.150404
 Sum of electronic and thermal Enthalpies=            -190.149460
 Sum of electronic and thermal Free Energies=         -190.181023

                     E (Thermal)             CV                S
                      KCal/Mol        Cal/Mol-Kelvin    Cal/Mol-Kelvin
 Total                   13.433             13.840             66.430
 Electronic               0.000              0.000              0.000
 Translational            0.889              2.981             38.195
 Rotational               0.889              2.981             22.002
 Vibrational             11.655              7.879              6.232
 Vibration     1          0.627              1.873              2.383
 Vibration     2          0.656              1.784              1.823
 Vibration     3          0.751              1.509              1.033
 Vibration     4          0.896              1.160              0.564

 Optimization completed.
    -- Stationary point found.
 Normal termination of Gaussian 09 at Wed Jul  6 00:46:44 2016.
