 Gaussian 09, Revision E.01,
 Gaussian 09:  EM64L-G09RevE.01 30-Nov-2015

 ---------------------------------------------
 #p b3lyp/6-311++G(3df,2p) freq symmetry=Loose
 ---------------------------------------------

 ---------
 b3lyp opt
 ---------
 Symbolic Z-matrix:
 Charge =  0 Multiplicity = 3

                         Standard orientation:
 ---------------------------------------------------------------------
 Center     Atomic      Atomic             Coordinates (Angstroms)
 Number     Number       Type             X           Y           Z
 ---------------------------------------------------------------------
      1          6           0        0.000000    0.000000    2.550000
      2          6           0        0.000000    0.000000    1.292000
      3          6           0        0.000000    0.000000    0.000000
      4          6           0        0.000000    0.000000   -1.292000
      5          6           0        0.000000    0.000000   -2.550000
 ---------------------------------------------------------------------

 SCF Done:  E(UB3LYP) =  -190.181612974     A.U. after   15 cycles

 Unable to determine electronic state:  an orbital has unidentified symmetry.
 Alpha  occ. eigenvalues --  -10.29526 -10.28103 -10.28100 -10.23477 -10.23471
 Alpha  occ. eigenvalues --   -0.87551  -0.82142  -0.75340  -0.65963  -0.43367
 Alpha  occ. eigenvalues --   -0.42153  -0.39513  -0.39173  -0.35325  -0.33797
 Alpha  occ. eigenvalues --   -0.25335
 Alpha virt. eigenvalues --   -0.18690  -0.02630  -0.01776   0.00443   0.03387
 Alpha virt. eigenvalues --    0.04563   0.04681   0.05253   0.07607   0.07838
 Alpha virt. eigenvalues --    0.07840   0.09398   0.09704   0.13390   0.15612

  Beta  occ. eigenvalues --  -10.28792 -10.26370 -10.26367 -10.23661 -10.23654
  Beta  occ. eigenvalues --   -0.86486  -0.80705  -0.72427  -0.64576  -0.41978
  Beta  occ. eigenvalues --   -0.40792  -0.32987  -0.32028  -0.29175
  Beta virt. eigenvalues --   -0.27015  -0.16378  -0.14218  -0.00448   0.00571
  Beta virt. eigenvalues --    0.00678   0.03982   0.04587   0.04823   0.05627
  Beta virt. eigenvalues --    0.07914   0.08299   0.08803   0.09890   0.10240

 Mulliken charges and spin densities:
               1          2
     1  C   -0.469239   0.882255
     2  C    0.939862  -0.085166
     3  C   -0.941247   0.405823
     4  C    0.939862  -0.085166
     5  C   -0.469239   0.882255
 Sum of Mulliken charges =  -0.00000   2.00000

 Dipole moment (field-independent basis, Debye):
    X=             -0.0000    Y=             -0.0000    Z=              0.0000  Tot=              0.0000
 Quadrupole moment (field-independent basis, Debye-Ang):
   XX=            -27.3230   YY=            -29.0216   ZZ=            -33.7414
   XY=             -0.0000   XZ=              0.0000   YZ=              0.0000

  Exact polarizability:  23.313   0.000  17.590   0.000   0.000-120.336
 Approx polarizability:  51.699  -0.000  49.820  -0.000  -0.0003096.821

                      1                      2                      3
                     ?A                     ?A                     PIG
 Frequencies --    147.1238               175.5879               309.3641
 Red. masses --     12.0000                12.0000                12.0000
 Frc consts  --      0.1530                 0.2180                 0.6767
 IR Inten    --      0.6985                 0.1082                 0.0000

                      4                      5                      6
                     PIG                    ?A                     ?A
 Frequencies --    398.2773               704.7569               758.9518
 Red. masses --     12.0000                12.0000                12.0000
 Frc consts  --      1.1215                 3.5116                 4.0725
 IR Inten    --      0.0000               170.6970               111.9403

                      7                      8                      9
                     SGG                    SGU                    SGG
 Frequencies --    792.3148              1584.0632              1991.3833
 Red. masses --     12.0000                12.0000                12.0000
 Frc consts  --      4.4384                17.7409                28.0376
 IR Inten    --      0.0000               297.1788                 0.0000

                     10
                     SGU
 Frequencies --   2391.1831
 Red. masses --     12.0000
 Frc consts  --     40.4257
 IR Inten    --  29662.3193

 - Thermochemistry -
 -------------------
 Temperature   298.150 Kelvin.  Pressure   1.00000 Atm.
 Atom     1 has atomic number  6 and mass  12.00000

 Molecular mass:    60.00000 amu.
 Principal axes and moments of inertia in atomic units:
                           1         2         3
     Eigenvalues --     0.00000 700.36558 700.36558
           X           -0.00000   1.00000  -0.00000
           Y            0.00000   0.00000   1.00000
           Z            1.00000   0.00000  -0.00000
 This molecule is a prolate symmetric top.
 Rotational symmetry number  2.
 Warning -- assumption of classical behavior for rotation
           may cause significant error
 Rotational temperature (Kelvin)      0.12367
 Rotational constant (GHZ):           2.576856
 Zero-point vibrational energy      55345.3 (Joules/Mol)
                                   13.22784 (Kcal/Mol)
 Warning -- explicit consideration of   4 degrees of freedom as
           vibrations may cause significant error
 Vibrational temperatures:    211.68   252.63   445.11   573.03  1013.99
          (Kelvin)           1091.96  1139.96  2279.11  2865.15  3440.37

 Zero-point correction=                           0.021080 (Hartree/Particle)
 Thermal correction to Energy=                    0.025695
 Thermal correction to Enthalpy=                  0.026639
 Thermal correction to Gibbs Free Energy=        -0.004078
 Sum of electronic and zero-point Energies=           -190.160533
 Sum of electronic and thermal Energies=              -190.155918
 Sum of electronic and thermal Enthalpies=            -190.154974
 Sum of electronic and thermal Free Energies=         -190.185691

                     E (Thermal)             CV                S
                      KCal/Mol        Cal/Mol-Kelvin    Cal/Mol-Kelvin
 Total                   16.124             14.151             64.650
 Electronic               0.000              0.000              2.183
 Translational            0.889              2.981             38.195
 Rotational               0.592              1.987             16.086
 Vibrational             14.643              9.183              8.186
 Vibration     1          0.617              1.906              2.709
 Vibration     2          0.628              1.872              2.375
 Vibration     3          0.699              1.656              1.366
 Vibration     4          0.765              1.474              0.969

 Optimization completed.
    -- Stationary point found.
 Normal termination of Gaussian 09 at Sun Jun 19 00:42:44 2016.
