 Gaussian 09, Revision E.01,
 Gaussian 09:  EM64L-G09RevE.01 30-Nov-2015

 ---------------------------------------------
 #p b3lyp/6-311++G(3df,2p) freq symmetry=Loose
 ---------------------------------------------

 ---------
 b3lyp opt
 ---------
 Symbolic Z-matrix:
 Charge =  1 Multiplicity = 4

                         Standard orientation:
 ---------------------------------------------------------------------
 Center     Atomic      Atomic             Coordinates (Angstroms)
 Number     Number       Type             X           Y           Z
 ---------------------------------------------------------------------
      1          6           0        0.000000    0.000000    2.530455
      2          6           0        0.000000    0.000000    1.291314
      3          6           0        0.000000    0.000000    0.000000
      4          6           0        0.000000    0.000000   -1.291314
      5          6           0        0.000000    0.000000   -2.530455
 ---------------------------------------------------------------------

 SCF Done:  E(UB3LYP) =  -189.813936778     A.U. after   14 cycles

 Unable to determine electronic state:  an orbital has unidentified symmetry.
 Alpha  occ. eigenvalues --  -10.55046 -10.55042 -10.52476 -10.46978 -10.46971
 Alpha  occ. eigenvalues --   -1.10046  -1.05820  -0.99085  -0.88849  -0.67350
 Alpha  occ. eigenvalues --   -0.66988  -0.65541  -0.64106  -0.58872  -0.57304
 Alpha  occ. eigenvalues --   -0.48940
 Alpha virt. eigenvalues --   -0.42006  -0.24781  -0.23938  -0.15105  -0.10891
 Alpha virt. eigenvalues --   -0.09780  -0.09588  -0.08689  -0.07926  -0.07641
 Alpha virt. eigenvalues --   -0.05949  -0.05884  -0.05252  -0.02060  -0.00853

  Beta  occ. eigenvalues --  -10.52033 -10.52030 -10.51716 -10.47115 -10.47108
  Beta  occ. eigenvalues --   -1.08807  -1.03501  -0.95200  -0.87193  -0.63937
  Beta  occ. eigenvalues --   -0.62639  -0.55366  -0.54471
  Beta virt. eigenvalues --   -0.43718  -0.43449  -0.38140  -0.35876  -0.20940
  Beta virt. eigenvalues --   -0.19757  -0.14831  -0.09894  -0.09806  -0.09575
  Beta virt. eigenvalues --   -0.06775  -0.06139  -0.05464  -0.05118  -0.05051

 Mulliken charges and spin densities:
               1          2
     1  C    0.200404   1.515452
     2  C    0.782594  -0.195678
     3  C   -0.965994   0.360452
     4  C    0.782594  -0.195678
     5  C    0.200404   1.515452
 Sum of Mulliken charges =   1.00000   3.00000

 Dipole moment (field-independent basis, Debye):
    X=              0.0000    Y=             -0.0000    Z=             -0.0000  Tot=              0.0000
 Quadrupole moment (field-independent basis, Debye-Ang):
   XX=            -24.0941   YY=            -25.6333   ZZ=              3.3604
   XY=             -0.0000   XZ=             -0.0000   YZ=              0.0000

  Exact polarizability:  26.958  -0.000  27.647  -0.000   0.000 112.502
 Approx polarizability:  36.083  -0.000  34.858  -0.000  -0.000 309.119

                      1                      2                      3
                     ?A                     ?A                     PIG
 Frequencies --    147.3924               156.1175               294.2668
 Red. masses --     12.0000                12.0000                12.0000
 Frc consts  --      0.1536                 0.1723                 0.6122
 IR Inten    --      3.3175                 4.6113                 0.0000

                      4                      5                      6
                     PIG                    ?A                     ?A
 Frequencies --    372.0761               471.8886               630.8143
 Red. masses --     12.0000                12.0000                12.0000
 Frc consts  --      0.9788                 1.5744                 2.8134
 IR Inten    --      0.0000                 0.1040                 3.9535

                      7                      8                      9
                     SGG                    SGU                    SGU
 Frequencies --    807.6466              1600.7664              1946.0969
 Red. masses --     12.0000                12.0000                12.0000
 Frc consts  --      4.6118                18.1170                26.7769
 IR Inten    --      0.0000                 6.7924               917.4997

                     10
                     SGG
 Frequencies --   2053.7372
 Red. masses --     12.0000
 Frc consts  --     29.8209
 IR Inten    --      0.0000

 - Thermochemistry -
 -------------------
 Temperature   298.150 Kelvin.  Pressure   1.00000 Atm.
 Atom     1 has atomic number  6 and mass  12.00000

 Molecular mass:    60.00000 amu.
 Principal axes and moments of inertia in atomic units:
                           1         2         3
     Eigenvalues --     0.00000 691.70335 691.70335
           X           -0.00000   1.00000  -0.00000
           Y            0.00000   0.00000   1.00000
           Z            1.00000   0.00000  -0.00000
 This molecule is a prolate symmetric top.
 Rotational symmetry number  2.
 Warning -- assumption of classical behavior for rotation
           may cause significant error
 Rotational temperature (Kelvin)      0.12522
 Rotational constant (GHZ):           2.609126
 Zero-point vibrational energy      50726.5 (Joules/Mol)
                                   12.12392 (Kcal/Mol)
 Warning -- explicit consideration of   5 degrees of freedom as
           vibrations may cause significant error
 Vibrational temperatures:    212.06   224.62   423.38   535.33   678.94
          (Kelvin)            907.60  1162.02  2303.14  2800.00  2954.87

 Zero-point correction=                           0.019321 (Hartree/Particle)
 Thermal correction to Energy=                    0.024197
 Thermal correction to Enthalpy=                  0.025141
 Thermal correction to Gibbs Free Energy=        -0.006302
 Sum of electronic and zero-point Energies=           -189.794616
 Sum of electronic and thermal Energies=              -189.789740
 Sum of electronic and thermal Enthalpies=            -189.788796
 Sum of electronic and thermal Free Energies=         -189.820239

                     E (Thermal)             CV                S
                      KCal/Mol        Cal/Mol-Kelvin    Cal/Mol-Kelvin
 Total                   15.184             14.978             66.177
 Electronic               0.000              0.000              2.755
 Translational            0.889              2.981             38.195
 Rotational               0.592              1.987             16.061
 Vibrational             13.703             10.010              9.166
 Vibration     1          0.617              1.906              2.706
 Vibration     2          0.620              1.896              2.596
 Vibration     3          0.689              1.684              1.449
 Vibration     4          0.744              1.530              1.071
 Vibration     5          0.829              1.312              0.732

 Optimization completed.
    -- Stationary point found.
 Normal termination of Gaussian 09 at Sun Jun 19 00:49:46 2016.
