 Gaussian 09, Revision E.01,
 Gaussian 09:  EM64L-G09RevE.01 30-Nov-2015

 ---------------------------------------------
 #p b3lyp/6-311++G(3df,2p) freq symmetry=Loose
 ---------------------------------------------

 ---------
 b3lyp opt
 ---------
 Symbolic Z-matrix:
 Charge =  1 Multiplicity = 2

                         Standard orientation:
 ---------------------------------------------------------------------
 Center     Atomic      Atomic             Coordinates (Angstroms)
 Number     Number       Type             X           Y           Z
 ---------------------------------------------------------------------
      1          6           0        0.687383    0.764002   -0.243537
      2          6           0       -0.746862    0.723773    0.255913
      3          6           0       -1.314564   -0.402918   -0.154407
      4          6           0        0.033185   -0.719121    0.026677
      5          6           0        1.340858   -0.365736    0.115353
 ---------------------------------------------------------------------

 SCF Done:  E(UB3LYP) =  -189.772777826     A.U. after   26 cycles

 The electronic state is 2-A.
 Alpha  occ. eigenvalues --  -10.62327 -10.60907 -10.59579 -10.54922 -10.54414
 Alpha  occ. eigenvalues --   -1.33282  -1.13569  -0.95024  -0.81409  -0.80333
 Alpha  occ. eigenvalues --   -0.75398  -0.71319  -0.59164  -0.58492  -0.55878
 Alpha virt. eigenvalues --   -0.45159  -0.38156  -0.32724  -0.27509  -0.24387
 Alpha virt. eigenvalues --   -0.14154  -0.11805  -0.11262  -0.10243  -0.09353
 Alpha virt. eigenvalues --   -0.08105  -0.07587  -0.06131  -0.06012  -0.03799

  Beta  occ. eigenvalues --  -10.61942 -10.59838 -10.58678 -10.54713 -10.54587
  Beta  occ. eigenvalues --   -1.32789  -1.13361  -0.93136  -0.80506  -0.78053
  Beta  occ. eigenvalues --   -0.74439  -0.68988  -0.57771  -0.56994
  Beta virt. eigenvalues --   -0.44776  -0.43806  -0.36188  -0.30094  -0.26851
  Beta virt. eigenvalues --   -0.23568  -0.13567  -0.11707  -0.10995  -0.10050
  Beta virt. eigenvalues --   -0.08996  -0.07969  -0.07435  -0.05995  -0.05787

 Mulliken charges and spin densities:
               1          2
     1  C    0.192819   0.482140
     2  C    0.181021   0.373621
     3  C    0.115920   0.082590
     4  C    0.448904   0.189620
     5  C    0.061336  -0.127971
 Sum of Mulliken charges =   1.00000   1.00000

 Dipole moment (field-independent basis, Debye):
    X=             -0.0564    Y=              0.3761    Z=             -0.0015  Tot=              0.3803
 Quadrupole moment (field-independent basis, Debye-Ang):
   XX=            -21.7259   YY=            -20.8655   ZZ=            -24.7703
   XY=             -0.0073   XZ=             -0.7734   YZ=             -0.1814

  Exact polarizability:  64.084   0.028  37.503  -0.661   0.093  26.572
 Approx polarizability: 225.211  -0.746  87.514   5.499   0.542  44.699

                      1                      2                      3
                      A                      A                      A
 Frequencies --    290.3160               314.0873               555.1617
 Red. masses --     12.0000                12.0000                12.0000
 Frc consts  --      0.5959                 0.6975                 2.1791
 IR Inten    --      7.6749                11.9514                 0.3604

                      4                      5                      6
                      A                      A                      A
 Frequencies --    658.9958               790.5117              1018.1659
 Red. masses --     12.0000                12.0000                12.0000
 Frc consts  --      3.0704                 4.4182                 7.3294
 IR Inten    --      8.5110                 1.0826                10.9456

                      7                      8                      9
                      A                      A                      A
 Frequencies --   1085.5920              1304.1329              1493.5291
 Red. masses --     12.0000                12.0000                12.0000
 Frc consts  --      8.3323                12.0247                15.7710
 IR Inten    --     12.6646                23.6565               143.8835

 - Thermochemistry -
 -------------------
 Temperature   298.150 Kelvin.  Pressure   1.00000 Atm.
 Atom     1 has atomic number  6 and mass  12.00000

 Molecular mass:    60.00000 amu.
 Principal axes and moments of inertia in atomic units:
                           1         2         3
     Eigenvalues --    89.28156 202.26673 277.60730
           X            1.00000  -0.00000  -0.00000
           Y            0.00000   1.00000  -0.00000
           Z            0.00000   0.00000   1.00000
 This molecule is an asymmetric top.
 Rotational symmetry number  1.
 Rotational temperatures (Kelvin)      0.97012     0.42822     0.31200
 Rotational constants (GHZ):          20.21404     8.92258     6.50106
 Zero-point vibrational energy      44922.7 (Joules/Mol)
                                   10.73679 (Kcal/Mol)
 Warning -- explicit consideration of   3 degrees of freedom as
           vibrations may cause significant error
 Vibrational temperatures:    417.70   451.90   798.75   948.15  1137.37
          (Kelvin)           1464.91  1561.92  1876.35  2148.85

 Zero-point correction=                           0.017110 (Hartree/Particle)
 Thermal correction to Energy=                    0.021253
 Thermal correction to Enthalpy=                  0.022197
 Thermal correction to Gibbs Free Energy=        -0.009550
 Sum of electronic and zero-point Energies=           -189.755668
 Sum of electronic and thermal Energies=              -189.751525
 Sum of electronic and thermal Enthalpies=            -189.750581
 Sum of electronic and thermal Free Energies=         -189.782328

                     E (Thermal)             CV                S
                      KCal/Mol        Cal/Mol-Kelvin    Cal/Mol-Kelvin
 Total                   13.336             12.878             66.817
 Electronic               0.000              0.000              1.377
 Translational            0.889              2.981             38.195
 Rotational               0.889              2.981             23.132
 Vibrational             11.559              6.916              4.112
 Vibration     1          0.686              1.692              1.472
 Vibration     2          0.702              1.647              1.341
 Vibration     3          0.911              1.128              0.534

 Normal termination of Gaussian 09 at Sun Jun 19 00:54:50 2016.
