 Gaussian 09, Revision E.01,
 Gaussian 09:  EM64L-G09RevE.01 30-Nov-2015

 ---------------------------------------------
 #p b3lyp/6-311++G(3df,2p) freq symmetry=Loose
 ---------------------------------------------

 ---------
 b3lyp opt
 ---------
 Symbolic Z-matrix:
 Charge =  0 Multiplicity = 3

                         Standard orientation:
 ---------------------------------------------------------------------
 Center     Atomic      Atomic             Coordinates (Angstroms)
 Number     Number       Type             X           Y           Z
 ---------------------------------------------------------------------
      1          6           0       -0.340515   -1.549117    0.000000
      2          6           0        0.123874   -0.558561    0.812503
      3          6           0       -0.031107    1.979531   -0.000000
      4          6           0        0.123874   -0.558561   -0.812503
      5          6           0        0.123874    0.686708   -0.000000
 ---------------------------------------------------------------------

 SCF Done:  E(UB3LYP) =  -190.130290581     A.U. after   21 cycles

 The electronic state is 3-A".
 Alpha  occ. eigenvalues --  -10.32752 -10.32741 -10.29449 -10.26104 -10.25286
 Alpha  occ. eigenvalues --   -1.04125  -0.81324  -0.67644  -0.62958  -0.48735
 Alpha  occ. eigenvalues --   -0.47897  -0.42692  -0.35138  -0.32548  -0.31313
 Alpha  occ. eigenvalues --   -0.26539
 Alpha virt. eigenvalues --   -0.15402  -0.09661  -0.06044   0.01405   0.02955
 Alpha virt. eigenvalues --    0.03555   0.04127   0.04405   0.07009   0.07347
 Alpha virt. eigenvalues --    0.07488   0.08647   0.09016   0.10628   0.12125

  Beta  occ. eigenvalues --  -10.31907 -10.31896 -10.28099 -10.25867 -10.24551
  Beta  occ. eigenvalues --   -1.03100  -0.79240  -0.65239  -0.60025  -0.46761
  Beta  occ. eigenvalues --   -0.45946  -0.37044  -0.31149  -0.30285
  Beta virt. eigenvalues --   -0.21172  -0.16130  -0.11527  -0.07166  -0.03708
  Beta virt. eigenvalues --    0.01978   0.03696   0.03823   0.04972   0.05043
  Beta virt. eigenvalues --    0.07218   0.07689   0.07882   0.08985   0.09405

 Mulliken charges and spin densities:
               1          2
     1  C   -0.167303   0.688400
     2  C    0.047782   0.376280
     3  C   -0.599530   0.463656
     4  C    0.047782   0.376280
     5  C    0.671269   0.095385
 Sum of Mulliken charges =  -0.00000   2.00000

 Dipole moment (field-independent basis, Debye):
    X=              0.1315    Y=             -2.3993    Z=             -0.0000  Tot=              2.4029
 Quadrupole moment (field-independent basis, Debye-Ang):
   XX=            -28.3719   YY=            -35.5365   ZZ=            -28.6479
   XY=             -0.2341   XZ=              0.0000   YZ=             -0.0000

  Exact polarizability:  37.182   2.950  99.376   0.000   0.000  47.296
 Approx polarizability:  57.297   8.982 231.251   0.000   0.000  93.081

                      1                      2                      3
                     A'                     A"                     A"
 Frequencies --    182.6559               287.1427               370.8912
 Red. masses --     12.0000                12.0000                12.0000
 Frc consts  --      0.2359                 0.5829                 0.9726
 IR Inten    --     26.4826                20.3748                28.0740

                      4                      5                      6
                     A'                     A'                     A'
 Frequencies --    376.9956               596.0327               921.6477
 Red. masses --     12.0000                12.0000                12.0000
 Frc consts  --      1.0049                 2.5117                 6.0057
 IR Inten    --     94.0024                13.9602                 4.0842

                      7                      8                      9
                     A"                     A'                     A'
 Frequencies --   1123.7789              1271.7379              1726.3325
 Red. masses --     12.0000                12.0000                12.0000
 Frc consts  --      8.9288                11.4347                21.0708
 IR Inten    --      1.7824               303.7155               133.6117

 - Thermochemistry -
 -------------------
 Temperature   298.150 Kelvin.  Pressure   1.00000 Atm.
 Atom     1 has atomic number  6 and mass  12.00000

 Molecular mass:    60.00000 amu.
 Principal axes and moments of inertia in atomic units:
                           1         2         3
     Eigenvalues --    62.55949 324.68736 375.28669
           X            0.05663  -0.00000   0.99840
           Y            0.99840   0.00000  -0.05663
           Z           -0.00000   1.00000   0.00000
 This molecule is an asymmetric top.
 Rotational symmetry number  1.
 Rotational temperatures (Kelvin)      1.38450     0.26676     0.23079
 Rotational constants (GHZ):          28.84840     5.55840     4.80897
 Zero-point vibrational energy      41015.3 (Joules/Mol)
                                    9.80288 (Kcal/Mol)
 Warning -- explicit consideration of   5 degrees of freedom as
           vibrations may cause significant error
 Vibrational temperatures:    262.80   413.13   533.63   542.41   857.56
          (Kelvin)           1326.04  1616.87  1829.74  2483.80

 Zero-point correction=                           0.015622 (Hartree/Particle)
 Thermal correction to Energy=                    0.020400
 Thermal correction to Enthalpy=                  0.021344
 Thermal correction to Gibbs Free Energy=        -0.012164
 Sum of electronic and zero-point Energies=           -190.114669
 Sum of electronic and thermal Energies=              -190.109891
 Sum of electronic and thermal Enthalpies=            -190.108947
 Sum of electronic and thermal Free Energies=         -190.142454

                     E (Thermal)             CV                S
                      KCal/Mol        Cal/Mol-Kelvin    Cal/Mol-Kelvin
 Total                   12.801             14.541             70.522
 Electronic               0.000              0.000              2.183
 Translational            0.889              2.981             38.195
 Rotational               0.889              2.981             23.548
 Vibrational             11.023              8.579              6.596
 Vibration     1          0.630              1.863              2.301
 Vibration     2          0.684              1.698              1.491
 Vibration     3          0.743              1.532              1.076
 Vibration     4          0.748              1.519              1.051
 Vibration     5          0.954              1.040              0.457

 Optimization completed.
    -- Stationary point found.
 Normal termination of Gaussian 09 at Sat Jul  2 15:37:30 2016.
