 Gaussian 09, Revision E.01,
 Gaussian 09:  EM64L-G09RevE.01 30-Nov-2015

 ---------------------------------------------
 #p b3lyp/6-311+G(3df) opt freq symmetry=Loose
 ---------------------------------------------

 ---------
 b3lyp opt
 ---------
 Symbolic Z-matrix:
 Charge =  2 Multiplicity = 1

 SCF Done:  E(RB3LYP) =  -189.125993193     A.U. after   12 cycles
 SCF Done:  E(RB3LYP) =  -189.126070901     A.U. after    9 cycles
 SCF Done:  E(RB3LYP) =  -189.126074437     A.U. after    9 cycles
 Optimization completed.
    -- Stationary point found.
 Normal termination of Gaussian 09 at Mon Nov 14 15:46:40 2016.

 ----------------------------------------------------------------------
 #P Geom=AllCheck Guess=TCheck SCRF=Check GenChk RB3LYP/6-311+G(3df) Fr
 eq
 ----------------------------------------------------------------------

 Structure from the checkpoint file:  "/scratch/sergio/C5.q2.m1-5.com-2301892/Gau-23938.chk"
 ---------
 b3lyp opt
 ---------
 Charge =  2 Multiplicity = 1

                         Standard orientation:
 ---------------------------------------------------------------------
 Center     Atomic      Atomic             Coordinates (Angstroms)
 Number     Number       Type             X           Y           Z
 ---------------------------------------------------------------------
      1          6           0        0.000000    0.748115   -0.721353
      2          6           0       -0.000000   -0.748115   -0.721353
      3          6           0        0.000000   -1.378578    0.394849
      4          6           0        0.000000    1.378578    0.394849
      5          6           0        0.000000    0.000000    0.653008
 ---------------------------------------------------------------------

 SCF Done:  E(RB3LYP) =  -189.126074437     A.U. after    1 cycles

 The electronic state is 1-A1.
 Alpha  occ. eigenvalues --  -10.94964 -10.90977 -10.90954 -10.84835 -10.84830
 Alpha  occ. eigenvalues --   -1.63955  -1.44758  -1.22938  -1.12269  -1.05590
 Alpha  occ. eigenvalues --   -1.04580  -0.98826  -0.86176  -0.85521
 Alpha virt. eigenvalues --   -0.73961  -0.70353  -0.69502  -0.53462  -0.49353
 Alpha virt. eigenvalues --   -0.48642  -0.39258  -0.33654  -0.32181  -0.29538
 Alpha virt. eigenvalues --   -0.27697  -0.26438  -0.26242  -0.22739  -0.22209

 Mulliken charges:
               1
     1  C    0.368485
     2  C    0.368485
     3  C    0.375732
     4  C    0.375732
     5  C    0.511565
 Sum of Mulliken charges =   2.00000

 Dipole moment (field-independent basis, Debye):
    X=             -0.0000    Y=              0.0000    Z=             -1.1334  Tot=              1.1334
 Quadrupole moment (field-independent basis, Debye-Ang):
   XX=            -21.6841   YY=            -10.5066   ZZ=            -14.8852
   XY=              0.0000   XZ=             -0.0000   YZ=              0.0000

  Exact polarizability:  19.107   0.000  58.896   0.000   0.000  29.394
 Approx polarizability:  29.088   0.000 262.597   0.000  -0.000  73.785

                      1                      2                      3
                     A2                     B2                     B1
 Frequencies --    264.3411               366.6492               424.0621
 Red. masses --     12.0000                12.0000                12.0000
 Frc consts  --      0.4940                 0.9505                 1.2714
 IR Inten    --      0.0000                13.1672                 0.0720

                      4                      5                      6
                     A1                     A1                     A1
 Frequencies --    740.1685               817.2606              1117.2468
 Red. masses --     12.0000                12.0000                12.0000
 Frc consts  --      3.8734                 4.7223                 8.8253
 IR Inten    --      0.7004                25.1143                 0.2294

                      7                      8                      9
                     B2                     B2                     A1
 Frequencies --   1127.3244              1716.2864              1729.5115
 Red. masses --     12.0000                12.0000                12.0000
 Frc consts  --      8.9852                20.8262                21.1484
 IR Inten    --    122.0183                27.5993                 0.0041

 - Thermochemistry -
 -------------------
 Temperature   298.150 Kelvin.  Pressure   1.00000 Atm.
 Atom     1 has atomic number  6 and mass  12.00000

 Molecular mass:    60.00000 amu.
 Principal axes and moments of inertia in atomic units:
                           1         2         3
     Eigenvalues --    76.23217 210.84887 287.08104
           X            0.00000   0.00000   1.00000
           Y            1.00000   0.00000  -0.00000
           Z           -0.00000   1.00000  -0.00000
 This molecule is an asymmetric top.
 Rotational symmetry number  2.
 Rotational temperatures (Kelvin)      1.13618     0.41079     0.30171
 Rotational constants (GHZ):          23.67427     8.55941     6.28652
 Zero-point vibrational energy      49662.1 (Joules/Mol)
                                   11.86952 (Kcal/Mol)
 Warning -- explicit consideration of   3 degrees of freedom as
           vibrations may cause significant error
 Vibrational temperatures:    380.33   527.53   610.13  1064.94  1175.85
          (Kelvin)           1607.47  1621.97  2469.35  2488.38

 Zero-point correction=                           0.018915 (Hartree/Particle)
 Thermal correction to Energy=                    0.023065
 Thermal correction to Enthalpy=                  0.024009
 Thermal correction to Gibbs Free Energy=        -0.006423
 Sum of electronic and zero-point Energies=           -189.107159
 Sum of electronic and thermal Energies=              -189.103009
 Sum of electronic and thermal Enthalpies=            -189.102065
 Sum of electronic and thermal Free Energies=         -189.132498

                     E (Thermal)             CV                S
                      KCal/Mol        Cal/Mol-Kelvin    Cal/Mol-Kelvin
 Total                   14.474             12.626             64.051
 Electronic               0.000              0.000              0.000
 Translational            0.889              2.981             38.195
 Rotational               0.889              2.981             21.672
 Vibrational             12.696              6.664              4.184
 Vibration     1          0.671              1.738              1.633
 Vibration     2          0.740              1.541              1.094
 Vibration     3          0.786              1.418              0.878

 Optimization completed.
    -- Stationary point found.
 Normal termination of Gaussian 09 at Mon Nov 14 15:49:43 2016.
