 Gaussian 09, Revision E.01,
 Gaussian 09:  EM64L-G09RevE.01 30-Nov-2015

 -----------------------------------------
 #p b3lyp/6-311+G(3df) freq symmetry=Loose
 -----------------------------------------

 ---------
 b3lyp opt
 ---------
 Symbolic Z-matrix:
 Charge =  2 Multiplicity = 3

                         Standard orientation:
 ---------------------------------------------------------------------
 Center     Atomic      Atomic             Coordinates (Angstroms)
 Number     Number       Type             X           Y           Z
 ---------------------------------------------------------------------
      1          6           0        0.000000   -0.000000    2.091908
      2          6           0       -0.000000    0.807252   -0.536586
      3          6           0       -0.000000   -0.807252   -0.536586
      4          6           0       -0.000000    0.000000   -1.650830
      5          6           0        0.000000   -0.000000    0.632093
 ---------------------------------------------------------------------

 SCF Done:  E(UB3LYP) =  -189.146933828     A.U. after   14 cycles

 The electronic state is 3-B1.
 Alpha  occ. eigenvalues --  -10.90041 -10.86782 -10.86151 -10.86140 -10.85000
 Alpha  occ. eigenvalues --   -1.58149  -1.34797  -1.22193  -1.13410  -1.00976
 Alpha  occ. eigenvalues --   -1.00615  -0.93585  -0.85993  -0.84581  -0.83769
 Alpha virt. eigenvalues --   -0.69140  -0.64958  -0.63163  -0.57470  -0.46539
 Alpha virt. eigenvalues --   -0.36815  -0.32913  -0.31631  -0.29147  -0.28610
 Alpha virt. eigenvalues --   -0.24737  -0.24295  -0.22467  -0.21724  -0.21414

  Beta  occ. eigenvalues --  -10.89445 -10.85892 -10.85878 -10.84350 -10.84246
  Beta  occ. eigenvalues --   -1.57099  -1.31864  -1.19532  -1.12237  -0.99746
  Beta  occ. eigenvalues --   -0.97424  -0.87639  -0.83887
  Beta virt. eigenvalues --   -0.72944  -0.68816  -0.68115  -0.62693  -0.58140
  Beta virt. eigenvalues --   -0.55458  -0.41050  -0.35135  -0.32138  -0.30732
  Beta virt. eigenvalues --   -0.28357  -0.28328  -0.24217  -0.24154  -0.21864

 Mulliken charges and spin densities:
               1          2
     1  C   -0.042813   0.289131
     2  C    1.206172   0.160417
     3  C    1.206172   0.160417
     4  C   -0.410223   1.051653
     5  C    0.040691   0.338382
 Sum of Mulliken charges =   2.00000   2.00000

 Dipole moment (field-independent basis, Debye):
    X=             -0.0000    Y=              0.0000    Z=              0.4900  Tot=              0.4900
 Quadrupole moment (field-independent basis, Debye-Ang):
   XX=            -21.2106   YY=            -19.0898   ZZ=             -3.5075
   XY=              0.0000   XZ=              0.0000   YZ=              0.0000

  Exact polarizability:  23.401   0.000  34.772   0.000  -0.000  61.485
 Approx polarizability:  35.000   0.000  86.012   0.000  -0.000 122.530

                      1                      2                      3
                     B1                     B2                     B1
 Frequencies --     57.6155               231.6277               492.3305
 Red. masses --     12.0000                12.0000                12.0000
 Frc consts  --      0.0235                 0.3793                 1.7137
 IR Inten    --      4.6043                 2.6924                 0.3365

                      4                      5                      6
                     A1                     B2                     A1
 Frequencies --    586.6942               734.0762               861.5770
 Red. masses --     12.0000                12.0000                12.0000
 Frc consts  --      2.4336                 3.8099                 5.2483
 IR Inten    --     68.4207                46.4440                65.3567

                      7                      8                      9
                     B2                     A1                     A1
 Frequencies --   1149.6088              1463.1374              1536.5569
 Red. masses --     12.0000                12.0000                12.0000
 Frc consts  --      9.3440                15.1357                16.6928
 IR Inten    --      3.5114               196.7240                17.1195

 - Thermochemistry -
 -------------------
 Temperature   298.150 Kelvin.  Pressure   1.00000 Atm.
 Atom     1 has atomic number  6 and mass  12.00000

 Molecular mass:    60.00000 amu.
 Principal axes and moments of inertia in atomic units:
                           1         2         3
     Eigenvalues --    55.85052 346.10945 401.95998
           X            0.00000  -0.00000   1.00000
           Y           -0.00000   1.00000   0.00000
           Z            1.00000   0.00000  -0.00000
 This molecule is an asymmetric top.
 Rotational symmetry number  2.
 Rotational temperatures (Kelvin)      1.55081     0.25025     0.21548
 Rotational constants (GHZ):          32.31377     5.21437     4.48985
 Zero-point vibrational energy      42546.5 (Joules/Mol)
                                   10.16886 (Kcal/Mol)
 Warning -- explicit consideration of   4 degrees of freedom as
           vibrations may cause significant error
 Vibrational temperatures:     82.90   333.26   708.35   844.12  1056.17
          (Kelvin)           1239.62  1654.03  2105.13  2210.76

 Zero-point correction=                           0.016205 (Hartree/Particle)
 Thermal correction to Energy=                    0.020959
 Thermal correction to Enthalpy=                  0.021903
 Thermal correction to Gibbs Free Energy=        -0.011654
 Sum of electronic and zero-point Energies=           -189.130729
 Sum of electronic and thermal Energies=              -189.125975
 Sum of electronic and thermal Enthalpies=            -189.125030
 Sum of electronic and thermal Free Energies=         -189.158588

                     E (Thermal)             CV                S
                      KCal/Mol        Cal/Mol-Kelvin    Cal/Mol-Kelvin
 Total                   13.152             13.767             70.628
 Electronic               0.000              0.000              2.183
 Translational            0.889              2.981             38.195
 Rotational               0.889              2.981             22.190
 Vibrational             11.375              7.806              8.060
 Vibration     1          0.596              1.974              4.537
 Vibration     2          0.653              1.793              1.866
 Vibration     3          0.848              1.267              0.678
 Vibration     4          0.944              1.060              0.473

 Optimization completed.
    -- Stationary point found.
 Normal termination of Gaussian 09 at Sun Oct 23 02:11:34 2016.
