 Gaussian 09, Revision E.01,
 Gaussian 09:  EM64L-G09RevE.01 30-Nov-2015

 ---------------------------------------------
 #p b3lyp/6-311++G(3df,2p) freq symmetry=Loose
 ---------------------------------------------

 ---------
 b3lyp opt
 ---------
 Symbolic Z-matrix:
 Charge =  1 Multiplicity = 4

                         Standard orientation:
 ---------------------------------------------------------------------
 Center     Atomic      Atomic             Coordinates (Angstroms)
 Number     Number       Type             X           Y           Z
 ---------------------------------------------------------------------
      1          6           0        0.046322   -0.767121    0.111640
      2          6           0        1.351495   -0.369474   -0.161941
      3          6           0        0.642972    0.804300    0.192089
      4          6           0       -0.716290    0.752801   -0.160496
      5          6           0       -1.324499   -0.420505    0.018708
 ---------------------------------------------------------------------

 SCF Done:  E(UB3LYP) =  -189.755387079     A.U. after   20 cycles

 The electronic state is 4-A.
 Alpha  occ. eigenvalues --  -10.60253 -10.58945 -10.57378 -10.57197 -10.54777
 Alpha  occ. eigenvalues --   -1.31569  -1.11359  -0.97235  -0.82501  -0.78429
 Alpha  occ. eigenvalues --   -0.75263  -0.72402  -0.63260  -0.58638  -0.55109
 Alpha  occ. eigenvalues --   -0.54524
 Alpha virt. eigenvalues --   -0.40020  -0.31405  -0.29867  -0.24804  -0.14493
 Alpha virt. eigenvalues --   -0.11999  -0.11530  -0.10289  -0.09329  -0.08161
 Alpha virt. eigenvalues --   -0.07989  -0.06108  -0.05939  -0.04290  -0.01852

  Beta  occ. eigenvalues --  -10.59516 -10.57403 -10.56564 -10.55153 -10.53530
  Beta  occ. eigenvalues --   -1.29522  -1.08740  -0.93903  -0.79496  -0.74795
  Beta  occ. eigenvalues --   -0.71689  -0.66489  -0.54924
  Beta virt. eigenvalues --   -0.45653  -0.42310  -0.40246  -0.36488  -0.27623
  Beta virt. eigenvalues --   -0.26006  -0.20390  -0.13467  -0.11312  -0.10436
  Beta virt. eigenvalues --   -0.09465  -0.08635  -0.07598  -0.07352  -0.05909

 Mulliken charges and spin densities:
               1          2
     1  C    0.208377   0.141926
     2  C    0.190966   0.687019
     3  C    0.178443   0.760876
     4  C    0.262982   0.300664
     5  C    0.159233   1.109515
 Sum of Mulliken charges =   1.00000   3.00000

 Dipole moment (field-independent basis, Debye):
    X=             -0.7079    Y=              0.3284    Z=              0.6321  Tot=              1.0042
 Quadrupole moment (field-independent basis, Debye-Ang):
   XX=            -20.2922   YY=            -20.8272   ZZ=            -24.8407
   XY=              0.2999   XZ=              0.1365   YZ=             -0.3077

  Exact polarizability:  59.614  -1.696  42.723  -0.888   1.093  26.468
 Approx polarizability: 132.561  -2.839  96.855  -1.109  -0.844  41.305

                      1                      2                      3
                      A                      A                      A
 Frequencies --    221.2465               451.6989               484.1306
 Red. masses --     12.0000                12.0000                12.0000
 Frc consts  --      0.3461                 1.4425                 1.6571
 IR Inten    --     13.7853                12.0472                 2.9613

                      4                      5                      6
                      A                      A                      A
 Frequencies --    573.3106               805.3745               936.8857
 Red. masses --     12.0000                12.0000                12.0000
 Frc consts  --      2.3239                 4.5859                 6.2059
 IR Inten    --      5.8879                21.9954                78.2629

                      7                      8                      9
                      A                      A                      A
 Frequencies --   1086.6389              1181.7790              1497.9841
 Red. masses --     12.0000                12.0000                12.0000
 Frc consts  --      8.3484                 9.8742                15.8652
 IR Inten    --      9.3732                60.7922                18.9560

 - Thermochemistry -
 -------------------
 Temperature   298.150 Kelvin.  Pressure   1.00000 Atm.
 Atom     1 has atomic number  6 and mass  12.00000

 Molecular mass:    60.00000 amu.
 Principal axes and moments of inertia in atomic units:
                           1         2         3
     Eigenvalues --    95.00948 197.60116 283.89474
           X            1.00000  -0.00000   0.00000
           Y            0.00000   1.00000   0.00000
           Z            0.00000  -0.00000   1.00000
 This molecule is an asymmetric top.
 Rotational symmetry number  1.
 Rotational temperatures (Kelvin)      0.91163     0.43833     0.30509
 Rotational constants (GHZ):          18.99538     9.13325     6.35708
 Zero-point vibrational energy      43299.1 (Joules/Mol)
                                   10.34874 (Kcal/Mol)
 Warning -- explicit consideration of   4 degrees of freedom as
           vibrations may cause significant error
 Vibrational temperatures:    318.32   649.89   696.56   824.87  1158.75
          (Kelvin)           1347.97  1563.43  1700.31  2155.26

 Zero-point correction=                           0.016492 (Hartree/Particle)
 Thermal correction to Energy=                    0.020699
 Thermal correction to Enthalpy=                  0.021644
 Thermal correction to Gibbs Free Energy=        -0.010915
 Sum of electronic and zero-point Energies=           -189.738895
 Sum of electronic and thermal Energies=              -189.734688
 Sum of electronic and thermal Enthalpies=            -189.733744
 Sum of electronic and thermal Free Energies=         -189.766302

                     E (Thermal)             CV                S
                      KCal/Mol        Cal/Mol-Kelvin    Cal/Mol-Kelvin
 Total                   12.989             13.179             68.525
 Electronic               0.000              0.000              2.755
 Translational            0.889              2.981             38.195
 Rotational               0.889              2.981             23.193
 Vibrational             11.212              7.218              4.382
 Vibration     1          0.648              1.809              1.949
 Vibration     2          0.810              1.357              0.791
 Vibration     3          0.840              1.285              0.699
 Vibration     4          0.930              1.089              0.498

 Optimization completed.
    -- Stationary point found.
 Normal termination of Gaussian 09 at Sun Jun 19 00:54:30 2016.
