 Gaussian 09, Revision E.01,
 Gaussian 09:  EM64L-G09RevE.01 30-Nov-2015

 ---------------------------------------------
 #p b3lyp/6-311++G(3df,2p) freq symmetry=Loose
 ---------------------------------------------

 ---------
 b3lyp opt
 ---------
 Symbolic Z-matrix:
 Charge =  1 Multiplicity = 2

                         Standard orientation:
 ---------------------------------------------------------------------
 Center     Atomic      Atomic             Coordinates (Angstroms)
 Number     Number       Type             X           Y           Z
 ---------------------------------------------------------------------
      1          6           0        0.000000    0.000000    2.542511
      2          6           0        0.000000    0.000000    1.281338
      3          6           0        0.000000    0.000000    0.000000
      4          6           0        0.000000    0.000000   -1.281338
      5          6           0        0.000000    0.000000   -2.542511
 ---------------------------------------------------------------------

 SCF Done:  E(UB3LYP) =  -189.842680759     A.U. after   13 cycles

 The electronic state is 2-SGU.
 Alpha  occ. eigenvalues --  -10.57267 -10.56019 -10.56016 -10.47774 -10.47767
 Alpha  occ. eigenvalues --   -1.12355  -1.06918  -0.99946  -0.91402  -0.66341
 Alpha  occ. eigenvalues --   -0.66341  -0.62715  -0.62447  -0.57459  -0.57459
 Alpha virt. eigenvalues --   -0.42475  -0.42475  -0.24757  -0.24757  -0.16237
 Alpha virt. eigenvalues --   -0.11186  -0.10403  -0.10403  -0.08897  -0.08897
 Alpha virt. eigenvalues --   -0.07728  -0.06005  -0.06005  -0.05180  -0.03087

  Beta  occ. eigenvalues --  -10.57325 -10.54866 -10.54863 -10.47691 -10.47684
  Beta  occ. eigenvalues --   -1.12327  -1.06064  -0.98781  -0.90765  -0.66474
  Beta  occ. eigenvalues --   -0.66474  -0.56634  -0.56634  -0.53002
  Beta virt. eigenvalues --   -0.50821  -0.41095  -0.41095  -0.23337  -0.23337
  Beta virt. eigenvalues --   -0.16177  -0.10863  -0.10370  -0.10370  -0.08251
  Beta virt. eigenvalues --   -0.08251  -0.07468  -0.05833  -0.05833  -0.04953

 Mulliken charges and spin densities:
               1          2
     1  C   -0.153053   0.484901
     2  C    1.133636   0.029545
     3  C   -0.961165  -0.028893
     4  C    1.133636   0.029545
     5  C   -0.153053   0.484901
 Sum of Mulliken charges =   1.00000   1.00000

 Dipole moment (field-independent basis, Debye):
    X=              0.0000    Y=             -0.0000    Z=              0.0000  Tot=              0.0000
 Quadrupole moment (field-independent basis, Debye-Ang):
   XX=            -24.5095   YY=            -24.5095   ZZ=             -6.7974
   XY=             -0.0000   XZ=              0.0000   YZ=              0.0000

  Exact polarizability:  22.991  -0.000  22.991   0.000  -0.000  19.878
 Approx polarizability:  41.938  -0.000  41.938  -0.000  -0.0003059.978

                      1                      2                      3
                     PIU                    PIU                    PIG
 Frequencies --    154.2542               154.2542               274.0852
 Red. masses --     12.0000                12.0000                12.0000
 Frc consts  --      0.1682                 0.1682                 0.5311
 IR Inten    --      0.2862                 0.2862                 0.0000

                      4                      5                      6
                     PIG                    PIU                    PIU
 Frequencies --    274.0852               696.1331               696.1331
 Red. masses --     12.0000                12.0000                12.0000
 Frc consts  --      0.5311                 3.4262                 3.4262
 IR Inten    --      0.0000                38.9579                38.9579

                      7                      8                      9
                     SGG                    SGU                    SGG
 Frequencies --    807.3300              1588.5729              2093.2010
 Red. masses --     12.0000                12.0000                12.0000
 Frc consts  --      4.6082                17.8421                30.9780
 IR Inten    --      0.0000               215.7203                 0.0000

                     10
                     SGU
 Frequencies --   2994.0157
 Red. masses --     12.0000
 Frc consts  --     63.3781
 IR Inten    --  28517.8516

 - Thermochemistry -
 -------------------
 Temperature   298.150 Kelvin.  Pressure   1.00000 Atm.
 Atom     1 has atomic number  6 and mass  12.00000

 Molecular mass:    60.00000 amu.
 Principal axes and moments of inertia in atomic units:
                           1         2         3
     Eigenvalues --     0.00000 694.74546 694.74546
           X           -0.00000   0.70711   0.70711
           Y           -0.00000   0.70711  -0.70711
           Z            1.00000   0.00000   0.00000
 This molecule is a prolate symmetric top.
 Rotational symmetry number  2.
 Warning -- assumption of classical behavior for rotation
           may cause significant error
 Rotational temperature (Kelvin)      0.12467
 Rotational constant (GHZ):           2.597701
 Zero-point vibrational energy      58210.7 (Joules/Mol)
                                   13.91268 (Kcal/Mol)
 Warning -- explicit consideration of   4 degrees of freedom as
           vibrations may cause significant error
 Vibrational temperatures:    221.94   221.94   394.35   394.35  1001.58
          (Kelvin)           1001.58  1161.57  2285.60  3011.65  4307.72

 Zero-point correction=                           0.022171 (Hartree/Particle)
 Thermal correction to Energy=                    0.027019
 Thermal correction to Enthalpy=                  0.027964
 Thermal correction to Gibbs Free Energy=        -0.002850
 Sum of electronic and zero-point Energies=           -189.820509
 Sum of electronic and thermal Energies=              -189.815661
 Sum of electronic and thermal Enthalpies=            -189.814717
 Sum of electronic and thermal Free Energies=         -189.845531

                     E (Thermal)             CV                S
                      KCal/Mol        Cal/Mol-Kelvin    Cal/Mol-Kelvin
 Total                   16.955             14.582             64.853
 Electronic               0.000              0.000              1.377
 Translational            0.889              2.981             38.195
 Rotational               0.592              1.987             16.070
 Vibrational             15.474              9.614              9.211
 Vibration     1          0.620              1.898              2.619
 Vibration     2          0.620              1.898              2.619
 Vibration     3          0.676              1.721              1.570
 Vibration     4          0.676              1.721              1.570

 Optimization completed.
    -- Stationary point found.
 Normal termination of Gaussian 09 at Sun Jun 19 00:42:49 2016.
