 Gaussian 09, Revision E.01,
 Gaussian 09:  EM64L-G09RevE.01 30-Nov-2015

 ---------------------------------------------
 #p b3lyp/6-311++G(3df,2p) freq symmetry=Loose
 ---------------------------------------------

 ---------
 b3lyp opt
 ---------
 Symbolic Z-matrix:
 Charge =  0 Multiplicity = 3

                         Standard orientation:
 ---------------------------------------------------------------------
 Center     Atomic      Atomic             Coordinates (Angstroms)
 Number     Number       Type             X           Y           Z
 ---------------------------------------------------------------------
      1          6           0       -0.000408    0.662086   -0.000583
      2          6           0        1.390023    0.401708    0.112525
      3          6           0        0.705960   -0.732278   -0.221114
      4          6           0       -0.704686   -0.731932    0.221425
      5          6           0       -1.390889    0.400417   -0.112254
 ---------------------------------------------------------------------

 SCF Done:  E(UB3LYP) =  -190.138611998     A.U. after   17 cycles

 The electronic state is 3-A.
 Alpha  occ. eigenvalues --  -10.34192 -10.31108 -10.31078 -10.26880 -10.26876
 Alpha  occ. eigenvalues --   -1.07002  -0.86991  -0.68637  -0.55515  -0.52560
 Alpha  occ. eigenvalues --   -0.48795  -0.45785  -0.35854  -0.32411  -0.29108
 Alpha  occ. eigenvalues --   -0.28203
 Alpha virt. eigenvalues --   -0.11967  -0.06176  -0.04184   0.00146   0.02268
 Alpha virt. eigenvalues --    0.04279   0.04466   0.05326   0.06347   0.07137
 Alpha virt. eigenvalues --    0.08458   0.08923   0.09580   0.12012   0.12864

  Beta  occ. eigenvalues --  -10.33570 -10.30036 -10.30007 -10.26167 -10.26164
  Beta  occ. eigenvalues --   -1.05792  -0.85757  -0.65771  -0.52964  -0.49101
  Beta  occ. eigenvalues --   -0.46945  -0.42397  -0.30728  -0.30595
  Beta virt. eigenvalues --   -0.17545  -0.17234  -0.09335  -0.03627  -0.02045
  Beta virt. eigenvalues --    0.01154   0.02984   0.04555   0.04781   0.06242
  Beta virt. eigenvalues --    0.06845   0.07388   0.08673   0.09305   0.10185

 Mulliken charges and spin densities:
               1          2
     1  C    0.361832   0.221818
     2  C   -0.176105   0.384364
     3  C   -0.004771   0.505847
     4  C   -0.003957   0.505518
     5  C   -0.176998   0.382454
 Sum of Mulliken charges =  -0.00000   2.00000

 Dipole moment (field-independent basis, Debye):
    X=              0.0020    Y=             -0.7793    Z=              0.0001  Tot=              0.7793
 Quadrupole moment (field-independent basis, Debye-Ang):
   XX=            -34.2113   YY=            -28.1382   ZZ=            -28.2397
   XY=              0.0019   XZ=             -0.5680   YZ=             -0.0029

  Exact polarizability:  83.548   0.007  45.684  -1.159   0.001  33.222
 Approx polarizability: 179.810   0.009  95.418   0.694  -0.003  52.471

                      1                      2                      3
                      A                      A                      A
 Frequencies --    348.9557               485.4039               575.6232
 Red. masses --     12.0000                12.0000                12.0000
 Frc consts  --      0.8609                 1.6659                 2.3427
 IR Inten    --      8.3592                 0.2263                 1.7716

                      4                      5                      6
                      A                      A                      A
 Frequencies --    630.9377               812.9490               899.9118
 Red. masses --     12.0000                12.0000                12.0000
 Frc consts  --      2.8145                 4.6726                 5.7257
 IR Inten    --     10.2041                 0.0858                 1.6658

                      7                      8                      9
                      A                      A                      A
 Frequencies --   1018.1672              1233.4816              1433.2731
 Red. masses --     12.0000                12.0000                12.0000
 Frc consts  --      7.3294                10.7571                14.5241
 IR Inten    --     34.9282                 0.5344               159.2278

 - Thermochemistry -
 -------------------
 Temperature   298.150 Kelvin.  Pressure   1.00000 Atm.
 Atom     1 has atomic number  6 and mass  12.00000

 Molecular mass:    60.00000 amu.
 Principal axes and moments of inertia in atomic units:
                           1         2         3
     Eigenvalues --    83.78576 213.61604 286.84428
           X            1.00000  -0.00000  -0.00009
           Y            0.00000   1.00000   0.00017
           Z            0.00009  -0.00017   1.00000
 This molecule is an asymmetric top.
 Rotational symmetry number  1.
 Rotational temperatures (Kelvin)      1.03375     0.40546     0.30195
 Rotational constants (GHZ):          21.53995     8.44853     6.29171
 Zero-point vibrational energy      44493.3 (Joules/Mol)
                                   10.63416 (Kcal/Mol)
 Warning -- explicit consideration of   3 degrees of freedom as
           vibrations may cause significant error
 Vibrational temperatures:    502.07   698.39   828.19   907.78  1169.65
          (Kelvin)           1294.77  1464.91  1774.70  2062.16

 Zero-point correction=                           0.016947 (Hartree/Particle)
 Thermal correction to Energy=                    0.020879
 Thermal correction to Enthalpy=                  0.021823
 Thermal correction to Gibbs Free Energy=        -0.009901
 Sum of electronic and zero-point Energies=           -190.121665
 Sum of electronic and thermal Energies=              -190.117733
 Sum of electronic and thermal Enthalpies=            -190.116789
 Sum of electronic and thermal Free Energies=         -190.148513

                     E (Thermal)             CV                S
                      KCal/Mol        Cal/Mol-Kelvin    Cal/Mol-Kelvin
 Total                   13.101             12.638             66.769
 Electronic               0.000              0.000              2.183
 Translational            0.889              2.981             38.195
 Rotational               0.889              2.981             23.155
 Vibrational             11.324              6.677              3.235
 Vibration     1          0.726              1.577              1.171
 Vibration     2          0.841              1.282              0.696
 Vibration     3          0.932              1.084              0.494

 Optimization completed.
    -- Stationary point found.
 Normal termination of Gaussian 09 at Sun Jun 19 00:45:50 2016.
