 Gaussian 09, Revision E.01,
 Gaussian 09:  EM64L-G09RevE.01 30-Nov-2015

 ---------------------------------------------
 #p b3lyp/6-311++G(3df,2p) freq symmetry=Loose
 ---------------------------------------------

 ---------
 b3lyp opt
 ---------
 Symbolic Z-matrix:
 Charge =  0 Multiplicity = 3

                         Standard orientation:
 ---------------------------------------------------------------------
 Center     Atomic      Atomic             Coordinates (Angstroms)
 Number     Number       Type             X           Y           Z
 ---------------------------------------------------------------------
      1          6           0       -0.000000    1.109135   -0.036359
      2          6           0        0.963201   -0.000000   -0.418388
      3          6           0        0.000000   -1.109135   -0.036359
      4          6           0       -0.000000    0.000000    0.909494
      5          6           0       -0.963201    0.000000   -0.418388
 ---------------------------------------------------------------------

 SCF Done:  E(UB3LYP) =  -190.080912382     A.U. after   15 cycles

 The electronic state is 3-B2.
 Alpha  occ. eigenvalues --  -10.31943 -10.30430 -10.30426 -10.30068 -10.30063
 Alpha  occ. eigenvalues --   -1.10925  -0.75536  -0.69267  -0.63571  -0.45711
 Alpha  occ. eigenvalues --   -0.44400  -0.41703  -0.36351  -0.33270  -0.32730
 Alpha  occ. eigenvalues --   -0.31351
 Alpha virt. eigenvalues --   -0.12282  -0.05465   0.00890   0.01694   0.02256
 Alpha virt. eigenvalues --    0.02575   0.03037   0.07644   0.07715   0.07949
 Alpha virt. eigenvalues --    0.08217   0.08623   0.10731   0.10863   0.12037

  Beta  occ. eigenvalues --  -10.30507 -10.30191 -10.30190 -10.29047 -10.29045
  Beta  occ. eigenvalues --   -1.09487  -0.73381  -0.68154  -0.60246  -0.43269
  Beta  occ. eigenvalues --   -0.40388  -0.39912  -0.32479  -0.31527
  Beta virt. eigenvalues --   -0.20245  -0.18296  -0.10953  -0.03604   0.02220
  Beta virt. eigenvalues --    0.02586   0.03031   0.03573   0.03750   0.07837
  Beta virt. eigenvalues --    0.07941   0.08065   0.08301   0.09003   0.11169

 Mulliken charges and spin densities:
               1          2
     1  C    0.135681   0.495361
     2  C   -0.179359   0.181296
     3  C    0.135681   0.495361
     4  C    0.087355   0.646686
     5  C   -0.179359   0.181296
 Sum of Mulliken charges =   0.00000   2.00000

 Dipole moment (field-independent basis, Debye):
    X=             -0.0000    Y=              0.0000    Z=              0.9948  Tot=              0.9948
 Quadrupole moment (field-independent basis, Debye-Ang):
   XX=            -30.0816   YY=            -30.3437   ZZ=            -28.2229
   XY=              0.0000   XZ=             -0.0000   YZ=              0.0000

  Exact polarizability:  50.470   0.000  66.018  -0.000   0.000  39.699
 Approx polarizability: 121.392  -0.000 132.984   0.000  -0.000  77.758

                      1                      2                      3
                     B1                     A2                     A1
 Frequencies --    416.4410               423.7774               489.7300
 Red. masses --     12.0000                12.0000                12.0000
 Frc consts  --      1.2261                 1.2697                 1.6957
 IR Inten    --     73.4334                 0.0000                 2.7679

                      4                      5                      6
                     B2                     A1                     B1
 Frequencies --    613.4250               809.8980               888.0267
 Red. masses --     12.0000                12.0000                12.0000
 Frc consts  --      2.6604                 4.6376                 5.5755
 IR Inten    --     96.7675                 1.1786                 0.4446

                      7                      8                      9
                     A1                     B2                     A1
 Frequencies --    908.1902              1129.8407              1249.9884
 Red. masses --     12.0000                12.0000                12.0000
 Frc consts  --      5.8316                 9.0254                11.0470
 IR Inten    --      4.4491                38.2649                 1.3041

 - Thermochemistry -
 -------------------
 Temperature   298.150 Kelvin.  Pressure   1.00000 Atm.
 Atom     1 has atomic number  6 and mass  12.00000

 Molecular mass:    60.00000 amu.
 Principal axes and moments of inertia in atomic units:
                           1         2         3
     Eigenvalues --   130.07683 155.99618 184.94719
           X           -0.00000   1.00000   0.00000
           Y            1.00000   0.00000   0.00000
           Z            0.00000   0.00000   1.00000
 This molecule is an asymmetric top.
 Rotational symmetry number  2.
 Rotational temperatures (Kelvin)      0.66587     0.55523     0.46832
 Rotational constants (GHZ):          13.87442    11.56914     9.75814
 Zero-point vibrational energy      41446.5 (Joules/Mol)
                                    9.90596 (Kcal/Mol)
 Warning -- explicit consideration of   4 degrees of freedom as
           vibrations may cause significant error
 Vibrational temperatures:    599.16   609.72   704.61   882.58  1165.26
          (Kelvin)           1277.67  1306.68  1625.59  1798.45

 Zero-point correction=                           0.015786 (Hartree/Particle)
 Thermal correction to Energy=                    0.019804
 Thermal correction to Enthalpy=                  0.020748
 Thermal correction to Gibbs Free Energy=        -0.010282
 Sum of electronic and zero-point Energies=           -190.065126
 Sum of electronic and thermal Energies=              -190.061108
 Sum of electronic and thermal Enthalpies=            -190.060164
 Sum of electronic and thermal Free Energies=         -190.091195

                     E (Thermal)             CV                S
                      KCal/Mol        Cal/Mol-Kelvin    Cal/Mol-Kelvin
 Total                   12.427             13.161             65.310
 Electronic               0.000              0.000              2.183
 Translational            0.889              2.981             38.195
 Rotational               0.889              2.981             21.467
 Vibrational             10.650              7.199              3.465
 Vibration     1          0.780              1.435              0.904
 Vibration     2          0.786              1.419              0.879
 Vibration     3          0.846              1.273              0.684
 Vibration     4          0.973              1.003              0.427

 Normal termination of Gaussian 09 at Sat Jul  2 15:31:27 2016.
