 Gaussian 09, Revision E.01,
 Gaussian 09:  EM64L-G09RevE.01 30-Nov-2015

 -----------------------------------------
 #p b3lyp/6-311+G(3df) freq symmetry=Loose
 -----------------------------------------

 ---------
 b3lyp opt
 ---------
 Symbolic Z-matrix:
 Charge =  1 Multiplicity = 2

                         Standard orientation:
 ---------------------------------------------------------------------
 Center     Atomic      Atomic             Coordinates (Angstroms)
 Number     Number       Type             X           Y           Z
 ---------------------------------------------------------------------
      1          6           0        1.160503    0.000136    0.000405
      2          6           0       -1.160510    0.000522    0.000426
      3          6           0       -0.000024   -0.819479    0.000143
      4          6           0        2.516750   -0.000381   -0.000553
      5          6           0        0.000077    0.819727    0.000142
      6          6           0       -2.516795   -0.000526   -0.000562
 ---------------------------------------------------------------------

 SCF Done:  E(UB3LYP) =  -227.838145243     A.U. after   19 cycles

 The electronic state is 2-A.
 Alpha  occ. eigenvalues --  -10.59199 -10.59186 -10.54604 -10.54603 -10.51579
 Alpha  occ. eigenvalues --  -10.51576  -1.28959  -1.08032  -1.01310  -0.88363
 Alpha  occ. eigenvalues --   -0.86658  -0.73972  -0.72593  -0.61214  -0.57156
 Alpha  occ. eigenvalues --   -0.57074  -0.56606  -0.49888
 Alpha virt. eigenvalues --   -0.42646  -0.40877  -0.37917  -0.30098  -0.27273
 Alpha virt. eigenvalues --   -0.15509  -0.14662  -0.11393  -0.10585  -0.09321
 Alpha virt. eigenvalues --   -0.08619  -0.07914  -0.07047  -0.06006  -0.05417

  Beta  occ. eigenvalues --  -10.58976 -10.58963 -10.54017 -10.54016 -10.51483
  Beta  occ. eigenvalues --  -10.51480  -1.29008  -1.06877  -0.99432  -0.87609
  Beta  occ. eigenvalues --   -0.85793  -0.72940  -0.72456  -0.59543  -0.56745
  Beta  occ. eigenvalues --   -0.55874  -0.55579
  Beta virt. eigenvalues --   -0.41885  -0.41110  -0.37384  -0.34933  -0.28132
  Beta virt. eigenvalues --   -0.26838  -0.15306  -0.14409  -0.11240  -0.10437
  Beta virt. eigenvalues --   -0.08635  -0.08533  -0.07547  -0.06642  -0.05945

 Mulliken charges and spin densities:
               1          2
     1  C    0.252133   0.106804
     2  C    0.251962   0.106809
     3  C    0.992200   0.009307
     4  C   -0.745165   0.383699
     5  C    0.993924   0.009577
     6  C   -0.745055   0.383804
 Sum of Mulliken charges =   1.00000   1.00000

 Dipole moment (field-independent basis, Debye):
    X=              0.0001    Y=              0.0023    Z=              0.0010  Tot=              0.0025
 Quadrupole moment (field-independent basis, Debye-Ang):
   XX=            -25.4215   YY=            -29.5607   ZZ=            -29.3776
   XY=             -0.0024   XZ=             -0.0001   YZ=              0.0000

  Exact polarizability: 156.621   0.000  46.895   0.000   0.000  33.927
 Approx polarizability: 551.705   0.024 101.802  -0.000  -0.000  54.783

                      1                      2                      3
                      A                      A                      A
 Frequencies --    109.5448               203.7556               275.2103
 Red. masses --     12.0000                12.0000                12.0000
 Frc consts  --      0.0848                 0.2935                 0.5355
 IR Inten    --      5.1553                14.0634                 0.0000

                      4                      5                      6
                      A                      A                      A
 Frequencies --    326.4345               535.3388               583.5907
 Red. masses --     12.0000                12.0000                12.0000
 Frc consts  --      0.7534                 2.0262                 2.4080
 IR Inten    --      0.0002                 0.2327                 0.0001

                      7                      8                      9
                      A                      A                      A
 Frequencies --    629.1122               779.7086               930.4762
 Red. masses --     12.0000                12.0000                12.0000
 Frc consts  --      2.7983                 4.2983                 6.1213
 IR Inten    --     48.0167                 0.0006                 0.0000

                     10                     11                     12
                      A                      A                      A
 Frequencies --   1017.6775              1527.2293              1690.9655
 Red. masses --     12.0000                12.0000                12.0000
 Frc consts  --      7.3224                16.4907                20.2163
 IR Inten    --      0.3779               492.3442                 0.0005

 - Thermochemistry -
 -------------------
 Temperature   298.150 Kelvin.  Pressure   1.00000 Atm.
 Atom     1 has atomic number  6 and mass  12.00000

 Molecular mass:    72.00000 amu.
 Principal axes and moments of inertia in atomic units:
                           1         2         3
     Eigenvalues --    57.57271 658.29744 715.87007
           X            1.00000   0.00000   0.00000
           Y           -0.00000   1.00000   0.00000
           Z            0.00000  -0.00000   1.00000
 This molecule is an asymmetric top.
 Rotational symmetry number  1.
 Rotational temperatures (Kelvin)      1.50442     0.13157     0.12099
 Rotational constants (GHZ):          31.34716     2.74153     2.52105
 Zero-point vibrational energy      51493.5 (Joules/Mol)
                                   12.30725 (Kcal/Mol)
 Warning -- explicit consideration of   6 degrees of freedom as
           vibrations may cause significant error
 Vibrational temperatures:    157.61   293.16   395.97   469.67   770.23
          (Kelvin)            839.66   905.15  1121.83  1338.75  1464.21
                             2197.34  2432.92

 Zero-point correction=                           0.019613 (Hartree/Particle)
 Thermal correction to Energy=                    0.025244
 Thermal correction to Enthalpy=                  0.026188
 Thermal correction to Gibbs Free Energy=        -0.009471
 Sum of electronic and zero-point Energies=           -227.818532
 Sum of electronic and thermal Energies=              -227.812902
 Sum of electronic and thermal Enthalpies=            -227.811957
 Sum of electronic and thermal Free Energies=         -227.847616

                     E (Thermal)             CV                S
                      KCal/Mol        Cal/Mol-Kelvin    Cal/Mol-Kelvin
 Total                   15.841             17.898             75.050
 Electronic               0.000              0.000              1.377
 Translational            0.889              2.981             38.739
 Rotational               0.889              2.981             24.810
 Vibrational             14.063             11.936             10.124
 Vibration     1          0.606              1.942              3.277
 Vibration     2          0.639              1.835              2.099
 Vibration     3          0.677              1.719              1.563
 Vibration     4          0.710              1.623              1.278
 Vibration     5          0.890              1.172              0.575
 Vibration     6          0.940              1.067              0.479

 Optimization completed.
    -- Stationary point found.
 Normal termination of Gaussian 09 at Tue Nov  1 19:41:44 2016.
