 Gaussian 09, Revision C.01,
 Gaussian 09:  AM64L-G09RevC.01 23-Sep-2011

 ---------------------------------------------
 #p b3lyp/6-311++G(3df,2p) freq symmetry=Loose
 ---------------------------------------------

 (Enter /home/nestor/.gaussian09/l101.exe)
 ---------
 b3lyp opt
 ---------
 Charge =  0 Multiplicity = 1

                         Standard orientation:
 ---------------------------------------------------------------------
 Center     Atomic      Atomic             Coordinates (Angstroms)
 Number     Number       Type             X           Y           Z
 ---------------------------------------------------------------------
      1          6           0        0.000000   -1.121443   -0.096713
      2          6           0        0.000000    1.121443   -0.096713
      3          6           0        0.909587    0.000000   -0.341888
      4          6           0        0.000000   -2.315043    0.438601
      5          6           0       -0.909587    0.000000   -0.341888
      6          6           0        0.000000    2.315043    0.438601
 ---------------------------------------------------------------------

 SCF Done:  E(RB3LYP) =  -228.176624460     A.U. after   13 cycles

 The electronic state is 1-A1.
 Alpha  occ. eigenvalues --  -10.33474 -10.33469 -10.28774 -10.28774 -10.26176
 Alpha  occ. eigenvalues --  -10.26174  -1.00810  -0.83311  -0.76830  -0.64187
 Alpha  occ. eigenvalues --   -0.59785  -0.49047  -0.47067  -0.36641  -0.34950
 Alpha  occ. eigenvalues --   -0.34151  -0.33920  -0.27215
 Alpha virt. eigenvalues --   -0.19600  -0.15627  -0.15502  -0.10228  -0.02764
 Alpha virt. eigenvalues --    0.01008   0.01820   0.03647   0.05360   0.06032
 Alpha virt. eigenvalues --    0.06162   0.06332   0.06649   0.06949   0.08004

 Mulliken atomic charges:
              1
     1  C    0.671923
     2  C    0.671923
     3  C    0.000849
     4  C   -0.672772
     5  C    0.000849
     6  C   -0.672772
 Sum of Mulliken atomic charges =   0.00000

 Dipole moment (field-independent basis, Debye):
    X=              0.0000    Y=              0.0000    Z=             -0.8947  Tot=              0.8947
 Quadrupole moment (field-independent basis, Debye-Ang):
   XX=            -36.0140   YY=            -44.5420   ZZ=            -34.7763
   XY=              0.0000   XZ=              0.0000   YZ=              0.0000

  Exact polarizability:  58.360   0.000 133.438   0.000   0.000  47.816
 Approx polarizability: 122.607   0.000 493.874   0.000   0.000  90.082

                     1                      2                      3
                    A1                     B1                     B2
 Frequencies --   116.4117               250.4364               300.8662
 Red. masses --    12.0000                12.0000                12.0000
 Frc consts  --     0.0958                 0.4434                 0.6400
 IR Inten    --     2.6006                21.4560                 0.6014

                     4                      5                      6
                    A2                     A1                     A1
 Frequencies --   328.2737               466.1918               598.5739
 Red. masses --    12.0000                12.0000                12.0000
 Frc consts  --     0.7619                 1.5366                 2.5332
 IR Inten    --     0.0000                20.7360                 1.2327

                     7                      8                      9
                    A2                     B1                     A1
 Frequencies --   661.3877               760.2846               908.9385
 Red. masses --    12.0000                12.0000                12.0000
 Frc consts  --     3.0927                 4.0868                 5.8412
 IR Inten    --     0.0000                 9.3895                 0.8747

                    10                     11                     12
                    B2                     B2                     A1
 Frequencies --  1009.7124              1673.8801              1762.8237
 Red. masses --    12.0000                12.0000                12.0000
 Frc consts  --     7.2082                19.8098                21.9710
 IR Inten    --    76.4763              1057.6039                41.1551

 - Thermochemistry -
 -------------------
 Temperature   298.150 Kelvin.  Pressure   1.00000 Atm.
 Atom     1 has atomic number  6 and mass  12.00000

 Molecular mass:    72.00000 amu.
 Principal axes and moments of inertia in atomic units:
                           1         2         3
     Eigenvalues --    98.21516 594.42542 638.02694
           X            0.00000   1.00000   0.00000
           Y            1.00000   0.00000   0.00000
           Z            0.00000   0.00000   1.00000
 This molecule is an asymmetric top.
 Rotational symmetry number  2.
 Rotational temperatures (Kelvin)      0.88188     0.14571     0.13575
 Rotational constants (GHZ):          18.37538     3.03611     2.82863
 Zero-point vibrational energy      52861.7 (Joules/Mol)
                                   12.63424 (Kcal/Mol)
 Warning -- explicit consideration of   6 degrees of freedom as
           vibrations may cause significant error
 Vibrational temperatures:    167.49   360.32   432.88   472.31   670.75
          (Kelvin)            861.21   951.59  1093.88  1307.76  1452.75
                             2408.34  2536.31

 Zero-point correction=                           0.020134 (Hartree/Particle)
 Thermal correction to Energy=                    0.025684
 Thermal correction to Enthalpy=                  0.026628
 Thermal correction to Gibbs Free Energy=        -0.007622
 Sum of electronic and zero-point Energies=           -228.156491
 Sum of electronic and thermal Energies=              -228.150941
 Sum of electronic and thermal Enthalpies=            -228.149997
 Sum of electronic and thermal Free Energies=         -228.184247

                     E (Thermal)             CV                S
                      KCal/Mol        Cal/Mol-Kelvin    Cal/Mol-Kelvin
 Total                   16.117             17.858             72.085
 Electronic               0.000              0.000              0.000
 Translational            0.889              2.981             38.739
 Rotational               0.889              2.981             23.747
 Vibrational             14.339             11.896              9.599
 Vibration     1          0.608              1.936              3.159
 Vibration     2          0.663              1.762              1.728
 Vibration     3          0.693              1.672              1.412
 Vibration     4          0.711              1.619              1.269
 Vibration     5          0.824              1.325              0.748
 Vibration     6          0.957              1.035              0.452

 Optimization completed.
    -- Stationary point found.
 Normal termination of Gaussian 09 at Wed Jul  6 02:51:00 2016.
