 Gaussian 09, Revision E.01,
 Gaussian 09:  EM64L-G09RevE.01 30-Nov-2015

 -----------------------------------------
 #p b3lyp/6-311+G(3df) freq symmetry=Loose
 -----------------------------------------

 ---------
 b3lyp opt
 ---------
 Symbolic Z-matrix:
 Charge =  1 Multiplicity = 4

                         Standard orientation:
 ---------------------------------------------------------------------
 Center     Atomic      Atomic             Coordinates (Angstroms)
 Number     Number       Type             X           Y           Z
 ---------------------------------------------------------------------
      1          6           0       -0.694264    0.933848    0.241556
      2          6           0       -1.067617   -0.462737   -0.421318
      3          6           0        0.338152   -0.475323   -0.839747
      4          6           0        1.070416   -0.458210    0.422156
      5          6           0       -0.336221   -0.474443    0.840277
      6          6           0        0.689534    0.936865   -0.242924
 ---------------------------------------------------------------------

 SCF Done:  E(UB3LYP) =  -227.779598152     A.U. after   17 cycles

 The electronic state is 4-A.
 Alpha  occ. eigenvalues --  -10.56898 -10.56884 -10.56751 -10.56722 -10.56148
 Alpha  occ. eigenvalues --  -10.56114  -1.36587  -1.07438  -1.00417  -0.94520
 Alpha  occ. eigenvalues --   -0.78608  -0.72995  -0.71355  -0.69236  -0.64297
 Alpha  occ. eigenvalues --   -0.63694  -0.59280  -0.56381  -0.51693
 Alpha virt. eigenvalues --   -0.38628  -0.37955  -0.25434  -0.19796  -0.17791
 Alpha virt. eigenvalues --   -0.13296  -0.12706  -0.09017  -0.08496  -0.08453
 Alpha virt. eigenvalues --   -0.08233  -0.07692  -0.07102  -0.06663  -0.06403

  Beta  occ. eigenvalues --  -10.56691 -10.56684 -10.55347 -10.55320 -10.54636
  Beta  occ. eigenvalues --  -10.54607  -1.34721  -1.05097  -0.97794  -0.93206
  Beta  occ. eigenvalues --   -0.76501  -0.66763  -0.66500  -0.65101  -0.62699
  Beta  occ. eigenvalues --   -0.61987
  Beta virt. eigenvalues --   -0.43868  -0.40347  -0.38607  -0.34987  -0.34571
  Beta virt. eigenvalues --   -0.23547  -0.18137  -0.16297  -0.12575  -0.12277
  Beta virt. eigenvalues --   -0.08240  -0.07771  -0.07329  -0.07041  -0.07027

 Mulliken charges and spin densities:
               1          2
     1  C    0.079986   0.746824
     2  C   -0.132828   0.674986
     3  C    0.553645   0.078886
     4  C   -0.132642   0.675336
     5  C    0.553945   0.077362
     6  C    0.077894   0.746605
 Sum of Mulliken charges =   1.00000   3.00000

 Dipole moment (field-independent basis, Debye):
    X=              0.0016    Y=             -0.3227    Z=             -0.0006  Tot=              0.3227
 Quadrupole moment (field-independent basis, Debye-Ang):
   XX=            -26.8977   YY=            -27.2904   ZZ=            -27.4604
   XY=             -0.0051   XZ=             -0.3348   YZ=              0.0004

  Exact polarizability:  53.881   0.011  46.128   0.384   0.000  43.409
 Approx polarizability: 125.767   0.056 100.532  -8.239   0.012 111.672

                      1                      2                      3
                      A                      A                      A
 Frequencies --    353.7647               485.6499               498.2020
 Red. masses --     12.0000                12.0000                12.0000
 Frc consts  --      0.8848                 1.6675                 1.7549
 IR Inten    --      0.1122                 9.9162                 4.7437

                      4                      5                      6
                      A                      A                      A
 Frequencies --    646.2826               660.0543               753.0137
 Red. masses --     12.0000                12.0000                12.0000
 Frc consts  --      2.9531                 3.0803                 4.0090
 IR Inten    --      0.0379                18.3006                 3.1518

                      7                      8                      9
                      A                      A                      A
 Frequencies --    845.5548               904.6302               983.9515
 Red. masses --     12.0000                12.0000                12.0000
 Frc consts  --      5.0549                 5.7859                 6.8451
 IR Inten    --      2.9908                 7.1853                 2.2710

                     10                     11                     12
                      A                      A                      A
 Frequencies --   1104.8353              1138.5431              1208.8333
 Red. masses --     12.0000                12.0000                12.0000
 Frc consts  --      8.6303                 9.1650                10.3315
 IR Inten    --      1.2611                 3.1298                 0.2293

 - Thermochemistry -
 -------------------
 Temperature   298.150 Kelvin.  Pressure   1.00000 Atm.
 Atom     1 has atomic number  6 and mass  12.00000

 Molecular mass:    72.00000 amu.
 Principal axes and moments of inertia in atomic units:
                           1         2         3
     Eigenvalues --   193.23280 229.46698 261.20251
           X            1.00000  -0.00000   0.00000
           Y            0.00000   1.00000   0.00000
           Z           -0.00000  -0.00000   1.00000
 This molecule is an asymmetric top.
 Rotational symmetry number  1.
 Rotational temperatures (Kelvin)      0.44824     0.37746     0.33160
 Rotational constants (GHZ):           9.33972     7.86493     6.90936
 Zero-point vibrational energy      57321.0 (Joules/Mol)
                                   13.70004 (Kcal/Mol)
 Warning -- explicit consideration of   3 degrees of freedom as
           vibrations may cause significant error
 Vibrational temperatures:    508.99   698.74   716.80   929.86   949.67
          (Kelvin)           1083.42  1216.56  1301.56  1415.69  1589.61
                             1638.11  1739.24

 Zero-point correction=                           0.021832 (Hartree/Particle)
 Thermal correction to Energy=                    0.026062
 Thermal correction to Enthalpy=                  0.027006
 Thermal correction to Gibbs Free Energy=        -0.006021
 Sum of electronic and zero-point Energies=           -227.757766
 Sum of electronic and thermal Energies=              -227.753536
 Sum of electronic and thermal Enthalpies=            -227.752592
 Sum of electronic and thermal Free Energies=         -227.785619

                     E (Thermal)             CV                S
                      KCal/Mol        Cal/Mol-Kelvin    Cal/Mol-Kelvin
 Total                   16.354             14.830             69.512
 Electronic               0.000              0.000              2.755
 Translational            0.889              2.981             38.739
 Rotational               0.889              2.981             23.964
 Vibrational             14.577              8.869              4.054
 Vibration     1          0.730              1.568              1.149
 Vibration     2          0.842              1.282              0.695
 Vibration     3          0.854              1.254              0.663

 Normal termination of Gaussian 09 at Tue Nov  1 19:56:42 2016.
