 Gaussian 09, Revision E.01,
 Gaussian 09:  EM64L-G09RevE.01 30-Nov-2015

 ---------------------------------------------
 #p b3lyp/6-311++G(3df,2p) freq symmetry=Loose
 ---------------------------------------------

 ---------
 b3lyp opt
 ---------
 Symbolic Z-matrix:
 Charge =  0 Multiplicity = 1

                         Standard orientation:
 ---------------------------------------------------------------------
 Center     Atomic      Atomic             Coordinates (Angstroms)
 Number     Number       Type             X           Y           Z
 ---------------------------------------------------------------------
      1          6           0        0.714365    1.131376    0.000000
      2          6           0       -1.794873   -1.916541   -0.000000
      3          6           0       -0.792598   -1.121323   -0.000000
      4          6           0        0.275566   -0.377534    0.000000
      5          6           0        1.597540    0.052242    0.000000
      6          6           0        0.000000    2.231781    0.000000
 ---------------------------------------------------------------------

 SCF Done:  E(RB3LYP) =  -228.239750697     A.U. after   17 cycles

 The electronic state is 1-A'.
 Alpha  occ. eigenvalues --  -10.34597 -10.30526 -10.30128 -10.28355 -10.26443
 Alpha  occ. eigenvalues --  -10.23154  -0.99406  -0.83948  -0.79509  -0.71733
 Alpha  occ. eigenvalues --   -0.51828  -0.50339  -0.47514  -0.36361  -0.35585
 Alpha  occ. eigenvalues --   -0.34655  -0.33078  -0.30070
 Alpha virt. eigenvalues --   -0.22967  -0.15223  -0.12053  -0.01498  -0.00180
 Alpha virt. eigenvalues --   -0.00055   0.03078   0.04211   0.04462   0.05349
 Alpha virt. eigenvalues --    0.05897   0.05951   0.06829   0.08127   0.09032

 Mulliken charges:
               1
     1  C    0.759926
     2  C   -0.453388
     3  C    0.747064
     4  C   -0.012835
     5  C   -0.276776
     6  C   -0.763992
 Sum of Mulliken charges =  -0.00000

 Dipole moment (field-independent basis, Debye):
    X=              1.5881    Y=              0.6933    Z=              0.0000  Tot=              1.7328
 Quadrupole moment (field-independent basis, Debye-Ang):
   XX=            -42.1119   YY=            -42.7366   ZZ=            -31.9535
   XY=             -2.5076   XZ=             -0.0000   YZ=             -0.0000

  Exact polarizability:  80.632  22.683 111.241  -0.000  -0.000  42.789
 Approx polarizability: 168.859  64.185 325.167   0.000   0.000  66.581

                      1                      2                      3
                     A'                     A"                     A"
 Frequencies --    142.0668               153.8868               244.0369
 Red. masses --     12.0000                12.0000                12.0000
 Frc consts  --      0.1427                 0.1674                 0.4211
 IR Inten    --      4.0715                12.0091                20.8922

                      4                      5                      6
                     A'                     A'                     A"
 Frequencies --    246.7892               440.6804               488.8643
 Red. masses --     12.0000                12.0000                12.0000
 Frc consts  --      0.4306                 1.3730                 1.6897
 IR Inten    --     22.2574               205.5775                 0.9837

                      7                      8                      9
                     A'                     A'                     A'
 Frequencies --    509.7866               807.8313               994.4308
 Red. masses --     12.0000                12.0000                12.0000
 Frc consts  --      1.8374                 4.6139                 6.9917
 IR Inten    --     36.4125                21.5330                29.7957

                     10                     11                     12
                     A'                     A'                     A'
 Frequencies --   1469.7206              1716.5624              2064.6930
 Red. masses --     12.0000                12.0000                12.0000
 Frc consts  --     15.2722                20.8329                30.1399
 IR Inten    --     61.7273               444.9266              1010.7044

 - Thermochemistry -
 -------------------
 Temperature   298.150 Kelvin.  Pressure   1.00000 Atm.
 Atom     1 has atomic number  6 and mass  12.00000

 Molecular mass:    72.00000 amu.
 Principal axes and moments of inertia in atomic units:
                           1         2         3
     Eigenvalues --   154.40863 630.85934 785.26797
           X            0.55177   0.83400   0.00000
           Y            0.83400  -0.55177   0.00000
           Z           -0.00000  -0.00000   1.00000
 This molecule is an asymmetric top.
 Rotational symmetry number  1.
 Rotational temperatures (Kelvin)      0.56094     0.13729     0.11030
 Rotational constants (GHZ):          11.68809     2.86077     2.29825
 Zero-point vibrational energy      55502.8 (Joules/Mol)
                                   13.26550 (Kcal/Mol)
 Warning -- explicit consideration of   7 degrees of freedom as
           vibrations may cause significant error
 Vibrational temperatures:    204.40   221.41   351.11   355.07   634.04
          (Kelvin)            703.37   733.47  1162.29  1430.76  2114.60
                             2469.75  2970.63

 Zero-point correction=                           0.021140 (Hartree/Particle)
 Thermal correction to Energy=                    0.027095
 Thermal correction to Enthalpy=                  0.028039
 Thermal correction to Gibbs Free Energy=        -0.008054
 Sum of electronic and zero-point Energies=           -228.218611
 Sum of electronic and thermal Energies=              -228.212655
 Sum of electronic and thermal Enthalpies=            -228.211711
 Sum of electronic and thermal Free Energies=         -228.247805

                     E (Thermal)             CV                S
                      KCal/Mol        Cal/Mol-Kelvin    Cal/Mol-Kelvin
 Total                   17.003             18.345             75.965
 Electronic               0.000              0.000              0.000
 Translational            0.889              2.981             38.739
 Rotational               0.889              2.981             25.840
 Vibrational             15.225             12.383             11.387
 Vibration     1          0.616              1.911              2.776
 Vibration     2          0.619              1.898              2.624
 Vibration     3          0.659              1.773              1.773
 Vibration     4          0.661              1.768              1.753
 Vibration     5          0.801              1.381              0.824
 Vibration     6          0.845              1.275              0.687
 Vibration     7          0.865              1.228              0.634

 Normal termination of Gaussian 09 at Sun Jun 19 01:03:11 2016.
