 Gaussian 09, Revision C.01,
 Gaussian 09:  AM64L-G09RevC.01 23-Sep-2011

 ---------------------------------------------
 #p b3lyp/6-311++G(3df,2p) freq symmetry=Loose
 ---------------------------------------------

 (Enter /home/nestor/.gaussian09/l101.exe)
 ---------
 b3lyp opt
 ---------
 Charge =  0 Multiplicity = 1

                         Standard orientation:
 ---------------------------------------------------------------------
 Center     Atomic      Atomic             Coordinates (Angstroms)
 Number     Number       Type             X           Y           Z
 ---------------------------------------------------------------------
      1          6           0        0.000000    1.096160    0.000000
      2          6           0        1.267516    0.731801    0.000000
      3          6           0       -1.267516    0.731801    0.000000
      4          6           0        0.949302   -0.548080    0.000000
      5          6           0       -0.949302   -0.548080    0.000000
      6          6           0        0.000000   -1.463601    0.000000
 ---------------------------------------------------------------------

 SCF Done:  E(RB3LYP) =  -228.324790787     A.U. after   10 cycles

 The electronic state is 1-A1'.
 Alpha  occ. eigenvalues --  -10.29743 -10.29743 -10.29740 -10.23968 -10.23968
 Alpha  occ. eigenvalues --  -10.23960  -1.00132  -0.83527  -0.83527  -0.61040
 Alpha  occ. eigenvalues --   -0.61040  -0.50361  -0.47836  -0.46663  -0.32420
 Alpha  occ. eigenvalues --   -0.32420  -0.31359  -0.31359
 Alpha virt. eigenvalues --   -0.16795  -0.05463  -0.05463  -0.03071  -0.03071
 Alpha virt. eigenvalues --    0.01070   0.03743   0.04352   0.04352   0.06033
 Alpha virt. eigenvalues --    0.06942   0.06942   0.08455   0.08455   0.10051

 Mulliken atomic charges:
              1
     1  C    0.207555
     2  C   -0.207555
     3  C   -0.207555
     4  C    0.207555
     5  C    0.207555
     6  C   -0.207555
 Sum of Mulliken atomic charges =   0.00000

 Dipole moment (field-independent basis, Debye):
    X=              0.0000    Y=              0.0000    Z=              0.0000  Tot=              0.0000
 Quadrupole moment (field-independent basis, Debye-Ang):
   XX=            -35.2753   YY=            -35.2753   ZZ=            -34.0489
   XY=              0.0000   XZ=              0.0000   YZ=              0.0000

  Exact polarizability:  70.745   0.000  70.748   0.000   0.000  35.118
 Approx polarizability: 161.328   0.000 161.328   0.000   0.000  51.767

                     1                      2                      3
                    A2"                    E"                     E"
 Frequencies --   440.2043               537.3374               537.3380
 Red. masses --    12.0000                12.0000                12.0000
 Frc consts  --     1.3701                 2.0414                 2.0414
 IR Inten    --     4.5857                 0.0000                 0.0000

                     4                      5                      6
                    E'                     E'                     A1'
 Frequencies --   643.7478               643.7480               646.1927
 Red. masses --    12.0000                12.0000                12.0000
 Frc consts  --     2.9300                 2.9300                 2.9523
 IR Inten    --    20.0196                20.0192                 0.0000

                     7                      8                      9
                    A1'                    E'                     E'
 Frequencies --  1221.7723              1230.3304              1230.3322
 Red. masses --    12.0000                12.0000                12.0000
 Frc consts  --    10.5539                10.7022                10.7023
 IR Inten    --     0.0000                 1.0071                 1.0072

                    10                     11                     12
                    A2'                    E'                     E'
 Frequencies --  1409.8821              1757.2963              1757.2967
 Red. masses --    12.0000                12.0000                12.0000
 Frc consts  --    14.0539                21.8334                21.8334
 IR Inten    --     0.0000               455.9518               455.9432

 - Thermochemistry -
 -------------------
 Temperature   298.150 Kelvin.  Pressure   1.00000 Atm.
 Atom     1 has atomic number  6 and mass  12.00000

 Molecular mass:    72.00000 amu.
 Principal axes and moments of inertia in atomic units:
                           1         2         3
     Eigenvalues --   214.92993 214.92993 429.85986
           X            0.50000   0.86603   0.00000
           Y            0.86603  -0.50000   0.00000
           Z            0.00000   0.00000   1.00000
 This molecule is an oblate symmetric top.
 Rotational symmetry number  6.
 Rotational temperatures (Kelvin)      0.40299     0.40299     0.20149
 Rotational constants (GHZ):           8.39688     8.39688     4.19844
 Zero-point vibrational energy      72107.8 (Joules/Mol)
                                   17.23417 (Kcal/Mol)
 Warning -- explicit consideration of   3 degrees of freedom as
           vibrations may cause significant error
 Vibrational temperatures:    633.35   773.11   773.11   926.21   926.21
          (Kelvin)            929.73  1757.86  1770.17  1770.17  2028.50
                             2528.35  2528.35

 Zero-point correction=                           0.027464 (Hartree/Particle)
 Thermal correction to Energy=                    0.031432
 Thermal correction to Enthalpy=                  0.032376
 Thermal correction to Gibbs Free Energy=         0.002481
 Sum of electronic and zero-point Energies=           -228.297326
 Sum of electronic and thermal Energies=              -228.293359
 Sum of electronic and thermal Enthalpies=            -228.292415
 Sum of electronic and thermal Free Energies=         -228.322310

                     E (Thermal)             CV                S
                      KCal/Mol        Cal/Mol-Kelvin    Cal/Mol-Kelvin
 Total                   19.724             13.220             62.919
 Electronic               0.000              0.000              0.000
 Translational            0.889              2.981             38.739
 Rotational               0.889              2.981             20.939
 Vibrational             17.946              7.259              3.241
 Vibration     1          0.800              1.382              0.826
 Vibration     2          0.892              1.167              0.571
 Vibration     3          0.892              1.167              0.571

 Optimization completed.
    -- Stationary point found.
 Normal termination of Gaussian 09 at Wed Jul  6 01:50:16 2016.
