 Gaussian 09, Revision E.01,
 Gaussian 09:  EM64L-G09RevE.01 30-Nov-2015

 -----------------------------------------
 #p b3lyp/6-311+G(3df) freq symmetry=Loose
 -----------------------------------------

 ---------
 b3lyp opt
 ---------
 Symbolic Z-matrix:
 Charge =  2 Multiplicity = 1

                         Standard orientation:
 ---------------------------------------------------------------------
 Center     Atomic      Atomic             Coordinates (Angstroms)
 Number     Number       Type             X           Y           Z
 ---------------------------------------------------------------------
      1          6           0        2.302862   -0.027303    0.004332
      2          6           0       -1.400138    0.593479    0.296442
      3          6           0        0.889156    0.001685    0.000656
      4          6           0       -0.165962    0.957483   -0.196508
      5          6           0       -1.445206   -0.613357   -0.279106
      6          6           0       -0.180713   -0.911987    0.174184
 ---------------------------------------------------------------------

 SCF Done:  E(RB3LYP) =  -227.225402865     A.U. after   14 cycles

 The electronic state is 1-A.
 Alpha  occ. eigenvalues --  -10.84760 -10.84177 -10.83738 -10.81303 -10.81204
 Alpha  occ. eigenvalues --  -10.77366  -1.52904  -1.33521  -1.22231  -1.20137
 Alpha  occ. eigenvalues --   -1.03883  -1.02498  -0.96444  -0.89489  -0.81875
 Alpha  occ. eigenvalues --   -0.81311  -0.77924
 Alpha virt. eigenvalues --   -0.67737  -0.65745  -0.61644  -0.59860  -0.58805
 Alpha virt. eigenvalues --   -0.52289  -0.43914  -0.31507  -0.29067  -0.27178
 Alpha virt. eigenvalues --   -0.25373  -0.25221  -0.23589  -0.23239  -0.22056

 Mulliken charges:
               1
     1  C    0.038067
     2  C    0.322862
     3  C    0.549018
     4  C    0.374023
     5  C    0.285783
     6  C    0.430247
 Sum of Mulliken charges =   2.00000

 Dipole moment (field-independent basis, Debye):
    X=              0.0871    Y=             -0.0251    Z=              0.1240  Tot=              0.1536
 Quadrupole moment (field-independent basis, Debye-Ang):
   XX=             -7.0704   YY=            -19.9801   ZZ=            -27.9419
   XY=              0.0066   XZ=             -0.1534   YZ=              0.1009

  Exact polarizability:  77.986   0.503  47.980   0.041  -0.773  31.841
 Approx polarizability: 206.067   4.490 142.449  -1.116  -8.451  62.742

                      1                      2                      3
                      A                      A                      A
 Frequencies --     53.8549               165.5525               233.0989
 Red. masses --     12.0000                12.0000                12.0000
 Frc consts  --      0.0205                 0.1938                 0.3842
 IR Inten    --     17.5129                 3.7678                13.2397

                      4                      5                      6
                      A                      A                      A
 Frequencies --    445.4834               551.1877               598.5958
 Red. masses --     12.0000                12.0000                12.0000
 Frc consts  --      1.4031                 2.1480                 2.5334
 IR Inten    --     30.6281                43.0043                10.7488

                      7                      8                      9
                      A                      A                      A
 Frequencies --    781.5397               893.8945              1039.7365
 Red. masses --     12.0000                12.0000                12.0000
 Frc consts  --      4.3185                 5.6494                 7.6432
 IR Inten    --      5.9971                58.6959                25.8556

                     10                     11                     12
                      A                      A                      A
 Frequencies --   1233.1241              1365.8509              1539.2011
 Red. masses --     12.0000                12.0000                12.0000
 Frc consts  --     10.7509                13.1898                16.7503
 IR Inten    --      4.0526                 0.0650               745.2146

 - Thermochemistry -
 -------------------
 Temperature   298.150 Kelvin.  Pressure   1.00000 Atm.
 Atom     1 has atomic number  6 and mass  12.00000

 Molecular mass:    72.00000 amu.
 Principal axes and moments of inertia in atomic units:
                           1         2         3
     Eigenvalues --   116.23474 447.28593 543.40110
           X            1.00000  -0.00000  -0.00000
           Y            0.00000   1.00000  -0.00000
           Z            0.00000   0.00000   1.00000
 This molecule is an asymmetric top.
 Rotational symmetry number  1.
 Rotational temperatures (Kelvin)      0.74516     0.19364     0.15939
 Rotational constants (GHZ):          15.52669     4.03487     3.32120
 Zero-point vibrational energy      53240.5 (Joules/Mol)
                                   12.72479 (Kcal/Mol)
 Warning -- explicit consideration of   6 degrees of freedom as
           vibrations may cause significant error
 Vibrational temperatures:     77.49   238.19   335.38   640.95   793.04
          (Kelvin)            861.24  1124.46  1286.11  1495.95  1774.19
                             1965.15  2214.56

 Zero-point correction=                           0.020278 (Hartree/Particle)
 Thermal correction to Energy=                    0.025880
 Thermal correction to Enthalpy=                  0.026825
 Thermal correction to Gibbs Free Energy=        -0.008770
 Sum of electronic and zero-point Energies=           -227.205125
 Sum of electronic and thermal Energies=              -227.199522
 Sum of electronic and thermal Enthalpies=            -227.198578
 Sum of electronic and thermal Free Energies=         -227.234173

                     E (Thermal)             CV                S
                      KCal/Mol        Cal/Mol-Kelvin    Cal/Mol-Kelvin
 Total                   16.240             17.050             74.915
 Electronic               0.000              0.000              0.000
 Translational            0.889              2.981             38.739
 Rotational               0.889              2.981             24.850
 Vibrational             14.463             11.088             11.327
 Vibration     1          0.596              1.976              4.671
 Vibration     2          0.624              1.885              2.485
 Vibration     3          0.654              1.790              1.855
 Vibration     4          0.805              1.371              0.810
 Vibration     5          0.907              1.137              0.542
 Vibration     6          0.957              1.035              0.452

 1\1\GINC-BELVIS12\Freq\RB3LYP\6-311+G(3df)\C6(2+)\ROOT\19-Jun-2016\0\\
 #p b3lyp/6-311+G(3df) freq symmetry=Loose\\b3lyp opt\\2,1\C,1.193244,-
 1.589598,-1.163309\C,-0.95468,1.210949,0.150568\C,0.451932,-0.613881,-
 0.457723\C,-0.835359,0.020808,-0.53355\C,-0.471363,0.766791,1.316273\C
 ,0.616227,0.204931,0.687739\\Version=EM64L-G09RevE.01\State=1-A\HF=-22
 7.2254029\RMSD=7.751e-09\RMSF=1.483e-04\ZeroPoint=0.0202782\Thermal=0.
 0258804\Dipole=0.0502079,0.0110145,-0.0318126\DipoleDeriv=0.7923094,-0
 .7190638,-0.6138018,-0.7290595,1.2855465,0.6827967,-0.5854987,0.691489

 Normal termination of Gaussian 09 at Sun Jun 19 13:06:42 2016.
