 Gaussian 09, Revision E.01,
 Gaussian 09:  EM64L-G09RevE.01 30-Nov-2015

 -----------------------------------------
 #p b3lyp/6-311+G(3df) freq symmetry=Loose
 -----------------------------------------

 ---------
 b3lyp opt
 ---------
 Symbolic Z-matrix:
 Charge =  2 Multiplicity = 3

                         Standard orientation:
 ---------------------------------------------------------------------
 Center     Atomic      Atomic             Coordinates (Angstroms)
 Number     Number       Type             X           Y           Z
 ---------------------------------------------------------------------
      1          6           0       -1.239169    0.715435    0.000000
      2          6           0       -0.000000   -1.430870    0.000000
      3          6           0        0.000000    1.178170    0.000000
      4          6           0        1.020325   -0.589085   -0.000000
      5          6           0        1.239169    0.715435   -0.000000
      6          6           0       -1.020325   -0.589085    0.000000
 ---------------------------------------------------------------------

 SCF Done:  E(UB3LYP) =  -227.321845736     A.U. after   12 cycles

 The electronic state is 3-A1'.
 Alpha  occ. eigenvalues --  -10.81942 -10.81942 -10.81939 -10.79738 -10.79738
 Alpha  occ. eigenvalues --  -10.79729  -1.49754  -1.33902  -1.33902  -1.12965
 Alpha  occ. eigenvalues --   -1.12965  -1.03920  -0.97280  -0.95989  -0.84589
 Alpha  occ. eigenvalues --   -0.84589  -0.81980  -0.81980
 Alpha virt. eigenvalues --   -0.67386  -0.57904  -0.57904  -0.52507  -0.52507
 Alpha virt. eigenvalues --   -0.36275  -0.33267  -0.26879  -0.26068  -0.26068
 Alpha virt. eigenvalues --   -0.25392  -0.25392  -0.25140  -0.21285  -0.21285

  Beta  occ. eigenvalues --  -10.82114 -10.82114 -10.82111 -10.78179 -10.78179
  Beta  occ. eigenvalues --  -10.78173  -1.47863  -1.31844  -1.31844  -1.12276
  Beta  occ. eigenvalues --   -1.12276  -1.02835  -0.95480  -0.90941  -0.81155
  Beta  occ. eigenvalues --   -0.81155
  Beta virt. eigenvalues --   -0.69998  -0.69998  -0.61825  -0.55438  -0.55438
  Beta virt. eigenvalues --   -0.51392  -0.51392  -0.33744  -0.33157  -0.26683
  Beta virt. eigenvalues --   -0.25311  -0.25311  -0.24787  -0.24045  -0.24045

 Mulliken charges and spin densities:
               1          2
     1  C    0.524735   0.914959
     2  C    0.524735   0.914959
     3  C    0.141932  -0.248292
     4  C    0.141932  -0.248292
     5  C    0.524735   0.914959
     6  C    0.141932  -0.248292
 Sum of Mulliken charges =   2.00000   2.00000

 Dipole moment (field-independent basis, Debye):
    X=             -0.0000    Y=             -0.0000    Z=              0.0000  Tot=              0.0000
 Quadrupole moment (field-independent basis, Debye-Ang):
   XX=            -12.3354   YY=            -12.3354   ZZ=            -28.2473
   XY=             -0.0000   XZ=              0.0000   YZ=              0.0000

  Exact polarizability:  51.601   0.000  51.601   0.000  -0.000  26.978
 Approx polarizability: 130.269  -0.000 130.269  -0.000  -0.000  34.972

                      1                      2                      3
                     A2"                    E"                     E"
 Frequencies --    430.2270               438.4691               438.4718
 Red. masses --     12.0000                12.0000                12.0000
 Frc consts  --      1.3087                 1.3593                 1.3593
 IR Inten    --      0.2828                 0.0000                 0.0000

                      4                      5                      6
                     E'                     E'                     A1'
 Frequencies --    551.6326               551.6420               641.3515
 Red. masses --     12.0000                12.0000                12.0000
 Frc consts  --      2.1515                 2.1515                 2.9082
 IR Inten    --      2.8713                 2.8700                 0.0000

                      7                      8                      9
                     A1'                    E'                     E'
 Frequencies --   1190.9510              1252.5330              1252.5343
 Red. masses --     12.0000                12.0000                12.0000
 Frc consts  --     10.0281                11.0920                11.0920
 IR Inten    --      0.0000                27.4286                27.4258

                     10                     11                     12
                     A2'                    E'                     E'
 Frequencies --   1473.9739              1671.4205              1671.4212
 Red. masses --     12.0000                12.0000                12.0000
 Frc consts  --     15.3607                19.7516                19.7516
 IR Inten    --      0.0000                 6.7828                 6.7848

 - Thermochemistry -
 -------------------
 Temperature   298.150 Kelvin.  Pressure   1.00000 Atm.
 Atom     1 has atomic number  6 and mass  12.00000

 Molecular mass:    72.00000 amu.
 Principal axes and moments of inertia in atomic units:
                           1         2         3
     Eigenvalues --   220.82930 220.82930 441.65860
           X            0.09183   0.99577   0.00000
           Y            0.99577  -0.09183   0.00000
           Z           -0.00000  -0.00000   1.00000
 This molecule is an oblate symmetric top.
 Rotational symmetry number  6.
 Rotational temperatures (Kelvin)      0.39222     0.39222     0.19611
 Rotational constants (GHZ):           8.17256     8.17256     4.08628
 Zero-point vibrational energy      69171.8 (Joules/Mol)
                                   16.53247 (Kcal/Mol)
 Warning -- explicit consideration of   5 degrees of freedom as
           vibrations may cause significant error
 Vibrational temperatures:    619.00   630.86   630.86   793.68   793.69
          (Kelvin)            922.76  1713.51  1802.11  1802.12  2120.72
                             2404.80  2404.80

 Zero-point correction=                           0.026346 (Hartree/Particle)
 Thermal correction to Energy=                    0.030578
 Thermal correction to Enthalpy=                  0.031522
 Thermal correction to Gibbs Free Energy=         0.000134
 Sum of electronic and zero-point Energies=           -227.295500
 Sum of electronic and thermal Energies=              -227.291268
 Sum of electronic and thermal Enthalpies=            -227.290324
 Sum of electronic and thermal Free Energies=         -227.321712

                     E (Thermal)             CV                S
                      KCal/Mol        Cal/Mol-Kelvin    Cal/Mol-Kelvin
 Total                   19.188             14.076             66.062
 Electronic               0.000              0.000              2.183
 Translational            0.889              2.981             38.739
 Rotational               0.889              2.981             21.020
 Vibrational             17.411              8.115              4.120
 Vibration     1          0.791              1.404              0.858
 Vibration     2          0.799              1.386              0.831
 Vibration     3          0.799              1.386              0.831
 Vibration     4          0.907              1.136              0.541
 Vibration     5          0.907              1.136              0.541

 Optimization completed.
    -- Stationary point found.
 Normal termination of Gaussian 09 at Sun Oct 23 12:21:24 2016.
