 Gaussian 09, Revision C.01,
 Gaussian 09:  AM64L-G09RevC.01 23-Sep-2011

 ---------------------------------------------
 #p b3lyp/6-311++G(3df,2p) freq symmetry=Loose
 ---------------------------------------------

 (Enter /home/nestor/.gaussian09/l101.exe)
 ---------
 b3lyp opt
 ---------
 Charge =  0 Multiplicity = 3

                         Standard orientation:
 ---------------------------------------------------------------------
 Center     Atomic      Atomic             Coordinates (Angstroms)
 Number     Number       Type             X           Y           Z
 ---------------------------------------------------------------------
      1          6           0        0.000000    0.906725    0.602474
      2          6           0        0.000000    0.000000    1.564578
      3          6           0        0.000000    1.206769   -0.706898
      4          6           0        0.000000   -0.906725    0.602474
      5          6           0        0.000000    0.000000   -1.355730
      6          6           0        0.000000   -1.206769   -0.706898
 ---------------------------------------------------------------------

 SCF Done:  E(UB3LYP) =  -228.278547609     A.U. after   18 cycles

 The electronic state is 3-B2.
 Alpha  occ. eigenvalues --  -10.29786 -10.29786 -10.26004 -10.25867 -10.25851
 Alpha  occ. eigenvalues --  -10.24757  -0.98421  -0.84359  -0.79979  -0.63155
 Alpha  occ. eigenvalues --   -0.59893  -0.50611  -0.47289  -0.46420  -0.33777
 Alpha  occ. eigenvalues --   -0.33232  -0.32253  -0.31773  -0.25677
 Alpha virt. eigenvalues --   -0.13762  -0.05681  -0.04695  -0.03872   0.01275
 Alpha virt. eigenvalues --    0.04181   0.04215   0.04397   0.06304   0.06547
 Alpha virt. eigenvalues --    0.06733   0.08371   0.08536   0.10411   0.10825

  Beta  occ. eigenvalues --  -10.29440 -10.29440 -10.25051 -10.24930 -10.24401
  Beta  occ. eigenvalues --  -10.24396  -0.97354  -0.83225  -0.77574  -0.61162
  Beta  occ. eigenvalues --   -0.58635  -0.49710  -0.45872  -0.43175  -0.31380
  Beta  occ. eigenvalues --   -0.30479  -0.30175
  Beta virt. eigenvalues --   -0.18955  -0.13852  -0.09876  -0.03832  -0.02445
  Beta virt. eigenvalues --   -0.02298   0.01480   0.04316   0.04764   0.04788
  Beta virt. eigenvalues --    0.06378   0.07128   0.07215   0.08502   0.08611

 Mulliken atomic charges:
              1
     1  C    0.215860
     2  C   -0.119871
     3  C   -0.025667
     4  C    0.215860
     5  C   -0.260516
     6  C   -0.025667
 Sum of Mulliken atomic charges =   0.00000

 Dipole moment (field-independent basis, Debye):
    X=              0.0000    Y=              0.0000    Z=              0.3811  Tot=              0.3811
 Quadrupole moment (field-independent basis, Debye-Ang):
   XX=            -34.4146   YY=            -32.4895   ZZ=            -36.9167
   XY=              0.0000   XZ=              0.0000   YZ=              0.0000

  Exact polarizability:  37.616   0.000  76.116   0.000   0.000  87.132
 Approx polarizability:  54.131   0.000 172.269   0.000   0.000 238.396

                     1                      2                      3
                    B1                     A1                     B1
 Frequencies --   417.3819               431.1725               474.2727
 Red. masses --    12.0000                12.0000                12.0000
 Frc consts  --     1.2317                 1.3144                 1.5903
 IR Inten    --     0.7610               106.8648                 2.3002

                     4                      5                      6
                    A2                     B2                     A1
 Frequencies --   510.3519               535.2687               607.4805
 Red. masses --    12.0000                12.0000                12.0000
 Frc consts  --     1.8415                 2.0257                 2.6091
 IR Inten    --     0.0000                50.6386                43.0389

                     7                      8                      9
                    A1                     B2                     A1
 Frequencies --  1062.1967              1069.6142              1162.1520
 Red. masses --    12.0000                12.0000                12.0000
 Frc consts  --     7.9770                 8.0888                 9.5490
 IR Inten    --    95.5432                 0.5285                 0.0263

                    10                     11                     12
                    B2                     B2                     A1
 Frequencies --  1287.8643              1511.4639              1745.8998
 Red. masses --    12.0000                12.0000                12.0000
 Frc consts  --    11.7266                16.1520                21.5511
 IR Inten    --     0.0091                40.5434               220.5111

 - Thermochemistry -
 -------------------
 Temperature   298.150 Kelvin.  Pressure   1.00000 Atm.
 Atom     1 has atomic number  6 and mass  12.00000

 Molecular mass:    72.00000 amu.
 Principal axes and moments of inertia in atomic units:
                           1         2         3
     Eigenvalues --   195.27501 257.59947 452.87447
           X            0.00000   0.00000   1.00000
           Y            0.00000   1.00000   0.00000
           Z            1.00000   0.00000   0.00000
 This molecule is an asymmetric top.
 Rotational symmetry number  2.
 Rotational temperatures (Kelvin)      0.44355     0.33623     0.19125
 Rotational constants (GHZ):           9.24205     7.00600     3.98508
 Zero-point vibrational energy      64688.8 (Joules/Mol)
                                   15.46099 (Kcal/Mol)
 Warning -- explicit consideration of   6 degrees of freedom as
           vibrations may cause significant error
 Vibrational temperatures:    600.52   620.36   682.37   734.28   770.13
          (Kelvin)            874.03  1528.26  1538.93  1672.08  1852.95
                             2174.66  2511.96

 Zero-point correction=                           0.024639 (Hartree/Particle)
 Thermal correction to Energy=                    0.028955
 Thermal correction to Enthalpy=                  0.029899
 Thermal correction to Gibbs Free Energy=        -0.002668
 Sum of electronic and zero-point Energies=           -228.253909
 Sum of electronic and thermal Energies=              -228.249593
 Sum of electronic and thermal Enthalpies=            -228.248649
 Sum of electronic and thermal Free Energies=         -228.281216

                     E (Thermal)             CV                S
                      KCal/Mol        Cal/Mol-Kelvin    Cal/Mol-Kelvin
 Total                   18.169             14.627             68.543
 Electronic               0.000              0.000              2.183
 Translational            0.889              2.981             38.739
 Rotational               0.889              2.981             23.259
 Vibrational             16.392              8.666              4.362
 Vibration     1          0.780              1.432              0.901
 Vibration     2          0.792              1.402              0.855
 Vibration     3          0.831              1.307              0.726
 Vibration     4          0.865              1.227              0.633
 Vibration     5          0.890              1.172              0.576
 Vibration     6          0.966              1.016              0.437

 Optimization completed.
    -- Stationary point found.
 Normal termination of Gaussian 09 at Fri Jul  8 18:31:58 2016.
