 Gaussian 09, Revision E.01,
 Gaussian 09:  EM64L-G09RevE.01 30-Nov-2015

 -----------------------------------------
 #p b3lyp/6-311+G(3df) freq symmetry=Loose
 -----------------------------------------

 ---------
 b3lyp opt
 ---------
 Symbolic Z-matrix:
 Charge =  1 Multiplicity = 2

                         Standard orientation:
 ---------------------------------------------------------------------
 Center     Atomic      Atomic             Coordinates (Angstroms)
 Number     Number       Type             X           Y           Z
 ---------------------------------------------------------------------
      1          6           0       -0.189255    1.217723    0.015300
      2          6           0       -1.388902   -0.332755   -0.114709
      3          6           0       -0.144421   -0.645823   -0.663575
      4          6           0        0.998326   -0.721943    0.380574
      5          6           0       -0.168008    0.033030    0.918075
      6          6           0        0.892259    0.449768   -0.535664
 ---------------------------------------------------------------------

 SCF Done:  E(UB3LYP) =  -227.791653858     A.U. after   22 cycles

 The electronic state is 2-A.
 Alpha  occ. eigenvalues --  -10.59326 -10.59164 -10.58862 -10.58164 -10.57968
 Alpha  occ. eigenvalues --  -10.54668  -1.38338  -1.07091  -1.03682  -0.95050
 Alpha  occ. eigenvalues --   -0.77173  -0.74257  -0.71353  -0.67614  -0.65181
 Alpha  occ. eigenvalues --   -0.62933  -0.58578  -0.55094
 Alpha virt. eigenvalues --   -0.41247  -0.37073  -0.34904  -0.31874  -0.20507
 Alpha virt. eigenvalues --   -0.17875  -0.13597  -0.12826  -0.10987  -0.10757
 Alpha virt. eigenvalues --   -0.08616  -0.07696  -0.07304  -0.07094  -0.06891

  Beta  occ. eigenvalues --  -10.59253 -10.58802 -10.58115 -10.58014 -10.57141
  Beta  occ. eigenvalues --  -10.54722  -1.37786  -1.06765  -1.02347  -0.94744
  Beta  occ. eigenvalues --   -0.76641  -0.73121  -0.68244  -0.67044  -0.64777
  Beta  occ. eigenvalues --   -0.60312  -0.54827
  Beta virt. eigenvalues --   -0.45172  -0.40370  -0.36047  -0.34412  -0.31193
  Beta virt. eigenvalues --   -0.20179  -0.17081  -0.13454  -0.12491  -0.10752
  Beta virt. eigenvalues --   -0.10373  -0.08347  -0.07439  -0.07127  -0.06958

 Mulliken charges and spin densities:
               1          2
     1  C   -0.151975   0.551206
     2  C   -0.501909  -0.038659
     3  C    0.778363  -0.007176
     4  C   -0.383611   0.504507
     5  C    0.807539   0.001355
     6  C    0.451593  -0.011235
 Sum of Mulliken charges =   1.00000   1.00000

 Dipole moment (field-independent basis, Debye):
    X=              1.4853    Y=              0.3483    Z=             -0.1444  Tot=              1.5324
 Quadrupole moment (field-independent basis, Debye-Ang):
   XX=            -30.0499   YY=            -26.6262   ZZ=            -27.4541
   XY=              0.6113   XZ=             -0.3119   YZ=              0.6668

  Exact polarizability:  58.876  -5.866  54.230   0.458  -2.679  42.062
 Approx polarizability: 144.996 -10.967 135.018 -12.288  -4.812 107.231

                      1                      2                      3
                      A                      A                      A
 Frequencies --    125.4545               296.2108               372.1033
 Red. masses --     12.0000                12.0000                12.0000
 Frc consts  --      0.1113                 0.6203                 0.9789
 IR Inten    --      3.0965                 5.3891                 2.4189

                      4                      5                      6
                      A                      A                      A
 Frequencies --    526.1615               633.0394               687.1688
 Red. masses --     12.0000                12.0000                12.0000
 Frc consts  --      1.9574                 2.8333                 3.3386
 IR Inten    --      3.5937                 9.6494                26.8242

                      7                      8                      9
                      A                      A                      A
 Frequencies --    777.4111               854.5954               933.6895
 Red. masses --     12.0000                12.0000                12.0000
 Frc consts  --      4.2730                 5.1636                 6.1636
 IR Inten    --      4.9340                11.1427                 4.3997

                     10                     11                     12
                      A                      A                      A
 Frequencies --   1051.4345              1169.3597              1221.1089
 Red. masses --     12.0000                12.0000                12.0000
 Frc consts  --      7.8162                 9.6678                10.5424
 IR Inten    --     14.4178                 2.8288                 6.6673

 - Thermochemistry -
 -------------------
 Temperature   298.150 Kelvin.  Pressure   1.00000 Atm.
 Atom     1 has atomic number  6 and mass  12.00000

 Molecular mass:    72.00000 amu.
 Principal axes and moments of inertia in atomic units:
                           1         2         3
     Eigenvalues --   191.27789 237.19399 280.34195
           X            1.00000  -0.00000  -0.00000
           Y            0.00000   1.00000  -0.00000
           Z            0.00000   0.00000   1.00000
 This molecule is an asymmetric top.
 Rotational symmetry number  1.
 Rotational temperatures (Kelvin)      0.45282     0.36516     0.30896
 Rotational constants (GHZ):           9.43518     7.60871     6.43764
 Zero-point vibrational energy      51725.0 (Joules/Mol)
                                   12.36256 (Kcal/Mol)
 Warning -- explicit consideration of   4 degrees of freedom as
           vibrations may cause significant error
 Vibrational temperatures:    180.50   426.18   535.37   757.03   910.80
          (Kelvin)            988.68  1118.52  1229.57  1343.37  1512.78
                             1682.45  1756.90

 Zero-point correction=                           0.019701 (Hartree/Particle)
 Thermal correction to Energy=                    0.024710
 Thermal correction to Enthalpy=                  0.025654
 Thermal correction to Gibbs Free Energy=        -0.008406
 Sum of electronic and zero-point Energies=           -227.771953
 Sum of electronic and thermal Energies=              -227.766944
 Sum of electronic and thermal Enthalpies=            -227.765999
 Sum of electronic and thermal Free Energies=         -227.800060

                     E (Thermal)             CV                S
                      KCal/Mol        Cal/Mol-Kelvin    Cal/Mol-Kelvin
 Total                   15.506             16.559             71.687
 Electronic               0.000              0.000              1.377
 Translational            0.889              2.981             38.739
 Rotational               0.889              2.981             24.057
 Vibrational             13.728             10.597              7.514
 Vibration     1          0.610              1.928              3.015
 Vibration     2          0.690              1.681              1.438
 Vibration     3          0.744              1.529              1.071
 Vibration     4          0.881              1.192              0.596

 Normal termination of Gaussian 09 at Tue Nov  1 19:44:47 2016.
