 Gaussian 09, Revision E.01,
 Gaussian 09:  EM64L-G09RevE.01 30-Nov-2015

 ---------------------------------------------
 #p b3lyp/6-311++G(3df,2p) freq symmetry=Loose
 ---------------------------------------------

 ---------
 b3lyp opt
 ---------
 Symbolic Z-matrix:
 Charge =  0 Multiplicity = 3

                         Standard orientation:
 ---------------------------------------------------------------------
 Center     Atomic      Atomic             Coordinates (Angstroms)
 Number     Number       Type             X           Y           Z
 ---------------------------------------------------------------------
      1          6           0       -0.732407   -0.459876    0.000000
      2          6           0        0.750291   -0.454657    0.000000
      3          6           0       -1.920746   -0.998767    0.000000
      4          6           0        1.935468   -0.990197    0.000000
      5          6           0       -0.032606    2.126584    0.000000
      6          6           0        0.000000    0.776913    0.000000
 ---------------------------------------------------------------------

 SCF Done:  E(UB3LYP) =  -228.155990557     A.U. after   27 cycles

 The electronic state is 3-A".
 Alpha  occ. eigenvalues --  -10.33231 -10.30829 -10.28972 -10.28764 -10.28400
 Alpha  occ. eigenvalues --  -10.28163  -0.99934  -0.82537  -0.81329  -0.75860
 Alpha  occ. eigenvalues --   -0.51040  -0.50008  -0.49290  -0.37411  -0.35419
 Alpha  occ. eigenvalues --   -0.34856  -0.34281  -0.32403  -0.28347
 Alpha virt. eigenvalues --   -0.16822  -0.15018  -0.13982  -0.00223   0.00127
 Alpha virt. eigenvalues --    0.02422   0.03601   0.03777   0.03983   0.05716
 Alpha virt. eigenvalues --    0.06589   0.06610   0.08067   0.08701   0.08967

  Beta  occ. eigenvalues --  -10.32884 -10.29413 -10.28658 -10.28386 -10.28081
  Beta  occ. eigenvalues --  -10.27969  -0.99499  -0.79607  -0.78487  -0.73882
  Beta  occ. eigenvalues --   -0.49667  -0.48379  -0.46912  -0.34935  -0.34250
  Beta  occ. eigenvalues --   -0.34083  -0.30513
  Beta virt. eigenvalues --   -0.24366  -0.19144  -0.11899  -0.11804  -0.10492
  Beta virt. eigenvalues --    0.00047   0.02945   0.03078   0.03930   0.04054
  Beta virt. eigenvalues --    0.04449   0.05770   0.06860   0.07041   0.08875

 Mulliken charges and spin densities:
               1          2
     1  C    0.648186   0.166387
     2  C    0.703592   0.156226
     3  C   -0.561097   0.307327
     4  C   -0.560552   0.215897
     5  C   -0.584738   0.774367
     6  C    0.354610   0.379796
 Sum of Mulliken charges =  -0.00000   2.00000

 Dipole moment (field-independent basis, Debye):
    X=             -0.0933    Y=              0.2742    Z=              0.0000  Tot=              0.2896
 Quadrupole moment (field-independent basis, Debye-Ang):
   XX=            -43.9256   YY=            -40.2758   ZZ=            -33.8001
   XY=              0.2721   XZ=              0.0000   YZ=              0.0000

  Exact polarizability: 122.969   1.116 103.519   0.000  -0.000  44.966
 Approx polarizability: 301.261   7.915 225.905  -0.000  -0.000  64.925

                      1                      2                      3
                     A'                     A'                     A"
 Frequencies --     64.8850               164.9795               184.7215
 Red. masses --     12.0000                12.0000                12.0000
 Frc consts  --      0.0298                 0.1924                 0.2412
 IR Inten    --     45.0148                24.6010                26.1320

                      4                      5                      6
                     A"                     A"                     A'
 Frequencies --    315.2592               367.5445               386.4764
 Red. masses --     12.0000                12.0000                12.0000
 Frc consts  --      0.7027                 0.9551                 1.0560
 IR Inten    --      7.4411                 0.1666                19.0034

                      7                      8                      9
                     A'                     A'                     A'
 Frequencies --    607.4021               656.2609               822.6649
 Red. masses --     12.0000                12.0000                12.0000
 Frc consts  --      2.6085                 3.0450                 4.7849
 IR Inten    --    120.9145               671.3626                 2.0271

                     10                     11                     12
                     A'                     A'                     A'
 Frequencies --   1249.8840              1488.8753              1849.8272
 Red. masses --     12.0000                12.0000                12.0000
 Frc consts  --     11.0451                15.6729                24.1932
 IR Inten    --   1729.7940               154.4260               114.6363

 - Thermochemistry -
 -------------------
 Temperature   298.150 Kelvin.  Pressure   1.00000 Atm.
 Atom     1 has atomic number  6 and mass  12.00000

 Molecular mass:    72.00000 amu.
 Principal axes and moments of inertia in atomic units:
                           1         2         3
     Eigenvalues --   322.12962 365.99591 688.12554
           X            0.99753   0.07028   0.00000
           Y           -0.07028   0.99753   0.00000
           Z           -0.00000   0.00000   1.00000
 This molecule is an asymmetric top.
 Rotational symmetry number  1.
 Rotational temperatures (Kelvin)      0.26888     0.23665     0.12587
 Rotational constants (GHZ):           5.60253     4.93104     2.62269
 Zero-point vibrational energy      48800.3 (Joules/Mol)
                                   11.66356 (Kcal/Mol)
 Warning -- explicit consideration of   7 degrees of freedom as
           vibrations may cause significant error
 Vibrational temperatures:     93.35   237.37   265.77   453.59   528.81
          (Kelvin)            556.05   873.91   944.21  1183.63  1798.30
                             2142.16  2661.49

 Zero-point correction=                           0.018587 (Hartree/Particle)
 Thermal correction to Energy=                    0.024872
 Thermal correction to Enthalpy=                  0.025817
 Thermal correction to Gibbs Free Energy=        -0.012370
 Sum of electronic and zero-point Energies=           -228.137403
 Sum of electronic and thermal Energies=              -228.131118
 Sum of electronic and thermal Enthalpies=            -228.130174
 Sum of electronic and thermal Free Energies=         -228.168361

                     E (Thermal)             CV                S
                      KCal/Mol        Cal/Mol-Kelvin    Cal/Mol-Kelvin
 Total                   15.608             19.180             80.371
 Electronic               0.000              0.000              2.183
 Translational            0.889              2.981             38.739
 Rotational               0.889              2.981             25.898
 Vibrational             13.830             13.219             13.551
 Vibration     1          0.597              1.971              4.303
 Vibration     2          0.623              1.885              2.492
 Vibration     3          0.631              1.861              2.280
 Vibration     4          0.703              1.645              1.335
 Vibration     5          0.740              1.539              1.090
 Vibration     6          0.755              1.499              1.014
 Vibration     7          0.966              1.016              0.437

 Normal termination of Gaussian 09 at Sun Jun 19 01:21:35 2016.
