 Gaussian 09, Revision E.01,
 Gaussian 09:  EM64L-G09RevE.01 30-Nov-2015

 ---------------------------------------------
 #p b3lyp/6-311++G(3df,2p) freq symmetry=Loose
 ---------------------------------------------

 ---------
 b3lyp opt
 ---------
 Symbolic Z-matrix:
 Charge =  0 Multiplicity = 3

                         Standard orientation:
 ---------------------------------------------------------------------
 Center     Atomic      Atomic             Coordinates (Angstroms)
 Number     Number       Type             X           Y           Z
 ---------------------------------------------------------------------
      1          6           0        0.000000    0.000000    3.213900
      2          6           0        0.000000    0.000000    1.918800
      3          6           0        0.000000    0.000000    0.635400
      4          6           0        0.000000    0.000000   -0.635400
      5          6           0        0.000000    0.000000   -1.918800
      6          6           0        0.000000    0.000000   -3.213900
 ---------------------------------------------------------------------

 SCF Done:  E(UB3LYP) =  -228.334387164     A.U. after   13 cycles

 The electronic state is 3-SGG.
 Alpha  occ. eigenvalues --  -10.30297 -10.30155 -10.27281 -10.27280 -10.25206
 Alpha  occ. eigenvalues --  -10.25203  -0.90788  -0.85489  -0.80716  -0.72766
 Alpha  occ. eigenvalues --   -0.66752  -0.46084  -0.46084  -0.38553  -0.38553
 Alpha  occ. eigenvalues --   -0.34489  -0.34377  -0.29991  -0.29991
 Alpha virt. eigenvalues --   -0.13562  -0.13562  -0.00954   0.00586   0.00586
 Alpha virt. eigenvalues --    0.02846   0.03885   0.03885   0.05314   0.06387
 Alpha virt. eigenvalues --    0.06387   0.07115   0.10513   0.10513   0.10711

  Beta  occ. eigenvalues --  -10.29946 -10.29812 -10.26330 -10.26329 -10.25028
  Beta  occ. eigenvalues --  -10.25025  -0.89282  -0.84006  -0.77444  -0.70830
  Beta  occ. eigenvalues --   -0.65719  -0.43909  -0.43909  -0.35521  -0.35521
  Beta  occ. eigenvalues --   -0.32695  -0.32611
  Beta virt. eigenvalues --   -0.21601  -0.21601  -0.09863  -0.09863  -0.00829
  Beta virt. eigenvalues --    0.02549   0.02549   0.03113   0.04598   0.04598
  Beta virt. eigenvalues --    0.05473   0.06757   0.06757   0.07138   0.11037

 Mulliken charges and spin densities:
               1          2
     1  C   -0.794125   0.520662
     2  C    1.276698   0.328700
     3  C   -0.482573   0.150637
     4  C   -0.482573   0.150637
     5  C    1.276698   0.328700
     6  C   -0.794125   0.520662
 Sum of Mulliken charges =  -0.00000   2.00000

 Dipole moment (field-independent basis, Debye):
    X=             -0.0000    Y=             -0.0000    Z=              0.0000  Tot=              0.0000
 Quadrupole moment (field-independent basis, Debye-Ang):
   XX=            -33.1889   YY=            -33.1889   ZZ=            -56.0538
   XY=             -0.0000   XZ=              0.0000   YZ=              0.0000

  Exact polarizability:  42.334  -0.000  42.334   0.000  -0.000 213.649
 Approx polarizability:  59.578  -0.000  59.578  -0.000  -0.000 536.586

                      1                      2                      3
                     PIU                    PIU                    PIG
 Frequencies --    103.4839               103.4839               218.8032
 Red. masses --     12.0000                12.0000                12.0000
 Frc consts  --      0.0757                 0.0757                 0.3385
 IR Inten    --     15.9409                15.9409                 0.0000

                      4                      5                      6
                     PIG                    PIU                    PIU
 Frequencies --    218.8032               400.7173               400.7173
 Red. masses --     12.0000                12.0000                12.0000
 Frc consts  --      0.3385                 1.1353                 1.1353
 IR Inten    --      0.0000                 5.5212                 5.5212

                      7                      8                      9
                     PIG                    PIG                    SGG
 Frequencies --    595.5559               595.5559               670.7114
 Red. masses --     12.0000                12.0000                12.0000
 Frc consts  --      2.5077                 2.5077                 3.1806
 IR Inten    --      0.0000                 0.0000                 0.0000

                     10                     11                     12
                     SGU                    SGG                    SGU
 Frequencies --   1230.8526              1735.0700              2029.6912
 Red. masses --     12.0000                12.0000                12.0000
 Frc consts  --     10.7113                21.2846                29.1267
 IR Inten    --     97.5459                 0.0000              1192.6898

                     13
                     SGG
 Frequencies --   2178.1824
 Red. masses --     12.0000
 Frc consts  --     33.5444
 IR Inten    --      0.0000

 - Thermochemistry -
 -------------------
 Temperature   298.150 Kelvin.  Pressure   1.00000 Atm.
 Atom     1 has atomic number  6 and mass  12.00000

 Molecular mass:    72.00000 amu.
 Principal axes and moments of inertia in atomic units:
                           1         2         3
     Eigenvalues --     0.000001235.418161235.41816
           X           -0.00000   1.00000  -0.00000
           Y            0.00000   0.00000   1.00000
           Z            1.00000   0.00000  -0.00000
 This molecule is a prolate symmetric top.
 Rotational symmetry number  2.
 Warning -- assumption of classical behavior for rotation
           may cause significant error
 Rotational temperature (Kelvin)      0.07011
 Rotational constant (GHZ):           1.460834
 Zero-point vibrational energy      62694.1 (Joules/Mol)
                                   14.98424 (Kcal/Mol)
 Warning -- explicit consideration of   8 degrees of freedom as
           vibrations may cause significant error
 Vibrational temperatures:    148.89   148.89   314.81   314.81   576.54
          (Kelvin)            576.54   856.87   856.87   965.00  1770.92
                             2496.38  2920.27  3133.91

 Zero-point correction=                           0.023879 (Hartree/Particle)
 Thermal correction to Energy=                    0.029844
 Thermal correction to Enthalpy=                  0.030788
 Thermal correction to Gibbs Free Energy=        -0.003454
 Sum of electronic and zero-point Energies=           -228.310508
 Sum of electronic and thermal Energies=              -228.304544
 Sum of electronic and thermal Enthalpies=            -228.303599
 Sum of electronic and thermal Free Energies=         -228.337842

                     E (Thermal)             CV                S
                      KCal/Mol        Cal/Mol-Kelvin    Cal/Mol-Kelvin
 Total                   18.727             18.626             72.069
 Electronic               0.000              0.000              2.183
 Translational            0.889              2.981             38.739
 Rotational               0.592              1.987             17.213
 Vibrational             17.246             13.658             13.933
 Vibration     1          0.605              1.946              3.388
 Vibration     2          0.605              1.946              3.388
 Vibration     3          0.647              1.812              1.969
 Vibration     4          0.647              1.812              1.969
 Vibration     5          0.767              1.469              0.960
 Vibration     6          0.767              1.469              0.960
 Vibration     7          0.953              1.041              0.457
 Vibration     8          0.953              1.041              0.457

 Optimization completed.
    -- Stationary point found.
 Normal termination of Gaussian 09 at Sun Jun 19 01:00:52 2016.
