 Gaussian 09, Revision E.01,
 Gaussian 09:  EM64L-G09RevE.01 30-Nov-2015

 ---------------------------------------------
 #p b3lyp/6-311++G(3df,2p) freq symmetry=Loose
 ---------------------------------------------

 ---------
 b3lyp opt
 ---------
 Symbolic Z-matrix:
 Charge =  0 Multiplicity = 3

                         Standard orientation:
 ---------------------------------------------------------------------
 Center     Atomic      Atomic             Coordinates (Angstroms)
 Number     Number       Type             X           Y           Z
 ---------------------------------------------------------------------
      1          6           0        0.650968    1.225629   -0.003569
      2          6           0       -1.077576   -0.005936    0.692431
      3          6           0       -1.077469   -0.012353   -0.692479
      4          6           0        0.675743   -1.213841    0.003579
      5          6           0        0.414112    0.005920    0.800578
      6          6           0        0.414223    0.000580   -0.800539
 ---------------------------------------------------------------------

 SCF Done:  E(UB3LYP) =  -228.139351675     A.U. after   18 cycles

 The electronic state is 3-A.
 Alpha  occ. eigenvalues --  -10.30724 -10.30667 -10.30229 -10.30213 -10.29086
 Alpha  occ. eigenvalues --  -10.29083  -1.08370  -0.81259  -0.74917  -0.71329
 Alpha  occ. eigenvalues --   -0.53915  -0.46856  -0.46793  -0.44429  -0.37584
 Alpha  occ. eigenvalues --   -0.37167  -0.30843  -0.30732  -0.29428
 Alpha virt. eigenvalues --   -0.12019  -0.11891  -0.07897  -0.07050   0.01601
 Alpha virt. eigenvalues --    0.02239   0.03566   0.03966   0.06019   0.06871
 Alpha virt. eigenvalues --    0.07320   0.07395   0.07853   0.09136   0.10242

  Beta  occ. eigenvalues --  -10.29696 -10.29680 -10.29236 -10.29185 -10.29095
  Beta  occ. eigenvalues --  -10.29092  -1.06929  -0.78545  -0.74677  -0.68999
  Beta  occ. eigenvalues --   -0.51211  -0.44211  -0.43175  -0.42629  -0.35887
  Beta  occ. eigenvalues --   -0.35042  -0.29259
  Beta virt. eigenvalues --   -0.18782  -0.15804  -0.11298  -0.10921  -0.06321
  Beta virt. eigenvalues --   -0.04527   0.01869   0.02743   0.03985   0.04123
  Beta virt. eigenvalues --    0.06436   0.07119   0.07367   0.07433   0.07878

 Mulliken charges and spin densities:
               1          2
     1  C   -0.477124   0.036245
     2  C    0.025333   0.856398
     3  C    0.025298   0.856366
     4  C   -0.476896   0.036813
     5  C    0.451648   0.107095
     6  C    0.451740   0.107082
 Sum of Mulliken charges =  -0.00000   2.00000

 Dipole moment (field-independent basis, Debye):
    X=             -0.4301    Y=             -0.0044    Z=              0.0000  Tot=              0.4301
 Quadrupole moment (field-independent basis, Debye-Ang):
   XX=            -33.6889   YY=            -41.4499   ZZ=            -33.1898
   XY=              0.0823   XZ=             -0.0005   YZ=              0.0265

  Exact polarizability:  62.355  -0.012  58.876   0.000   0.004  53.477
 Approx polarizability: 127.749   0.139 107.328  -0.001   0.097 120.181

                      1                      2                      3
                      A                      A                      A
 Frequencies --     65.2008               126.9813               312.3004
 Red. masses --     12.0000                12.0000                12.0000
 Frc consts  --      0.0301                 0.1140                 0.6896
 IR Inten    --      0.1699                 0.0001                 0.1716

                      4                      5                      6
                      A                      A                      A
 Frequencies --    585.7464               648.8538               809.5081
 Red. masses --     12.0000                12.0000                12.0000
 Frc consts  --      2.4258                 2.9766                 4.6331
 IR Inten    --      0.0000                 0.0085                12.8865

                      7                      8                      9
                      A                      A                      A
 Frequencies --    915.0261               934.4859              1074.2507
 Red. masses --     12.0000                12.0000                12.0000
 Frc consts  --      5.9197                 6.1741                 8.1591
 IR Inten    --      4.1233                 0.7978                 2.5774

                     10                     11                     12
                      A                      A                      A
 Frequencies --   1135.6162              1175.4806              1392.4733
 Red. masses --     12.0000                12.0000                12.0000
 Frc consts  --      9.1179                 9.7693                13.7090
 IR Inten    --     15.3666                13.2980                 7.8130

 - Thermochemistry -
 -------------------
 Temperature   298.150 Kelvin.  Pressure   1.00000 Atm.
 Atom     1 has atomic number  6 and mass  12.00000

 Molecular mass:    72.00000 amu.
 Principal axes and moments of inertia in atomic units:
                           1         2         3
     Eigenvalues --   223.54584 247.96194 279.45871
           X            1.00000  -0.00000  -0.00000
           Y            0.00000   1.00000  -0.00000
           Z            0.00000   0.00000   1.00000
 This molecule is an asymmetric top.
 Rotational symmetry number  1.
 Rotational temperatures (Kelvin)      0.38745     0.34930     0.30993
 Rotational constants (GHZ):           8.07325     7.27830     6.45799
 Zero-point vibrational energy      54884.2 (Joules/Mol)
                                   13.11764 (Kcal/Mol)
 Warning -- explicit consideration of   4 degrees of freedom as
           vibrations may cause significant error
 Vibrational temperatures:     93.81   182.70   449.33   842.76   933.55
          (Kelvin)           1164.70  1316.52  1344.52  1545.61  1633.90
                             1691.25  2003.46

 Zero-point correction=                           0.020904 (Hartree/Particle)
 Thermal correction to Energy=                    0.026182
 Thermal correction to Enthalpy=                  0.027126
 Thermal correction to Gibbs Free Energy=        -0.008650
 Sum of electronic and zero-point Energies=           -228.118447
 Sum of electronic and thermal Energies=              -228.113170
 Sum of electronic and thermal Enthalpies=            -228.112225
 Sum of electronic and thermal Free Energies=         -228.148002

                     E (Thermal)             CV                S
                      KCal/Mol        Cal/Mol-Kelvin    Cal/Mol-Kelvin
 Total                   16.429             15.955             75.297
 Electronic               0.000              0.000              2.183
 Translational            0.889              2.981             38.739
 Rotational               0.889              2.981             24.253
 Vibrational             14.652              9.993             10.123
 Vibration     1          0.597              1.971              4.293
 Vibration     2          0.611              1.926              2.991
 Vibration     3          0.701              1.650              1.350
 Vibration     4          0.943              1.062              0.475

 Normal termination of Gaussian 09 at Sun Jun 19 01:07:46 2016.
