 Gaussian 09, Revision E.01,
 Gaussian 09:  EM64L-G09RevE.01 30-Nov-2015

 -----------------------------------------
 #p b3lyp/6-311+G(3df) freq symmetry=Loose
 -----------------------------------------

 ---------
 b3lyp opt
 ---------
 Symbolic Z-matrix:
 Charge =  2 Multiplicity = 3

                         Standard orientation:
 ---------------------------------------------------------------------
 Center     Atomic      Atomic             Coordinates (Angstroms)
 Number     Number       Type             X           Y           Z
 ---------------------------------------------------------------------
      1          6           0        0.000000   -1.183530   -0.746054
      2          6           0        0.000000    0.000000   -1.320244
      3          6           0       -0.000000    1.183530   -0.746054
      4          6           0       -0.000000   -0.918445    0.633211
      5          6           0       -0.000000   -0.000000    1.545929
      6          6           0        0.000000    0.918445    0.633211
 ---------------------------------------------------------------------

 SCF Done:  E(UB3LYP) =  -227.316938180     A.U. after   17 cycles

 The electronic state is 3-B1.
 Alpha  occ. eigenvalues --  -10.85015 -10.85014 -10.81396 -10.81391 -10.77791
 Alpha  occ. eigenvalues --  -10.77270  -1.50640  -1.36564  -1.31987  -1.13445
 Alpha  occ. eigenvalues --   -1.12993  -1.03445  -0.97884  -0.96534  -0.83683
 Alpha  occ. eigenvalues --   -0.83399  -0.83078  -0.82640
 Alpha virt. eigenvalues --   -0.66097  -0.57828  -0.57042  -0.56890  -0.51381
 Alpha virt. eigenvalues --   -0.37847  -0.34568  -0.28590  -0.27864  -0.27437
 Alpha virt. eigenvalues --   -0.25895  -0.25115  -0.24943  -0.21589  -0.21431

  Beta  occ. eigenvalues --  -10.84280 -10.84279 -10.79343 -10.79338 -10.78757
  Beta  occ. eigenvalues --  -10.78137  -1.48799  -1.36010  -1.27675  -1.12821
  Beta  occ. eigenvalues --   -1.11256  -1.02512  -0.94309  -0.93096  -0.83057
  Beta  occ. eigenvalues --   -0.81897
  Beta virt. eigenvalues --   -0.71701  -0.66398  -0.62719  -0.60904  -0.52872
  Beta virt. eigenvalues --   -0.51047  -0.50627  -0.34456  -0.34168  -0.27035
  Beta virt. eigenvalues --   -0.26730  -0.26262  -0.25092  -0.24922  -0.24326

 Mulliken charges and spin densities:
               1          2
     1  C    0.458564   1.185763
     2  C    0.089704  -0.862230
     3  C    0.458564   1.185763
     4  C    0.218856   0.437439
     5  C    0.555455  -0.384173
     6  C    0.218856   0.437439
 Sum of Mulliken charges =   2.00000   2.00000

 Dipole moment (field-independent basis, Debye):
    X=              0.0000    Y=             -0.0000    Z=             -0.2055  Tot=              0.2055
 Quadrupole moment (field-independent basis, Debye-Ang):
   XX=            -27.0021   YY=            -14.9000   ZZ=            -13.7767
   XY=              0.0000   XZ=              0.0000   YZ=              0.0000

  Exact polarizability:  23.265  -0.000  50.879  -0.000   0.000  54.228
 Approx polarizability:  34.548  -0.000 135.203  -0.000   0.000 127.320

                      1                      2                      3
                     B1                     A1                     B1
 Frequencies --    407.2191               423.6816               468.3964
 Red. masses --     12.0000                12.0000                12.0000
 Frc consts  --      1.1724                 1.2691                 1.5512
 IR Inten    --      1.5118                 9.1970                 0.0007

                      4                      5                      6
                     A2                     B2                     A1
 Frequencies --    512.3845               523.1640               574.3106
 Red. masses --     12.0000                12.0000                12.0000
 Frc consts  --      1.8562                 1.9351                 2.3320
 IR Inten    --      0.0000                24.5488                15.0171

                      7                      8                      9
                     B2                     A1                     B2
 Frequencies --    916.2705              1083.8604              1252.9911
 Red. masses --     12.0000                12.0000                12.0000
 Frc consts  --      5.9358                 8.3057                11.1001
 IR Inten    --     47.9061                 6.1496                18.5206

                     10                     11                     12
                     A1                     B2                     A1
 Frequencies --   1319.8257              1605.2985              1760.6673
 Red. masses --     12.0000                12.0000                12.0000
 Frc consts  --     12.3159                18.2198                21.9172
 IR Inten    --      2.8650                38.2414                84.3341

 - Thermochemistry -
 -------------------
 Temperature   298.150 Kelvin.  Pressure   1.00000 Atm.
 Atom     1 has atomic number  6 and mass  12.00000

 Molecular mass:    72.00000 amu.
 Principal axes and moments of inertia in atomic units:
                           1         2         3
     Eigenvalues --   192.34765 259.17571 451.52336
           X            0.00000  -0.00000   1.00000
           Y            0.00000   1.00000   0.00000
           Z            1.00000  -0.00000  -0.00000
 This molecule is an asymmetric top.
 Rotational symmetry number  2.
 Rotational temperatures (Kelvin)      0.45030     0.33419     0.19183
 Rotational constants (GHZ):           9.38270     6.96339     3.99701
 Zero-point vibrational energy      64885.9 (Joules/Mol)
                                   15.50809 (Kcal/Mol)
 Warning -- explicit consideration of   6 degrees of freedom as
           vibrations may cause significant error
 Vibrational temperatures:    585.90   609.58   673.92   737.21   752.72
          (Kelvin)            826.30  1318.31  1559.43  1802.77  1898.93
                             2309.66  2533.20

 Zero-point correction=                           0.024714 (Hartree/Particle)
 Thermal correction to Energy=                    0.029088
 Thermal correction to Enthalpy=                  0.030032
 Thermal correction to Gibbs Free Energy=        -0.002620
 Sum of electronic and zero-point Energies=           -227.292224
 Sum of electronic and thermal Energies=              -227.287851
 Sum of electronic and thermal Enthalpies=            -227.286906
 Sum of electronic and thermal Free Energies=         -227.319558

                     E (Thermal)             CV                S
                      KCal/Mol        Cal/Mol-Kelvin    Cal/Mol-Kelvin
 Total                   18.253             14.828             68.720
 Electronic               0.000              0.000              2.183
 Translational            0.889              2.981             38.739
 Rotational               0.889              2.981             23.247
 Vibrational             16.475              8.866              4.552
 Vibration     1          0.772              1.455              0.936
 Vibration     2          0.786              1.419              0.880
 Vibration     3          0.826              1.320              0.742
 Vibration     4          0.867              1.223              0.628
 Vibration     5          0.878              1.199              0.603
 Vibration     6          0.931              1.087              0.496

 Optimization completed.
    -- Stationary point found.
 Normal termination of Gaussian 09 at Sun Oct 23 12:23:53 2016.
