 Gaussian 09, Revision E.01,
 Gaussian 09:  EM64L-G09RevE.01 30-Nov-2015

 -----------------------------------------
 #p b3lyp/6-311+G(3df) freq symmetry=Loose
 -----------------------------------------

 ---------
 b3lyp opt
 ---------
 Symbolic Z-matrix:
 Charge =  2 Multiplicity = 1

                         Standard orientation:
 ---------------------------------------------------------------------
 Center     Atomic      Atomic             Coordinates (Angstroms)
 Number     Number       Type             X           Y           Z
 ---------------------------------------------------------------------
      1          6           0       -0.000000   -0.000000   -1.909139
      2          6           0        0.000000    0.000000    0.673680
      3          6           0        0.000000   -0.000000   -0.673680
      4          6           0       -0.000000    0.000000    1.909139
      5          6           0       -0.000000   -0.000000   -3.293953
      6          6           0       -0.000000    0.000000    3.293953
 ---------------------------------------------------------------------

 SCF Done:  E(RB3LYP) =  -227.378873405     A.U. after   11 cycles

 The electronic state is 1-SGG.
 Alpha  occ. eigenvalues --  -10.80106 -10.80105 -10.76408 -10.76330 -10.70691
 Alpha  occ. eigenvalues --  -10.70687  -1.33552  -1.29040  -1.22720  -1.17081
 Alpha  occ. eigenvalues --   -1.11099  -0.87220  -0.87220  -0.79640  -0.79640
 Alpha  occ. eigenvalues --   -0.77790  -0.77676
 Alpha virt. eigenvalues --   -0.65616  -0.65616  -0.56545  -0.56545  -0.41885
 Alpha virt. eigenvalues --   -0.41885  -0.32703  -0.29592  -0.28613  -0.28613
 Alpha virt. eigenvalues --   -0.27758  -0.24806  -0.24806  -0.23364  -0.20032

 Mulliken charges:
               1
     1  C    1.595407
     2  C   -0.587378
     3  C   -0.587378
     4  C    1.595407
     5  C   -0.008029
     6  C   -0.008029
 Sum of Mulliken charges =   2.00000

 Dipole moment (field-independent basis, Debye):
    X=             -0.0000    Y=              0.0000    Z=              0.0000  Tot=              0.0000
 Quadrupole moment (field-independent basis, Debye-Ang):
   XX=            -26.6590   YY=            -26.6590   ZZ=             24.6623
   XY=             -0.0000   XZ=             -0.0000   YZ=              0.0000

  Exact polarizability:  30.442   0.000  30.442   0.000   0.000 160.489
 Approx polarizability:  45.537  -0.000  45.537  -0.000   0.000 532.258

                      1                      2                      3
                     PIU                    PIU                    PIG
 Frequencies --     85.1562                85.1562               160.3988
 Red. masses --     12.0000                12.0000                12.0000
 Frc consts  --      0.0513                 0.0513                 0.1819
 IR Inten    --      0.5293                 0.5293                 0.0000

                      4                      5                      6
                     PIG                    PIU                    PIU
 Frequencies --    160.3988               329.4789               329.4789
 Red. masses --     12.0000                12.0000                12.0000
 Frc consts  --      0.1819                 0.7675                 0.7675
 IR Inten    --      0.0000                 2.1082                 2.1082

                      7                      8                      9
                     SGG                    PIG                    PIG
 Frequencies --    629.4533               694.7453               694.7453
 Red. masses --     12.0000                12.0000                12.0000
 Frc consts  --      2.8013                 3.4126                 3.4126
 IR Inten    --      0.0000                 0.0000                 0.0000

                     10                     11                     12
                     SGU                    SGG                    SGU
 Frequencies --   1078.2423              1399.6391              2125.4597
 Red. masses --     12.0000                12.0000                12.0000
 Frc consts  --      8.2199                13.8504                31.9402
 IR Inten    --   1354.6710                 0.0000              1880.2557

                     13
                     SGG
 Frequencies --   2233.5925
 Red. masses --     12.0000
 Frc consts  --     35.2727
 IR Inten    --      0.0000

 - Thermochemistry -
 -------------------
 Temperature   298.150 Kelvin.  Pressure   1.00000 Atm.
 Atom     1 has atomic number  6 and mass  12.00000

 Molecular mass:    72.00000 amu.
 Principal axes and moments of inertia in atomic units:
                           1         2         3
     Eigenvalues --     0.000001281.193641281.19364
           X           -0.00000   0.94651   0.32268
           Y            0.00000  -0.32268   0.94651
           Z            1.00000   0.00000   0.00000
 This molecule is a prolate symmetric top.
 Rotational symmetry number  2.
 Warning -- assumption of classical behavior for rotation
           may cause significant error
 Rotational temperature (Kelvin)      0.06760
 Rotational constant (GHZ):           1.408640
 Zero-point vibrational energy      59848.8 (Joules/Mol)
                                   14.30422 (Kcal/Mol)
 Warning -- explicit consideration of   6 degrees of freedom as
           vibrations may cause significant error
 Vibrational temperatures:    122.52   122.52   230.78   230.78   474.05
          (Kelvin)            474.05   905.64   999.58   999.58  1551.35
                             2013.77  3058.06  3213.64

 Zero-point correction=                           0.022795 (Hartree/Particle)
 Thermal correction to Energy=                    0.029112
 Thermal correction to Enthalpy=                  0.030056
 Thermal correction to Gibbs Free Energy=        -0.004292
 Sum of electronic and zero-point Energies=           -227.356078
 Sum of electronic and thermal Energies=              -227.349762
 Sum of electronic and thermal Enthalpies=            -227.348817
 Sum of electronic and thermal Free Energies=         -227.383165

                     E (Thermal)             CV                S
                      KCal/Mol        Cal/Mol-Kelvin    Cal/Mol-Kelvin
 Total                   18.268             18.968             72.291
 Electronic               0.000              0.000              0.000
 Translational            0.889              2.981             38.739
 Rotational               0.592              1.987             17.286
 Vibrational             16.787             14.000             16.266
 Vibration     1          0.601              1.959              3.768
 Vibration     2          0.601              1.959              3.768
 Vibration     3          0.622              1.891              2.545
 Vibration     4          0.622              1.891              2.545
 Vibration     5          0.712              1.617              1.263
 Vibration     6          0.712              1.617              1.263

 Optimization completed.
    -- Stationary point found.

 1\1\GINC-BELVIS12\Freq\RB3LYP\6-311+G(3df)\C6(2+)\ROOT\19-Jun-2016\0\\
 #p b3lyp/6-311+G(3df) freq symmetry=Loose\\b3lyp opt\\2,1\C,-1.8989363
 036,-0.1642064154,0.1090250337\C,0.6700798869,0.0579436914,-0.03847177
 89\C,-0.6700795535,-0.0579436914,0.0384717789\C,1.8989366369,0.1642064
 154,-0.1090250337\C,-3.2763507363,-0.2833153429,0.1881075399\C,3.27635
 10697,0.2833153429,-0.1881075399\\Version=EM64L-G09RevE.01\State=1-SGG
 \HF=-227.3788734\RMSD=3.595e-09\RMSF=8.458e-05\ZeroPoint=0.0227952\The
 rmal=0.0291118\Dipole=0.,0.,0.\DipoleDeriv=-2.9918331,-0.2964374,0.196

 Normal termination of Gaussian 09 at Sun Jun 19 13:00:54 2016.
