 Gaussian 09, Revision E.01,
 Gaussian 09:  EM64L-G09RevE.01 30-Nov-2015

 -----------------------------------------
 #p b3lyp/6-311+G(3df) freq symmetry=Loose
 -----------------------------------------

 ---------
 b3lyp opt
 ---------
 Symbolic Z-matrix:
 Charge =  2 Multiplicity = 1

                         Standard orientation:
 ---------------------------------------------------------------------
 Center     Atomic      Atomic             Coordinates (Angstroms)
 Number     Number       Type             X           Y           Z
 ---------------------------------------------------------------------
      1          6           0       -0.000000    0.000000   -2.554990
      2          6           0        0.000000   -0.000000    1.142253
      3          6           0        0.000000    0.000000    2.554990
      4          6           0        0.000000    0.814180   -0.000000
      5          6           0       -0.000000   -0.814180   -0.000000
      6          6           0       -0.000000   -0.000000   -1.142253
 ---------------------------------------------------------------------

 SCF Done:  E(RB3LYP) =  -227.257048083     A.U. after   10 cycles

 The electronic state is 1-AG.
 Alpha  occ. eigenvalues --  -10.83879 -10.83879 -10.82780 -10.82766 -10.76233
 Alpha  occ. eigenvalues --  -10.76229  -1.53009  -1.30921  -1.24108  -1.12137
 Alpha  occ. eigenvalues --   -1.09356  -0.96957  -0.95512  -0.83629  -0.80290
 Alpha  occ. eigenvalues --   -0.79890  -0.79597
 Alpha virt. eigenvalues --   -0.66241  -0.65840  -0.61385  -0.59630  -0.52049
 Alpha virt. eigenvalues --   -0.51773  -0.37171  -0.34058  -0.29390  -0.28507
 Alpha virt. eigenvalues --   -0.26869  -0.26262  -0.23978  -0.22236  -0.21785

 Mulliken charges:
               1
     1  C   -0.355315
     2  C   -0.075618
     3  C   -0.355315
     4  C    1.430933
     5  C    1.430933
     6  C   -0.075618
 Sum of Mulliken charges =   2.00000

 Dipole moment (field-independent basis, Debye):
    X=             -0.0000    Y=             -0.0000    Z=             -0.0000  Tot=              0.0000
 Quadrupole moment (field-independent basis, Debye-Ang):
   XX=            -27.0973   YY=            -24.3395   ZZ=              0.7673
   XY=             -0.0000   XZ=              0.0000   YZ=             -0.0000

  Exact polarizability:  29.169  -0.000  41.841  -0.000   0.000 107.352
 Approx polarizability:  46.742   0.000 104.650   0.000   0.000 302.299

                      1                      2                      3
                     B3U                    B2U                    B3G
 Frequencies --    132.4739               156.0022               254.9588
 Red. masses --     12.0000                12.0000                12.0000
 Frc consts  --      0.1241                 0.1721                 0.4596
 IR Inten    --      0.0429                 3.6862                 0.0000

                      4                      5                      6
                     B2G                    AG                     B3U
 Frequencies --    265.2948               605.6911               624.9121
 Red. masses --     12.0000                12.0000                12.0000
 Frc consts  --      0.4976                 2.5938                 2.7610
 IR Inten    --      0.0000                 0.0000                 5.4654

                      7                      8                      9
                     B2U                    B3G                    AG
 Frequencies --    696.7962               918.3335               929.8963
 Red. masses --     12.0000                12.0000                12.0000
 Frc consts  --      3.4328                 5.9626                 6.1136
 IR Inten    --     55.3964                 0.0000                 0.0000

                     10                     11                     12
                     B1U                    B1U                    AG
 Frequencies --    975.2767              1600.3046              1670.4772
 Red. masses --     12.0000                12.0000                12.0000
 Frc consts  --      6.7249                18.1066                19.7293
 IR Inten    --    553.0351              1641.3670                 0.0000

 - Thermochemistry -
 -------------------
 Temperature   298.150 Kelvin.  Pressure   1.00000 Atm.
 Atom     1 has atomic number  6 and mass  12.00000

 Molecular mass:    72.00000 amu.
 Principal axes and moments of inertia in atomic units:
                           1         2         3
     Eigenvalues --    56.81328 671.30712 728.12040
           X            0.00000   0.00000   1.00000
           Y            0.00000   1.00000  -0.00000
           Z            1.00000  -0.00000  -0.00000
 This molecule is an asymmetric top.
 Rotational symmetry number  4.
 Rotational temperatures (Kelvin)      1.52453     0.12902     0.11896
 Rotational constants (GHZ):          31.76619     2.68840     2.47863
 Zero-point vibrational energy      52817.6 (Joules/Mol)
                                   12.62372 (Kcal/Mol)
 Warning -- explicit consideration of   5 degrees of freedom as
           vibrations may cause significant error
 Vibrational temperatures:    190.60   224.45   366.83   381.70   871.45
          (Kelvin)            899.11  1002.53  1321.28  1337.91  1403.20
                             2302.48  2403.44

 Zero-point correction=                           0.020117 (Hartree/Particle)
 Thermal correction to Energy=                    0.025764
 Thermal correction to Enthalpy=                  0.026708
 Thermal correction to Gibbs Free Energy=        -0.007110
 Sum of electronic and zero-point Energies=           -227.236931
 Sum of electronic and thermal Energies=              -227.231284
 Sum of electronic and thermal Enthalpies=            -227.230340
 Sum of electronic and thermal Free Energies=         -227.264158

                     E (Thermal)             CV                S
                      KCal/Mol        Cal/Mol-Kelvin    Cal/Mol-Kelvin
 Total                   16.167             17.538             71.176
 Electronic               0.000              0.000              0.000
 Translational            0.889              2.981             38.739
 Rotational               0.889              2.981             22.078
 Vibrational             14.390             11.577             10.359
 Vibration     1          0.613              1.921              2.910
 Vibration     2          0.620              1.896              2.598
 Vibration     3          0.665              1.754              1.696
 Vibration     4          0.671              1.737              1.627
 Vibration     5          0.964              1.020              0.440

 Optimization completed.
    -- Stationary point found.

 1\1\GINC-BELVIS17\Freq\RB3LYP\6-311+G(3df)\C6(2+)\ROOT\23-Oct-2016\0\\
 #p b3lyp/6-311+G(3df) freq symmetry=Loose\\b3lyp opt\\2,1\C,2.20758517
 81,0.9917015587,0.81918658\C,-0.9869399049,-0.4433578123,-0.3662319658
 \C,-2.2075855118,-0.991701892,-0.819186913\C,0.3786997636,-0.699493195
 2,-0.1737382962\C,-0.3787000972,0.6994928619,0.1737379632\C,0.98693957
 13,0.443357479,0.3662316328\\Version=EM64L-G09RevE.01\State=1-AG\HF=-2
 27.2570481\RMSD=9.873e-09\RMSF=8.789e-06\ZeroPoint=0.0201172\Thermal=0
 .0257642\Dipole=0.,0.,0.\DipoleDeriv=1.9761351,0.8025976,0.6344214,0.8

 Normal termination of Gaussian 09 at Sun Oct 23 12:11:42 2016.
