 Gaussian 09, Revision E.01,
 Gaussian 09:  EM64L-G09RevE.01 30-Nov-2015

 -----------------------------------------
 #p b3lyp/6-311+G(3df) freq symmetry=Loose
 -----------------------------------------

 ---------
 b3lyp opt
 ---------
 Symbolic Z-matrix:
 Charge =  1 Multiplicity = 4

                         Standard orientation:
 ---------------------------------------------------------------------
 Center     Atomic      Atomic             Coordinates (Angstroms)
 Number     Number       Type             X           Y           Z
 ---------------------------------------------------------------------
      1          6           0        0.714828    0.899600   -0.018790
      2          6           0       -0.715796   -0.434874    0.786306
      3          6           0       -0.721294    0.895618   -0.017975
      4          6           0        0.719076   -0.462696   -0.768117
      5          6           0        0.720161   -0.430867    0.785558
      6          6           0       -0.716975   -0.466781   -0.766982
 ---------------------------------------------------------------------

 SCF Done:  E(UB3LYP) =  -227.780494665     A.U. after   15 cycles

 The electronic state is 4-A.
 Alpha  occ. eigenvalues --  -10.56627 -10.56602 -10.56595 -10.56587 -10.56557
 Alpha  occ. eigenvalues --  -10.56550  -1.35776  -1.04499  -0.99144  -0.99114
 Alpha  occ. eigenvalues --   -0.78970  -0.72262  -0.68020  -0.67989  -0.67289
 Alpha  occ. eigenvalues --   -0.67267  -0.55209  -0.54996  -0.54974
 Alpha virt. eigenvalues --   -0.40643  -0.40621  -0.26378  -0.18375  -0.18339
 Alpha virt. eigenvalues --   -0.15410  -0.12722  -0.08333  -0.08220  -0.07896
 Alpha virt. eigenvalues --   -0.07883  -0.07349  -0.07346  -0.06745  -0.06741

  Beta  occ. eigenvalues --  -10.55595 -10.55568 -10.55561 -10.55559 -10.55533
  Beta  occ. eigenvalues --  -10.55527  -1.33578  -1.02424  -0.96939  -0.96909
  Beta  occ. eigenvalues --   -0.76751  -0.66473  -0.66451  -0.63999  -0.63388
  Beta  occ. eigenvalues --   -0.63357
  Beta virt. eigenvalues --   -0.42349  -0.40611  -0.40592  -0.35383  -0.35363
  Beta virt. eigenvalues --   -0.25166  -0.16929  -0.16896  -0.14048  -0.12198
  Beta virt. eigenvalues --   -0.08018  -0.07221  -0.07057  -0.07046  -0.06976

 Mulliken charges and spin densities:
               1          2
     1  C    0.168660   0.499952
     2  C    0.168728   0.499156
     3  C    0.163464   0.500869
     4  C    0.165645   0.500209
     5  C    0.165243   0.500328
     6  C    0.168259   0.499486
 Sum of Mulliken charges =   1.00000   3.00000

 Dipole moment (field-independent basis, Debye):
    X=              0.0000    Y=              0.0015    Z=             -0.0000  Tot=              0.0015
 Quadrupole moment (field-independent basis, Debye-Ang):
   XX=            -27.8623   YY=            -27.1468   ZZ=            -27.1589
   XY=             -0.0049   XZ=              0.0013   YZ=             -0.0002

  Exact polarizability:  53.450   0.009  46.912  -0.003   0.000  46.896
 Approx polarizability: 143.835   0.118 113.875  -0.029  -0.001 113.766

                      1                      2                      3
                      A                      A                      A
 Frequencies --    304.6641               403.8243               407.2061
 Red. masses --     12.0000                12.0000                12.0000
 Frc consts  --      0.6563                 1.1530                 1.1724
 IR Inten    --      0.0000                 0.0001                 0.0001

                      4                      5                      6
                      A                      A                      A
 Frequencies --    624.5841               626.4591               763.1953
 Red. masses --     12.0000                12.0000                12.0000
 Frc consts  --      2.7581                 2.7747                 4.1182
 IR Inten    --      0.0002                 0.0002                 0.3413

                      7                      8                      9
                      A                      A                      A
 Frequencies --    822.3934               823.7749              1004.1498
 Red. masses --     12.0000                12.0000                12.0000
 Frc consts  --      4.7818                 4.7979                 7.1290
 IR Inten    --     14.5327                14.5471                 1.5947

                     10                     11                     12
                      A                      A                      A
 Frequencies --   1005.3851              1035.2357              1306.1096
 Red. masses --     12.0000                12.0000                12.0000
 Frc consts  --      7.1465                 7.5772                12.0612
 IR Inten    --      1.6068                 0.0000                 0.0000

 - Thermochemistry -
 -------------------
 Temperature   298.150 Kelvin.  Pressure   1.00000 Atm.
 Atom     1 has atomic number  6 and mass  12.00000

 Molecular mass:    72.00000 amu.
 Principal axes and moments of inertia in atomic units:
                           1         2         3
     Eigenvalues --   207.08455 236.01948 236.18356
           X            1.00000   0.00000   0.00000
           Y           -0.00000   1.00000   0.00000
           Z            0.00000  -0.00000   1.00000
 This molecule is an asymmetric top.
 Rotational symmetry number  1.
 Rotational temperatures (Kelvin)      0.41825     0.36698     0.36672
 Rotational constants (GHZ):           8.71500     7.64658     7.64127
 Zero-point vibrational energy      54591.5 (Joules/Mol)
                                   13.04767 (Kcal/Mol)
 Warning -- explicit consideration of   3 degrees of freedom as
           vibrations may cause significant error
 Vibrational temperatures:    438.34   581.01   585.88   898.64   901.33
          (Kelvin)           1098.07  1183.24  1185.23  1444.75  1446.52
                             1489.47  1879.20

 Zero-point correction=                           0.020793 (Hartree/Particle)
 Thermal correction to Energy=                    0.025290
 Thermal correction to Enthalpy=                  0.026234
 Thermal correction to Gibbs Free Energy=        -0.007242
 Sum of electronic and zero-point Energies=           -227.759702
 Sum of electronic and thermal Energies=              -227.755205
 Sum of electronic and thermal Enthalpies=            -227.754261
 Sum of electronic and thermal Free Energies=         -227.787736

                     E (Thermal)             CV                S
                      KCal/Mol        Cal/Mol-Kelvin    Cal/Mol-Kelvin
 Total                   15.870             15.669             70.456
 Electronic               0.000              0.000              2.755
 Translational            0.889              2.981             38.739
 Rotational               0.889              2.981             23.961
 Vibrational             14.092              9.707              5.001
 Vibration     1          0.696              1.665              1.391
 Vibration     2          0.769              1.462              0.949
 Vibration     3          0.772              1.455              0.937

 Normal termination of Gaussian 09 at Tue Nov  1 19:56:27 2016.
