 Gaussian 09, Revision E.01,
 Gaussian 09:  EM64L-G09RevE.01 30-Nov-2015

 ---------------------------------------------
 #p b3lyp/6-311++G(3df,2p) freq symmetry=Loose
 ---------------------------------------------

 ---------
 b3lyp opt
 ---------
 Symbolic Z-matrix:
 Charge =  0 Multiplicity = 1

                         Standard orientation:
 ---------------------------------------------------------------------
 Center     Atomic      Atomic             Coordinates (Angstroms)
 Number     Number       Type             X           Y           Z
 ---------------------------------------------------------------------
      1          6           0       -1.769145    0.000000    0.000000
      2          6           0        0.658554   -0.808982   -0.000000
      3          6           0       -0.658554    0.808982   -0.000000
      4          6           0        0.658554    0.808982    0.000000
      5          6           0       -0.658554   -0.808982   -0.000000
      6          6           0        1.769145   -0.000000    0.000000
 ---------------------------------------------------------------------

 SCF Done:  E(RB3LYP) =  -228.257258685     A.U. after   10 cycles

 The electronic state is 1-AG.
 Alpha  occ. eigenvalues --  -10.30140 -10.30131 -10.30048 -10.30037 -10.26171
 Alpha  occ. eigenvalues --  -10.26170  -1.04895  -0.90725  -0.75186  -0.72792
 Alpha  occ. eigenvalues --   -0.53733  -0.50210  -0.48893  -0.48080  -0.35902
 Alpha  occ. eigenvalues --   -0.34511  -0.29839  -0.27004
 Alpha virt. eigenvalues --   -0.16361  -0.09079  -0.08354  -0.01002  -0.00058
 Alpha virt. eigenvalues --    0.01099   0.04065   0.04174   0.04551   0.05963
 Alpha virt. eigenvalues --    0.06045   0.06364   0.07415   0.08276   0.10928

 Mulliken charges:
               1
     1  C   -0.441554
     2  C    0.220777
     3  C    0.220777
     4  C    0.220777
     5  C    0.220777
     6  C   -0.441554
 Sum of Mulliken charges =   0.00000

 Dipole moment (field-independent basis, Debye):
    X=              0.0000    Y=             -0.0000    Z=             -0.0000  Tot=              0.0000
 Quadrupole moment (field-independent basis, Debye-Ang):
   XX=            -45.1077   YY=            -29.6388   ZZ=            -34.1429
   XY=              0.0000   XZ=              0.0000   YZ=             -0.0000

  Exact polarizability:  99.101   0.000  51.386  -0.000  -0.000  37.869
 Approx polarizability: 265.915   0.000 113.649   0.000   0.000  56.663

                      1                      2                      3
                     B1U                    AU                     B2G
 Frequencies --    221.8413               422.5803               484.8019
 Red. masses --     12.0000                12.0000                12.0000
 Frc consts  --      0.3479                 1.2626                 1.6617
 IR Inten    --      8.7460                 0.0000                 0.0000

                      4                      5                      6
                     B1G                    B2U                    B3U
 Frequencies --    551.0964               690.1394               725.8189
 Red. masses --     12.0000                12.0000                12.0000
 Frc consts  --      2.1473                 3.3675                 3.7247
 IR Inten    --      0.0000                12.0020                31.1545

                      7                      8                      9
                     AG                     B1G                    AG
 Frequencies --    881.0620              1090.0270              1147.7717
 Red. masses --     12.0000                12.0000                12.0000
 Frc consts  --      5.4884                 8.4005                 9.3141
 IR Inten    --      0.0000                 0.0000                 0.0000

                     10                     11                     12
                     B3U                    B2U                    AG
 Frequencies --   1228.6407              1363.1325              1840.8703
 Red. masses --     12.0000                12.0000                12.0000
 Frc consts  --     10.6729                13.1373                23.9595
 IR Inten    --    440.0055                83.8838                 0.0000

 - Thermochemistry -
 -------------------
 Temperature   298.150 Kelvin.  Pressure   1.00000 Atm.
 Atom     1 has atomic number  6 and mass  12.00000

 Molecular mass:    72.00000 amu.
 Principal axes and moments of inertia in atomic units:
                           1         2         3
     Eigenvalues --   112.18030 342.58737 454.76766
           X            1.00000   0.00000   0.00000
           Y           -0.00000   1.00000   0.00000
           Z           -0.00000  -0.00000   1.00000
 This molecule is an asymmetric top.
 Rotational symmetry number  4.
 Rotational temperatures (Kelvin)      0.77209     0.25282     0.19046
 Rotational constants (GHZ):          16.08786     5.26797     3.96849
 Zero-point vibrational energy      63687.9 (Joules/Mol)
                                   15.22177 (Kcal/Mol)
 Warning -- explicit consideration of   4 degrees of freedom as
           vibrations may cause significant error
 Vibrational temperatures:    319.18   608.00   697.52   792.90   992.96
          (Kelvin)           1044.29  1267.65  1568.30  1651.39  1767.74
                             1961.24  2648.60

 Zero-point correction=                           0.024257 (Hartree/Particle)
 Thermal correction to Energy=                    0.028679
 Thermal correction to Enthalpy=                  0.029623
 Thermal correction to Gibbs Free Energy=        -0.001425
 Sum of electronic and zero-point Energies=           -228.233001
 Sum of electronic and thermal Energies=              -228.228580
 Sum of electronic and thermal Enthalpies=            -228.227636
 Sum of electronic and thermal Free Energies=         -228.258684

                     E (Thermal)             CV                S
                      KCal/Mol        Cal/Mol-Kelvin    Cal/Mol-Kelvin
 Total                   17.996             14.626             65.345
 Electronic               0.000              0.000              0.000
 Translational            0.889              2.981             38.739
 Rotational               0.889              2.981             21.618
 Vibrational             16.219              8.664              4.988
 Vibration     1          0.648              1.808              1.944
 Vibration     2          0.785              1.421              0.883
 Vibration     3          0.841              1.284              0.697
 Vibration     4          0.906              1.137              0.542

 Optimization completed.
    -- Stationary point found.
 Normal termination of Gaussian 09 at Sun Jun 19 00:59:42 2016.
