 Gaussian 09, Revision C.01,
 Gaussian 09:  AM64L-G09RevC.01 23-Sep-2011

 ---------------------------------------------
 #p b3lyp/6-311++G(3df,2p) freq symmetry=Loose
 ---------------------------------------------

 (Enter /home/nestor/.gaussian09/l101.exe)
 ---------
 b3lyp opt
 ---------
 Charge =  0 Multiplicity = 3

                         Standard orientation:
 ---------------------------------------------------------------------
 Center     Atomic      Atomic             Coordinates (Angstroms)
 Number     Number       Type             X           Y           Z
 ---------------------------------------------------------------------
      1          6           0        0.000000    0.000000   -2.267125
      2          6           0        0.000000    0.000000    1.497601
      3          6           0        0.000000   -0.753881   -1.047061
      4          6           0        0.000000    0.000000    0.146482
      5          6           0        0.000000    0.753881   -1.047061
      6          6           0        0.000000    0.000000    2.717163
 ---------------------------------------------------------------------

 SCF Done:  E(UB3LYP) =  -228.231522439     A.U. after   26 cycles

 The electronic state is 3-B1.
 Alpha  occ. eigenvalues --  -10.30282 -10.29582 -10.29435 -10.29409 -10.25188
 Alpha  occ. eigenvalues --  -10.24646  -1.03709  -0.85277  -0.77472  -0.65948
 Alpha  occ. eigenvalues --   -0.57922  -0.48705  -0.45538  -0.44763  -0.38369
 Alpha  occ. eigenvalues --   -0.36051  -0.35461  -0.28395  -0.25972
 Alpha virt. eigenvalues --   -0.09943  -0.08454  -0.04656  -0.00118   0.00666
 Alpha virt. eigenvalues --    0.03786   0.03950   0.04489   0.05351   0.06514
 Alpha virt. eigenvalues --    0.07196   0.07469   0.08467   0.08474   0.10326

  Beta  occ. eigenvalues --  -10.29559 -10.29523 -10.29406 -10.26807 -10.25353
  Beta  occ. eigenvalues --  -10.24116  -1.03064  -0.83656  -0.74576  -0.64464
  Beta  occ. eigenvalues --   -0.57868  -0.46269  -0.44385  -0.36011  -0.35298
  Beta  occ. eigenvalues --   -0.33788  -0.27630
  Beta virt. eigenvalues --   -0.23296  -0.15037  -0.10240  -0.06876  -0.00874
  Beta virt. eigenvalues --    0.00931   0.01197   0.04112   0.04500   0.04504
  Beta virt. eigenvalues --    0.05565   0.07542   0.07603   0.07667   0.08628

 Mulliken atomic charges:
              1
     1  C   -0.883370
     2  C   -0.099673
     3  C    0.509016
     4  C   -0.346040
     5  C    0.509016
     6  C    0.311051
 Sum of Mulliken atomic charges =   0.00000

 Dipole moment (field-independent basis, Debye):
    X=              0.0000    Y=              0.0000    Z=              3.6714  Tot=              3.6714
 Quadrupole moment (field-independent basis, Debye-Ang):
   XX=            -33.0566   YY=            -35.1502   ZZ=            -39.1318
   XY=              0.0000   XZ=              0.0000   YZ=              0.0000

  Exact polarizability:  39.400   0.000  53.201   0.000   0.000 122.690
 Approx polarizability:  57.807   0.000 100.440   0.000   0.000 227.224

                     1                      2                      3
                    B1                     B2                     B1
 Frequencies --   147.6392               153.8089               383.9290
 Red. masses --    12.0000                12.0000                12.0000
 Frc consts  --     0.1541                 0.1673                 1.0422
 IR Inten    --     4.1947                 2.7682                 2.0089

                     4                      5                      6
                    B2                     B1                     B2
 Frequencies --   402.9131               500.9414               623.8417
 Red. masses --    12.0000                12.0000                12.0000
 Frc consts  --     1.1478                 1.7742                 2.7516
 IR Inten    --    14.1821                 9.1291                37.4548

                     7                      8                      9
                    A1                     B2                     A1
 Frequencies --   677.5314               746.1682              1017.9234
 Red. masses --    12.0000                12.0000                12.0000
 Frc consts  --     3.2456                 3.9365                 7.3259
 IR Inten    --     0.5978                 0.1749                 3.7546

                    10                     11                     12
                    A1                     A1                     A1
 Frequencies --  1302.5416              1550.1227              2057.5325
 Red. masses --    12.0000                12.0000                12.0000
 Frc consts  --    11.9954                16.9888                29.9312
 IR Inten    --    19.1844                17.8645                 1.8719

 - Thermochemistry -
 -------------------
 Temperature   298.150 Kelvin.  Pressure   1.00000 Atm.
 Atom     1 has atomic number  6 and mass  12.00000

 Molecular mass:    72.00000 amu.
 Principal axes and moments of inertia in atomic units:
                           1         2         3
     Eigenvalues --    48.70967 727.63040 776.34006
           X            0.00000   0.00000   1.00000
           Y            0.00000   1.00000   0.00000
           Z            1.00000   0.00000   0.00000
 This molecule is an asymmetric top.
 Rotational symmetry number  2.
 Rotational temperatures (Kelvin)      1.77816     0.11904     0.11157
 Rotational constants (GHZ):          37.05099     2.48030     2.32468
 Zero-point vibrational energy      57210.8 (Joules/Mol)
                                   13.67370 (Kcal/Mol)
 Warning -- explicit consideration of   5 degrees of freedom as
           vibrations may cause significant error
 Vibrational temperatures:    212.42   221.30   552.39   579.70   720.74
          (Kelvin)            897.57   974.82  1073.57  1464.56  1874.06
                             2230.28  2960.33

 Zero-point correction=                           0.021790 (Hartree/Particle)
 Thermal correction to Energy=                    0.027177
 Thermal correction to Enthalpy=                  0.028121
 Thermal correction to Gibbs Free Energy=        -0.006778
 Sum of electronic and zero-point Energies=           -228.209732
 Sum of electronic and thermal Energies=              -228.204345
 Sum of electronic and thermal Enthalpies=            -228.203401
 Sum of electronic and thermal Free Energies=         -228.238300

                     E (Thermal)             CV                S
                      KCal/Mol        Cal/Mol-Kelvin    Cal/Mol-Kelvin
 Total                   17.054             17.157             73.451
 Electronic               0.000              0.000              2.183
 Translational            0.889              2.981             38.739
 Rotational               0.889              2.981             23.446
 Vibrational             15.276             11.195              9.083
 Vibration     1          0.617              1.905              2.702
 Vibration     2          0.619              1.898              2.625
 Vibration     3          0.753              1.504              1.024
 Vibration     4          0.768              1.464              0.952
 Vibration     5          0.856              1.248              0.656

 Optimization completed.
    -- Stationary point found.
 Normal termination of Gaussian 09 at Wed Jul  6 05:19:24 2016.
