 Gaussian 09, Revision E.01,
 Gaussian 09:  EM64L-G09RevE.01 30-Nov-2015

 ---------------------------------------------
 #p b3lyp/6-311++G(3df,2p) freq symmetry=Loose
 ---------------------------------------------

 ---------
 b3lyp opt
 ---------
 Symbolic Z-matrix:
 Charge =  0 Multiplicity = 3

                         Standard orientation:
 ---------------------------------------------------------------------
 Center     Atomic      Atomic             Coordinates (Angstroms)
 Number     Number       Type             X           Y           Z
 ---------------------------------------------------------------------
      1          6           0       -0.580655    0.006991    0.842730
      2          6           0       -0.298486   -0.007705   -0.821783
      3          6           0       -1.630198   -0.000849   -0.206926
      4          6           0        0.453916    0.892409    0.163121
      5          6           0        1.601981   -0.000656   -0.154713
      6          6           0        0.453443   -0.890190    0.177570
 ---------------------------------------------------------------------

 SCF Done:  E(UB3LYP) =  -228.109459159     A.U. after   22 cycles

 The electronic state is 3-A.
 Alpha  occ. eigenvalues --  -10.30743 -10.30740 -10.30566 -10.30015 -10.28699
 Alpha  occ. eigenvalues --  -10.28693  -1.10110  -0.85994  -0.66128  -0.66110
 Alpha  occ. eigenvalues --   -0.60584  -0.47256  -0.47024  -0.40657  -0.39172
 Alpha  occ. eigenvalues --   -0.35982  -0.31418  -0.30626  -0.26725
 Alpha virt. eigenvalues --   -0.14239  -0.10922  -0.08290   0.02053   0.02107
 Alpha virt. eigenvalues --    0.03186   0.03347   0.05299   0.06479   0.06809
 Alpha virt. eigenvalues --    0.07388   0.07707   0.08318   0.09488   0.11726

  Beta  occ. eigenvalues --  -10.30582 -10.30386 -10.30351 -10.28446 -10.28440
  Beta  occ. eigenvalues --  -10.27334  -1.09282  -0.83823  -0.64933  -0.64801
  Beta  occ. eigenvalues --   -0.57392  -0.45459  -0.45209  -0.38382  -0.35463
  Beta  occ. eigenvalues --   -0.33581  -0.29600
  Beta virt. eigenvalues --   -0.19664  -0.13291  -0.12766  -0.08082  -0.07326
  Beta virt. eigenvalues --    0.02233   0.02581   0.03658   0.03839   0.05671
  Beta virt. eigenvalues --    0.06628   0.07031   0.07786   0.07885   0.08471

 Mulliken charges and spin densities:
               1          2
     1  C    0.213785   0.027436
     2  C    0.254414  -0.102676
     3  C   -0.347394   1.687784
     4  C    0.059655   0.112480
     5  C   -0.238200   0.164385
     6  C    0.057741   0.110591
 Sum of Mulliken charges =  -0.00000   2.00000

 Dipole moment (field-independent basis, Debye):
    X=             -0.8440    Y=              0.0059    Z=              0.3574  Tot=              0.9166
 Quadrupole moment (field-independent basis, Debye-Ang):
   XX=            -36.8439   YY=            -35.3186   ZZ=            -34.1231
   XY=              0.0143   XZ=              1.3690   YZ=              0.0141

  Exact polarizability:  89.501  -0.012  52.769  -1.121  -0.023  49.952
 Approx polarizability: 191.773  -0.004 130.232  -2.205  -0.108 113.759

                      1                      2                      3
                      A                      A                      A
 Frequencies --    135.7651               221.0062               616.5247
 Red. masses --     12.0000                12.0000                12.0000
 Frc consts  --      0.1303                 0.3453                 2.6874
 IR Inten    --     15.0990                 0.6418                 1.1716

                      4                      5                      6
                      A                      A                      A
 Frequencies --    637.2487               704.9439               718.4199
 Red. masses --     12.0000                12.0000                12.0000
 Frc consts  --      2.8711                 3.5135                 3.6491
 IR Inten    --     46.1515                22.6439                18.7797

                      7                      8                      9
                      A                      A                      A
 Frequencies --    767.6634               781.1506               838.7959
 Red. masses --     12.0000                12.0000                12.0000
 Frc consts  --      4.1665                 4.3142                 4.9744
 IR Inten    --     41.3653                34.1710                12.3440

                     10                     11                     12
                      A                      A                      A
 Frequencies --   1056.5466              1096.9274              1155.1091
 Red. masses --     12.0000                12.0000                12.0000
 Frc consts  --      7.8924                 8.5072                 9.4336
 IR Inten    --      1.6405                17.9111                 6.2888

 - Thermochemistry -
 -------------------
 Temperature   298.150 Kelvin.  Pressure   1.00000 Atm.
 Atom     1 has atomic number  6 and mass  12.00000

 Molecular mass:    72.00000 amu.
 Principal axes and moments of inertia in atomic units:
                           1         2         3
     Eigenvalues --   132.81603 324.49023 327.85530
           X            1.00000  -0.00000   0.00000
           Y           -0.00000   1.00000   0.00000
           Z           -0.00000  -0.00000   1.00000
 This molecule is an asymmetric top.
 Rotational symmetry number  1.
 Rotational temperatures (Kelvin)      0.65213     0.26692     0.26418
 Rotational constants (GHZ):          13.58828     5.56177     5.50469
 Zero-point vibrational energy      52217.6 (Joules/Mol)
                                   12.48031 (Kcal/Mol)
 Warning -- explicit consideration of   3 degrees of freedom as
           vibrations may cause significant error
 Vibrational temperatures:    195.34   317.98   887.04   916.86  1014.26
          (Kelvin)           1033.64  1104.49  1123.90  1206.84  1520.13
                             1578.23  1661.94

 Zero-point correction=                           0.019889 (Hartree/Particle)
 Thermal correction to Energy=                    0.024741
 Thermal correction to Enthalpy=                  0.025685
 Thermal correction to Gibbs Free Energy=        -0.008580
 Sum of electronic and zero-point Energies=           -228.089571
 Sum of electronic and thermal Energies=              -228.084718
 Sum of electronic and thermal Enthalpies=            -228.083774
 Sum of electronic and thermal Free Energies=         -228.118039

                     E (Thermal)             CV                S
                      KCal/Mol        Cal/Mol-Kelvin    Cal/Mol-Kelvin
 Total                   15.525             16.068             72.118
 Electronic               0.000              0.000              2.183
 Translational            0.889              2.981             38.739
 Rotational               0.889              2.981             24.161
 Vibrational             13.748             10.107              7.035
 Vibration     1          0.614              1.918              2.863
 Vibration     2          0.648              1.809              1.951
 Vibration     3          0.976              0.997              0.422

 Normal termination of Gaussian 09 at Sun Jun 19 01:23:56 2016.
