 Gaussian 09, Revision E.01,
 Gaussian 09:  EM64L-G09RevE.01 30-Nov-2015

 -----------------------------------------
 #p b3lyp/6-311+G(3df) freq symmetry=Loose
 -----------------------------------------

 ---------
 b3lyp opt
 ---------
 Symbolic Z-matrix:
 Charge =  1 Multiplicity = 4

                         Standard orientation:
 ---------------------------------------------------------------------
 Center     Atomic      Atomic             Coordinates (Angstroms)
 Number     Number       Type             X           Y           Z
 ---------------------------------------------------------------------
      1          6           0        0.368274    0.008872    0.861108
      2          6           0        0.368331   -0.008692   -0.860993
      3          6           0        0.739620    1.134995   -0.011130
      4          6           0       -1.108940   -0.007873   -0.696572
      5          6           0       -1.108978    0.006564    0.696521
      6          6           0        0.741694   -1.133866    0.011066
 ---------------------------------------------------------------------

 SCF Done:  E(UB3LYP) =  -227.773343901     A.U. after   19 cycles

 The electronic state is 4-A.
 Alpha  occ. eigenvalues --  -10.56872 -10.56868 -10.56378 -10.56373 -10.55333
 Alpha  occ. eigenvalues --  -10.55279  -1.32442  -1.06189  -0.98351  -0.96919
 Alpha  occ. eigenvalues --   -0.78464  -0.73735  -0.70890  -0.70574  -0.63241
 Alpha  occ. eigenvalues --   -0.61774  -0.54879  -0.54687  -0.54324
 Alpha virt. eigenvalues --   -0.38258  -0.36881  -0.34482  -0.31102  -0.14375
 Alpha virt. eigenvalues --   -0.12972  -0.11172  -0.10386  -0.10081  -0.08147
 Alpha virt. eigenvalues --   -0.07584  -0.07256  -0.07211  -0.06945  -0.06202

  Beta  occ. eigenvalues --  -10.56131 -10.56127 -10.55829 -10.55826 -10.53521
  Beta  occ. eigenvalues --  -10.53475  -1.30462  -1.02829  -0.96433  -0.94670
  Beta  occ. eigenvalues --   -0.75656  -0.70123  -0.69491  -0.65481  -0.58089
  Beta  occ. eigenvalues --   -0.56645
  Beta virt. eigenvalues --   -0.43904  -0.40593  -0.37552  -0.36207  -0.35233
  Beta virt. eigenvalues --   -0.32574  -0.27250  -0.13487  -0.12493  -0.10765
  Beta virt. eigenvalues --   -0.09285  -0.08861  -0.07685  -0.07247  -0.06939

 Mulliken charges and spin densities:
               1          2
     1  C    0.475698  -0.012755
     2  C    0.476158  -0.012909
     3  C   -0.166705   0.482685
     4  C    0.190817   1.029625
     5  C    0.190897   1.029621
     6  C   -0.166865   0.483732
 Sum of Mulliken charges =   1.00000   3.00000

 Dipole moment (field-independent basis, Debye):
    X=              0.1123    Y=             -0.0017    Z=             -0.0001  Tot=              0.1123
 Quadrupole moment (field-independent basis, Debye-Ang):
   XX=            -25.9544   YY=            -29.8681   ZZ=            -26.8472
   XY=              0.0009   XZ=             -0.0004   YZ=              0.0335

  Exact polarizability:  57.580  -0.014  66.846   0.001  -0.201  46.141
 Approx polarizability: 129.357  -0.038 159.909   0.003  -0.453 112.064

                      1                      2                      3
                      A                      A                      A
 Frequencies --    188.3161               279.2544               304.8108
 Red. masses --     12.0000                12.0000                12.0000
 Frc consts  --      0.2507                 0.5514                 0.6569
 IR Inten    --     37.4815                 0.0000                 1.3988

                      4                      5                      6
                      A                      A                      A
 Frequencies --    672.0772               748.7558               783.3970
 Red. masses --     12.0000                12.0000                12.0000
 Frc consts  --      3.1935                 3.9638                 4.3391
 IR Inten    --      0.0001                11.2891                 2.1741

                      7                      8                      9
                      A                      A                      A
 Frequencies --    830.2145               932.8612               954.3349
 Red. masses --     12.0000                12.0000                12.0000
 Frc consts  --      4.8732                 6.1527                 6.4392
 IR Inten    --      5.1801                 3.9131                56.6305

                     10                     11                     12
                      A                      A                      A
 Frequencies --   1058.2563              1108.9133              1353.7451
 Red. masses --     12.0000                12.0000                12.0000
 Frc consts  --      7.9180                 8.6941                12.9570
 IR Inten    --      0.0025                 0.9609                58.5634

 - Thermochemistry -
 -------------------
 Temperature   298.150 Kelvin.  Pressure   1.00000 Atm.
 Atom     1 has atomic number  6 and mass  12.00000

 Molecular mass:    72.00000 amu.
 Principal axes and moments of inertia in atomic units:
                           1         2         3
     Eigenvalues --   215.44416 269.17711 274.34988
           X            1.00000  -0.00000   0.00000
           Y            0.00000   1.00000   0.00000
           Z            0.00000  -0.00000   1.00000
 This molecule is an asymmetric top.
 Rotational symmetry number  1.
 Rotational temperatures (Kelvin)      0.40202     0.32177     0.31571
 Rotational constants (GHZ):           8.37684     6.70466     6.57825
 Zero-point vibrational energy      55117.6 (Joules/Mol)
                                   13.17341 (Kcal/Mol)
 Warning -- explicit consideration of   3 degrees of freedom as
           vibrations may cause significant error
 Vibrational temperatures:    270.94   401.78   438.55   966.97  1077.29
          (Kelvin)           1127.13  1194.49  1342.18  1373.07  1522.59
                             1595.48  1947.73

 Zero-point correction=                           0.020993 (Hartree/Particle)
 Thermal correction to Energy=                    0.025792
 Thermal correction to Enthalpy=                  0.026737
 Thermal correction to Gibbs Free Energy=        -0.007633
 Sum of electronic and zero-point Energies=           -227.752351
 Sum of electronic and thermal Energies=              -227.747552
 Sum of electronic and thermal Enthalpies=            -227.746607
 Sum of electronic and thermal Free Energies=         -227.780977

                     E (Thermal)             CV                S
                      KCal/Mol        Cal/Mol-Kelvin    Cal/Mol-Kelvin
 Total                   16.185             15.698             72.336
 Electronic               0.000              0.000              2.755
 Translational            0.889              2.981             38.739
 Rotational               0.889              2.981             24.279
 Vibrational             14.407              9.736              6.563
 Vibration     1          0.633              1.856              2.244
 Vibration     2          0.680              1.712              1.538
 Vibration     3          0.696              1.665              1.390

 Optimization completed.
    -- Stationary point found.
 Normal termination of Gaussian 09 at Tue Nov  1 20:06:24 2016.
