 Gaussian 09, Revision E.01,
 Gaussian 09:  EM64L-G09RevE.01 30-Nov-2015

 -----------------------------------------
 #p b3lyp/6-311+G(3df) freq symmetry=Loose
 -----------------------------------------

 ---------
 b3lyp opt
 ---------
 Symbolic Z-matrix:
 Charge =  2 Multiplicity = 3

                         Standard orientation:
 ---------------------------------------------------------------------
 Center     Atomic      Atomic             Coordinates (Angstroms)
 Number     Number       Type             X           Y           Z
 ---------------------------------------------------------------------
      1          6           0        2.290432   -0.235407   -0.022251
      2          6           0       -1.262203    0.593548   -0.032099
      3          6           0        0.910951   -0.011584    0.005192
      4          6           0       -0.025776    1.109468    0.028056
      5          6           0       -1.635553   -0.679792   -0.009064
      6          6           0       -0.277851   -0.776232    0.030166
 ---------------------------------------------------------------------

 SCF Done:  E(UB3LYP) =  -227.241117411     A.U. after   31 cycles

 The electronic state is 3-A.
 Alpha  occ. eigenvalues --  -10.85678 -10.83092 -10.82018 -10.82012 -10.81696
 Alpha  occ. eigenvalues --  -10.75931  -1.53925  -1.34898  -1.26082  -1.17433
 Alpha  occ. eigenvalues --   -1.04437  -1.03344  -0.98761  -0.94074  -0.82706
 Alpha  occ. eigenvalues --   -0.81429  -0.79420  -0.78509
 Alpha virt. eigenvalues --   -0.67266  -0.61905  -0.60271  -0.54795  -0.47416
 Alpha virt. eigenvalues --   -0.42867  -0.33669  -0.31309  -0.27390  -0.27024
 Alpha virt. eigenvalues --   -0.25881  -0.25236  -0.23919  -0.22275  -0.21417

  Beta  occ. eigenvalues --  -10.85105 -10.82148 -10.82085 -10.81060 -10.79750
  Beta  occ. eigenvalues --  -10.76076  -1.52354  -1.33729  -1.23834  -1.16640
  Beta  occ. eigenvalues --   -1.03228  -1.01699  -0.94790  -0.89068  -0.80518
  Beta  occ. eigenvalues --   -0.79474
  Beta virt. eigenvalues --   -0.66348  -0.66031  -0.64449  -0.60029  -0.58749
  Beta virt. eigenvalues --   -0.54309  -0.42423  -0.40281  -0.33247  -0.30249
  Beta virt. eigenvalues --   -0.27009  -0.25859  -0.24885  -0.24588  -0.23416

 Mulliken charges and spin densities:
               1          2
     1  C   -0.230699  -0.040813
     2  C    0.261051  -0.262881
     3  C    0.600354  -0.068934
     4  C    0.476926   1.142408
     5  C    0.201496   1.017928
     6  C    0.690873   0.212292
 Sum of Mulliken charges =   2.00000   2.00000

 Dipole moment (field-independent basis, Debye):
    X=             -0.7852    Y=              0.2913    Z=             -0.0026  Tot=              0.8375
 Quadrupole moment (field-independent basis, Debye-Ang):
   XX=             -7.7553   YY=            -18.8679   ZZ=            -27.6889
   XY=             -0.1101   XZ=              0.0567   YZ=             -0.0450

  Exact polarizability:  74.597   3.601  45.043   0.089  -0.110  26.667
 Approx polarizability: 175.592  17.174 111.082   1.109  -0.379  40.461

                      1                      2                      3
                      A                      A                      A
 Frequencies --     66.4850               213.7621               249.1468
 Red. masses --     12.0000                12.0000                12.0000
 Frc consts  --      0.0313                 0.3231                 0.4389
 IR Inten    --      0.6991                 5.8825                 3.1653

                      4                      5                      6
                      A                      A                      A
 Frequencies --    361.4165               416.3215               596.1100
 Red. masses --     12.0000                12.0000                12.0000
 Frc consts  --      0.9235                 1.2254                 2.5124
 IR Inten    --     16.0290                 0.6880                 3.6954

                      7                      8                      9
                      A                      A                      A
 Frequencies --    758.4730               843.9059              1192.0795
 Red. masses --     12.0000                12.0000                12.0000
 Frc consts  --      4.0674                 5.0352                10.0471
 IR Inten    --      6.6698                35.8472                 5.6603

                     10                     11                     12
                      A                      A                      A
 Frequencies --   1389.9065              1468.5140              1595.2865
 Red. masses --     12.0000                12.0000                12.0000
 Frc consts  --     13.6585                15.2471                17.9932
 IR Inten    --     97.1334               159.5149               394.9285

 - Thermochemistry -
 -------------------
 Temperature   298.150 Kelvin.  Pressure   1.00000 Atm.
 Atom     1 has atomic number  6 and mass  12.00000

 Molecular mass:    72.00000 amu.
 Principal axes and moments of inertia in atomic units:
                           1         2         3
     Eigenvalues --   115.99195 446.75298 562.45939
           X            1.00000  -0.00000  -0.00000
           Y            0.00000   1.00000   0.00000
           Z            0.00000  -0.00000   1.00000
 This molecule is an asymmetric top.
 Rotational symmetry number  1.
 Rotational temperatures (Kelvin)      0.74672     0.19387     0.15399
 Rotational constants (GHZ):          15.55919     4.03968     3.20866
 Zero-point vibrational energy      54737.6 (Joules/Mol)
                                   13.08259 (Kcal/Mol)
 Warning -- explicit consideration of   6 degrees of freedom as
           vibrations may cause significant error
 Vibrational temperatures:     95.66   307.56   358.47   520.00   598.99
          (Kelvin)            857.67  1091.27  1214.19  1715.13  1999.76
                             2112.86  2295.26

 Zero-point correction=                           0.020848 (Hartree/Particle)
 Thermal correction to Energy=                    0.026506
 Thermal correction to Enthalpy=                  0.027450
 Thermal correction to Gibbs Free Energy=        -0.009033
 Sum of electronic and zero-point Energies=           -227.220269
 Sum of electronic and thermal Energies=              -227.214612
 Sum of electronic and thermal Enthalpies=            -227.213668
 Sum of electronic and thermal Free Energies=         -227.250150

                     E (Thermal)             CV                S
                      KCal/Mol        Cal/Mol-Kelvin    Cal/Mol-Kelvin
 Total                   16.632             17.302             76.784
 Electronic               0.000              0.000              2.183
 Translational            0.889              2.981             38.739
 Rotational               0.889              2.981             24.881
 Vibrational             14.855             11.340             10.981
 Vibration     1          0.598              1.970              4.255
 Vibration     2          0.644              1.820              2.011
 Vibration     3          0.662              1.764              1.737
 Vibration     4          0.736              1.552              1.116
 Vibration     5          0.780              1.435              0.905
 Vibration     6          0.954              1.040              0.456

 Normal termination of Gaussian 09 at Sun Jun 19 13:36:57 2016.
