 Gaussian 09, Revision E.01,
 Gaussian 09:  EM64L-G09RevE.01 30-Nov-2015

 -----------------------------------------
 #p b3lyp/6-311+G(3df) freq symmetry=Loose
 -----------------------------------------

 ---------
 b3lyp opt
 ---------
 Symbolic Z-matrix:
 Charge =  1 Multiplicity = 4

                         Standard orientation:
 ---------------------------------------------------------------------
 Center     Atomic      Atomic             Coordinates (Angstroms)
 Number     Number       Type             X           Y           Z
 ---------------------------------------------------------------------
      1          6           0       -0.000003    2.178269    0.000000
      2          6           0        0.000048   -1.473657   -0.000000
      3          6           0       -0.000063    1.063820   -0.769725
      4          6           0       -0.000063   -0.136449   -0.000000
      5          6           0       -0.000063    1.063820    0.769725
      6          6           0        0.000144   -2.695795   -0.000000
 ---------------------------------------------------------------------

 SCF Done:  E(UB3LYP) =  -227.882435644     A.U. after   16 cycles

 The electronic state is 4-A'.
 Alpha  occ. eigenvalues --  -10.55884 -10.55861 -10.54022 -10.53529 -10.50438
 Alpha  occ. eigenvalues --  -10.44469  -1.29585  -1.06327  -0.99997  -0.88051
 Alpha  occ. eigenvalues --   -0.83780  -0.72774  -0.71339  -0.65647  -0.63667
 Alpha  occ. eigenvalues --   -0.59289  -0.56347  -0.55056  -0.48901
 Alpha virt. eigenvalues --   -0.34298  -0.31887  -0.26411  -0.20246  -0.14173
 Alpha virt. eigenvalues --   -0.11627  -0.10734  -0.10477  -0.09991  -0.08764
 Alpha virt. eigenvalues --   -0.07001  -0.06509  -0.06006  -0.04416  -0.04064

  Beta  occ. eigenvalues --  -10.55675 -10.55654 -10.52623 -10.51677 -10.47436
  Beta  occ. eigenvalues --  -10.44595  -1.28628  -1.04697  -0.96385  -0.85800
  Beta  occ. eigenvalues --   -0.82448  -0.70375  -0.70095  -0.59192  -0.55378
  Beta  occ. eigenvalues --   -0.53300
  Beta virt. eigenvalues --   -0.42142  -0.40434  -0.36565  -0.34190  -0.28866
  Beta virt. eigenvalues --   -0.20345  -0.18040  -0.13882  -0.10533  -0.09996
  Beta virt. eigenvalues --   -0.09495  -0.08165  -0.07336  -0.06824  -0.05664

 Mulliken charges and spin densities:
               1          2
     1  C   -0.691773   1.128788
     2  C   -0.081526  -0.127546
     3  C    0.990656   0.072545
     4  C   -0.752431   0.307786
     5  C    0.990656   0.072545
     6  C    0.544418   1.545881
 Sum of Mulliken charges =   1.00000   3.00000

 Dipole moment (field-independent basis, Debye):
    X=              0.0000    Y=              0.2419    Z=             -0.0000  Tot=              0.2419
 Quadrupole moment (field-independent basis, Debye-Ang):
   XX=            -29.6507   YY=            -10.1552   ZZ=            -29.2873
   XY=             -0.0009   XZ=              0.0000   YZ=              0.0000

  Exact polarizability:  29.626  -0.002 100.445  -0.000  -0.000  41.721
 Approx polarizability:  43.390  -0.005 200.269  -0.000   0.000  83.152

                      1                      2                      3
                     A'                     A"                     A'
 Frequencies --    169.0253               171.3771               418.5562
 Red. masses --     12.0000                12.0000                12.0000
 Frc consts  --      0.2020                 0.2077                 1.2386
 IR Inten    --      1.2872                 0.4525                 2.0378

                      4                      5                      6
                     A"                     A'                     A"
 Frequencies --    485.6628               540.6259               570.2465
 Red. masses --     12.0000                12.0000                12.0000
 Frc consts  --      1.6676                 2.0665                 2.2991
 IR Inten    --      0.8920                 3.5518                14.6609

                      7                      8                      9
                     A'                     A'                     A"
 Frequencies --    657.2338               936.8824               969.3755
 Red. masses --     12.0000                12.0000                12.0000
 Frc consts  --      3.0540                 6.2059                 6.6438
 IR Inten    --      7.9430                18.9714                18.1525

                     10                     11                     12
                     A'                     A'                     A'
 Frequencies --   1516.0559              1568.1727              2079.4643
 Red. masses --     12.0000                12.0000                12.0000
 Frc consts  --     16.2503                17.3868                30.5727
 IR Inten    --     95.6748                 1.0024               185.0709

 - Thermochemistry -
 -------------------
 Temperature   298.150 Kelvin.  Pressure   1.00000 Atm.
 Atom     1 has atomic number  6 and mass  12.00000

 Molecular mass:    72.00000 amu.
 Principal axes and moments of inertia in atomic units:
                           1         2         3
     Eigenvalues --    50.77855 705.60855 756.38710
           X           -0.00004  -0.00000   1.00000
           Y            1.00000  -0.00000   0.00004
           Z            0.00000   1.00000   0.00000
 This molecule is an asymmetric top.
 Rotational symmetry number  1.
 Rotational temperatures (Kelvin)      1.70572     0.12275     0.11451
 Rotational constants (GHZ):          35.54141     2.55771     2.38600
 Zero-point vibrational energy      60307.8 (Joules/Mol)
                                   14.41391 (Kcal/Mol)
 Warning -- explicit consideration of   6 degrees of freedom as
           vibrations may cause significant error
 Vibrational temperatures:    243.19   246.57   602.21   698.76   777.84
          (Kelvin)            820.46   945.61  1347.96  1394.71  2181.26
                             2256.25  2991.88

 Zero-point correction=                           0.022970 (Hartree/Particle)
 Thermal correction to Energy=                    0.028148
 Thermal correction to Enthalpy=                  0.029092
 Thermal correction to Gibbs Free Energy=        -0.006275
 Sum of electronic and zero-point Energies=           -227.859466
 Sum of electronic and thermal Energies=              -227.854287
 Sum of electronic and thermal Enthalpies=            -227.853343
 Sum of electronic and thermal Free Energies=         -227.888711

                     E (Thermal)             CV                S
                      KCal/Mol        Cal/Mol-Kelvin    Cal/Mol-Kelvin
 Total                   17.663             16.603             74.437
 Electronic               0.000              0.000              2.755
 Translational            0.889              2.981             38.739
 Rotational               0.889              2.981             24.809
 Vibrational             15.886             10.641              8.134
 Vibration     1          0.625              1.881              2.446
 Vibration     2          0.626              1.878              2.420
 Vibration     3          0.781              1.430              0.897
 Vibration     4          0.842              1.282              0.695
 Vibration     5          0.896              1.160              0.564
 Vibration     6          0.926              1.096              0.504

 Optimization completed.
    -- Stationary point found.
 Normal termination of Gaussian 09 at Tue Nov  1 19:53:18 2016.
