 Gaussian 09, Revision C.01,
 Gaussian 09:  AM64L-G09RevC.01 23-Sep-2011

 ---------------------------------------------
 #p b3lyp/6-311++G(3df,2p) freq symmetry=Loose
 ---------------------------------------------

 (Enter /home/nestor/.gaussian09/l101.exe)
 ---------
 b3lyp opt
 ---------
 Charge =  0 Multiplicity = 1

                         Standard orientation:
 ---------------------------------------------------------------------
 Center     Atomic      Atomic             Coordinates (Angstroms)
 Number     Number       Type             X           Y           Z
 ---------------------------------------------------------------------
      1          6           0        0.000000    0.000000   -0.874302
      2          6           0        0.000000    0.000000    0.433849
      3          6           0        0.000000    0.000000    3.000968
      4          6           0        0.000000    0.682269   -2.132891
      5          6           0        0.000000   -0.682269   -2.132891
      6          6           0        0.000000    0.000000    1.705268
 ---------------------------------------------------------------------

 SCF Done:  E(RB3LYP) =  -228.281717096     A.U. after   14 cycles

 The electronic state is 1-A1.
 Alpha  occ. eigenvalues --  -10.31736 -10.31266 -10.28865 -10.26358 -10.26288
 Alpha  occ. eigenvalues --  -10.25153  -0.97774  -0.88001  -0.79348  -0.69818
 Alpha  occ. eigenvalues --   -0.53189  -0.47341  -0.46419  -0.40658  -0.38365
 Alpha  occ. eigenvalues --   -0.34922  -0.30833  -0.28775
 Alpha virt. eigenvalues --   -0.21980  -0.15863  -0.06600  -0.04062   0.00065
 Alpha virt. eigenvalues --    0.02445   0.03440   0.03689   0.04426   0.04916
 Alpha virt. eigenvalues --    0.06644   0.07046   0.07887   0.08194   0.08462

 Mulliken atomic charges:
              1
     1  C    0.569427
     2  C   -0.644296
     3  C   -0.561789
     4  C   -0.258529
     5  C   -0.258529
     6  C    1.153716
 Sum of Mulliken atomic charges =   0.00000

 Dipole moment (field-independent basis, Debye):
    X=              0.0000    Y=              0.0000    Z=              0.1154  Tot=              0.1154
 Quadrupole moment (field-independent basis, Debye-Ang):
   XX=            -31.8089   YY=            -38.0573   ZZ=            -46.3830
   XY=              0.0000   XZ=              0.0000   YZ=              0.0000

  Exact polarizability:  40.866   0.000  50.247   0.000   0.000 172.351
 Approx polarizability:  62.873   0.000  79.495   0.000   0.000 536.030

                     1                      2                      3
                    B2                     B1                     B2
 Frequencies --   100.9901               121.7307               274.6493
 Red. masses --    12.0000                12.0000                12.0000
 Frc consts  --     0.0721                 0.1048                 0.5333
 IR Inten    --    12.3259                16.0213                 0.7566

                     4                      5                      6
                    B1                     B2                     B1
 Frequencies --   289.5634               531.3884               636.0753
 Red. masses --    12.0000                12.0000                12.0000
 Frc consts  --     0.5928                 1.9964                 2.8605
 IR Inten    --     0.1513                 0.1679                 1.3675

                     7                      8                      9
                    A1                     B2                     A1
 Frequencies --   636.6935               700.3997              1164.2145
 Red. masses --    12.0000                12.0000                12.0000
 Frc consts  --     2.8661                 3.4684                 9.5829
 IR Inten    --     1.5407                 7.3067                84.4057

                    10                     11                     12
                    A1                     A1                     A1
 Frequencies --  1384.4904              1725.1239              2119.5927
 Red. masses --    12.0000                12.0000                12.0000
 Frc consts  --    13.5522                21.0413                31.7641
 IR Inten    --     0.2627                18.7637               852.7184

 - Thermochemistry -
 -------------------
 Temperature   298.150 Kelvin.  Pressure   1.00000 Atm.
 Atom     1 has atomic number  6 and mass  12.00000

 Molecular mass:    72.00000 amu.
 Principal axes and moments of inertia in atomic units:
                           1         2         3
     Eigenvalues --    39.89516 941.25372 981.14889
           X            0.00000   0.00000   1.00000
           Y            0.00000   1.00000   0.00000
           Z            1.00000   0.00000   0.00000
 This molecule is an asymmetric top.
 Rotational symmetry number  2.
 Rotational temperatures (Kelvin)      2.17104     0.09202     0.08828
 Rotational constants (GHZ):          45.23709     1.91738     1.83942
 Zero-point vibrational energy      57928.6 (Joules/Mol)
                                   13.84528 (Kcal/Mol)
 Warning -- explicit consideration of   5 degrees of freedom as
           vibrations may cause significant error
 Vibrational temperatures:    145.30   175.14   395.16   416.62   764.55
          (Kelvin)            915.17   916.06  1007.72  1675.04  1991.97
                             2482.07  3049.62

 Zero-point correction=                           0.022064 (Hartree/Particle)
 Thermal correction to Energy=                    0.027835
 Thermal correction to Enthalpy=                  0.028779
 Thermal correction to Gibbs Free Energy=        -0.006271
 Sum of electronic and zero-point Energies=           -228.259653
 Sum of electronic and thermal Energies=              -228.253882
 Sum of electronic and thermal Enthalpies=            -228.252938
 Sum of electronic and thermal Free Energies=         -228.287989

                     E (Thermal)             CV                S
                      KCal/Mol        Cal/Mol-Kelvin    Cal/Mol-Kelvin
 Total                   17.467             17.557             73.771
 Electronic               0.000              0.000              0.000
 Translational            0.889              2.981             38.739
 Rotational               0.889              2.981             23.736
 Vibrational             15.689             11.595             11.296
 Vibration     1          0.604              1.948              3.435
 Vibration     2          0.609              1.931              3.073
 Vibration     3          0.677              1.720              1.567
 Vibration     4          0.686              1.693              1.477
 Vibration     5          0.886              1.181              0.584

 Optimization completed.
    -- Stationary point found.
 Normal termination of Gaussian 09 at Wed Jul  6 02:19:39 2016.
