 Gaussian 09, Revision E.01,
 Gaussian 09:  EM64L-G09RevE.01 30-Nov-2015

 -----------------------------------------
 #p b3lyp/6-311+G(3df) freq symmetry=Loose
 -----------------------------------------

 ---------
 b3lyp opt
 ---------
 Symbolic Z-matrix:
 Charge =  1 Multiplicity = 2

                         Standard orientation:
 ---------------------------------------------------------------------
 Center     Atomic      Atomic             Coordinates (Angstroms)
 Number     Number       Type             X           Y           Z
 ---------------------------------------------------------------------
      1          6           0       -1.686724    0.000000    0.000000
      2          6           0        0.663422   -0.854568   -0.000000
      3          6           0       -0.663422    0.854568    0.000000
      4          6           0        0.663422    0.854568    0.000000
      5          6           0       -0.663422   -0.854568   -0.000000
      6          6           0        1.686724   -0.000000   -0.000000
 ---------------------------------------------------------------------

 SCF Done:  E(UB3LYP) =  -227.915624839     A.U. after   12 cycles

 The electronic state is 2-AG.
 Alpha  occ. eigenvalues --  -10.54908 -10.54905 -10.54822 -10.54815 -10.52805
 Alpha  occ. eigenvalues --  -10.52802  -1.27810  -1.14871  -0.99911  -0.95924
 Alpha  occ. eigenvalues --   -0.80812  -0.75921  -0.73179  -0.71578  -0.62859
 Alpha  occ. eigenvalues --   -0.59155  -0.53799  -0.52705
 Alpha virt. eigenvalues --   -0.40133  -0.35479  -0.31468  -0.25151  -0.25035
 Alpha virt. eigenvalues --   -0.15148  -0.13013  -0.11166  -0.10093  -0.10086
 Alpha virt. eigenvalues --   -0.09159  -0.08409  -0.06150  -0.06000  -0.05424

  Beta  occ. eigenvalues --  -10.54860 -10.54858 -10.54778 -10.54771 -10.51686
  Beta  occ. eigenvalues --  -10.51683  -1.27631  -1.14410  -0.99746  -0.94893
  Beta  occ. eigenvalues --   -0.80346  -0.75187  -0.72997  -0.70285  -0.58310
  Beta  occ. eigenvalues --   -0.55984  -0.53874
  Beta virt. eigenvalues --   -0.41102  -0.38226  -0.35140  -0.29556  -0.25141
  Beta virt. eigenvalues --   -0.24820  -0.15057  -0.11617  -0.11148  -0.10035
  Beta virt. eigenvalues --   -0.09853  -0.09124  -0.08206  -0.06013  -0.05636

 Mulliken charges and spin densities:
               1          2
     1  C    0.057116   0.603654
     2  C    0.221442  -0.051827
     3  C    0.221442  -0.051827
     4  C    0.221442  -0.051827
     5  C    0.221442  -0.051827
     6  C    0.057116   0.603654
 Sum of Mulliken charges =   1.00000   1.00000

 Dipole moment (field-independent basis, Debye):
    X=             -0.0000    Y=              0.0000    Z=             -0.0000  Tot=              0.0000
 Quadrupole moment (field-independent basis, Debye-Ang):
   XX=            -24.8809   YY=            -22.8986   ZZ=            -30.7371
   XY=             -0.0000   XZ=             -0.0000   YZ=              0.0000

  Exact polarizability:  88.791   0.000  45.365   0.000  -0.000  28.735
 Approx polarizability: 236.711   0.000 107.189  -0.000   0.000  41.376

                      1                      2                      3
                     B1U                    B2G                    AU
 Frequencies --    276.9863               416.1910               459.2793
 Red. masses --     12.0000                12.0000                12.0000
 Frc consts  --      0.5424                 1.2247                 1.4914
 IR Inten    --      0.0076                 0.0000                 0.0000

                      4                      5                      6
                     B3U                    B1G                    AG
 Frequencies --    499.3816               552.5352               744.7661
 Red. masses --     12.0000                12.0000                12.0000
 Frc consts  --      1.7632                 2.1585                 3.9217
 IR Inten    --     23.3584                 0.0000                 0.0000

                      7                      8                      9
                     B2U                    AG                     B1G
 Frequencies --    935.6972              1174.8338              1351.3365
 Red. masses --     12.0000                12.0000                12.0000
 Frc consts  --      6.1902                 9.7585                12.9110
 IR Inten    --      2.2603                 0.0000                 0.0000

                     10                     11                     12
                     B2U                    B3U                    AG
 Frequencies --   1391.0130              1479.6398              1888.6060
 Red. masses --     12.0000                12.0000                12.0000
 Frc consts  --     13.6802                15.4790                25.2182
 IR Inten    --     85.3181                61.8071                 0.0000

 - Thermochemistry -
 -------------------
 Temperature   298.150 Kelvin.  Pressure   1.00000 Atm.
 Atom     1 has atomic number  6 and mass  12.00000

 Molecular mass:    72.00000 amu.
 Principal axes and moments of inertia in atomic units:
                           1         2         3
     Eigenvalues --   125.17915 319.27849 444.45764
           X            1.00000   0.00000   0.00000
           Y           -0.00000   1.00000   0.00000
           Z            0.00000  -0.00000   1.00000
 This molecule is an asymmetric top.
 Rotational symmetry number  4.
 Rotational temperatures (Kelvin)      0.69192     0.27128     0.19488
 Rotational constants (GHZ):          14.41727     5.65256     4.06055
 Zero-point vibrational energy      66813.0 (Joules/Mol)
                                   15.96870 (Kcal/Mol)
 Warning -- explicit consideration of   5 degrees of freedom as
           vibrations may cause significant error
 Vibrational temperatures:    398.52   598.81   660.80   718.50   794.97
          (Kelvin)           1071.55  1346.26  1690.32  1944.27  2001.35
                             2128.87  2717.28

 Zero-point correction=                           0.025448 (Hartree/Particle)
 Thermal correction to Energy=                    0.029877
 Thermal correction to Enthalpy=                  0.030821
 Thermal correction to Gibbs Free Energy=        -0.000848
 Sum of electronic and zero-point Energies=           -227.890177
 Sum of electronic and thermal Energies=              -227.885748
 Sum of electronic and thermal Enthalpies=            -227.884803
 Sum of electronic and thermal Free Energies=         -227.916473

                     E (Thermal)             CV                S
                      KCal/Mol        Cal/Mol-Kelvin    Cal/Mol-Kelvin
 Total                   18.748             14.592             66.654
 Electronic               0.000              0.000              1.377
 Translational            0.889              2.981             38.739
 Rotational               0.889              2.981             21.634
 Vibrational             16.971              8.630              4.904
 Vibration     1          0.678              1.716              1.552
 Vibration     2          0.779              1.435              0.905
 Vibration     3          0.817              1.340              0.768
 Vibration     4          0.855              1.251              0.660
 Vibration     5          0.908              1.134              0.539

 Optimization completed.
    -- Stationary point found.
 Normal termination of Gaussian 09 at Tue Nov  1 20:16:59 2016.
