 Gaussian 09, Revision E.01,
 Gaussian 09:  EM64L-G09RevE.01 30-Nov-2015

 ---------------------------------------------
 #p b3lyp/6-311++G(3df,2p) freq symmetry=Loose
 ---------------------------------------------

 ---------
 b3lyp opt
 ---------
 Symbolic Z-matrix:
 Charge =  0 Multiplicity = 1

                         Standard orientation:
 ---------------------------------------------------------------------
 Center     Atomic      Atomic             Coordinates (Angstroms)
 Number     Number       Type             X           Y           Z
 ---------------------------------------------------------------------
      1          6           0       -0.557240    1.245978   -0.209228
      2          6           0       -0.918825    0.000613    0.535480
      3          6           0        0.001040    0.000704   -0.805685
      4          6           0        1.515366    0.000148   -0.101151
      5          6           0        0.519074   -0.002961    0.792152
      6          6           0       -0.559416   -1.244482   -0.211568
 ---------------------------------------------------------------------

 SCF Done:  E(RB3LYP) =  -228.170149459     A.U. after   14 cycles

 The electronic state is 1-A.
 Alpha  occ. eigenvalues --  -10.33101 -10.32600 -10.32557 -10.30773 -10.30763
 Alpha  occ. eigenvalues --  -10.29833  -1.12436  -0.83512  -0.77809  -0.69515
 Alpha  occ. eigenvalues --   -0.53665  -0.45836  -0.45252  -0.43010  -0.38989
 Alpha  occ. eigenvalues --   -0.37930  -0.32222  -0.30936
 Alpha virt. eigenvalues --   -0.13427  -0.12267  -0.11234  -0.07773  -0.02067
 Alpha virt. eigenvalues --    0.01153   0.01832   0.03605   0.03755   0.05393
 Alpha virt. eigenvalues --    0.06675   0.07092   0.07300   0.07797   0.07904

 Mulliken charges:
               1
     1  C   -0.369936
     2  C    0.318642
     3  C    0.515199
     4  C   -0.342318
     5  C    0.250004
     6  C   -0.371590
 Sum of Mulliken charges =  -0.00000

 Dipole moment (field-independent basis, Debye):
    X=             -1.1289    Y=              0.0004    Z=              0.5524  Tot=              1.2568
 Quadrupole moment (field-independent basis, Debye-Ang):
   XX=            -37.1131   YY=            -40.7164   ZZ=            -32.4464
   XY=             -0.0139   XZ=              1.6933   YZ=             -0.0091

  Exact polarizability:  60.579  -0.004  55.722  -0.578  -0.001  46.934
 Approx polarizability: 129.872  -0.036 102.113  -3.428  -0.060 109.861

 ******    1 imaginary frequencies (negative Signs) ******

                      1                      2                      3
                      A                      A                      A
 Frequencies --   -104.6204               251.9750               354.8054
 Red. masses --     12.0000                12.0000                12.0000
 Frc consts  --      0.0774                 0.4489                 0.8900
 IR Inten    --      0.0357                 2.5809                 2.9047

                      4                      5                      6
                      A                      A                      A
 Frequencies --    479.2214               571.0742               583.8284
 Red. masses --     12.0000                12.0000                12.0000
 Frc consts  --      1.6237                 2.3058                 2.4099
 IR Inten    --     11.0860                 6.7569                 3.6826

                      7                      8                      9
                      A                      A                      A
 Frequencies --    787.8824               848.0017               988.0334
 Red. masses --     12.0000                12.0000                12.0000
 Frc consts  --      4.3889                 5.0842                 6.9020
 IR Inten    --      0.8902                 4.8007                31.6736

                     10                     11                     12
                      A                      A                      A
 Frequencies --   1163.5790              1235.0644              1472.6942
 Red. masses --     12.0000                12.0000                12.0000
 Frc consts  --      9.5725                10.7848                15.3340
 IR Inten    --      2.2216                41.1886                22.7846

 - Thermochemistry -
 -------------------
 Temperature   298.150 Kelvin.  Pressure   1.00000 Atm.
 Atom     1 has atomic number  6 and mass  12.00000

 Molecular mass:    72.00000 amu.
 Principal axes and moments of inertia in atomic units:
                           1         2         3
     Eigenvalues --   204.12255 244.07292 305.74082
           X            1.00000  -0.00000   0.00000
           Y            0.00000   1.00000   0.00000
           Z            0.00000  -0.00000   1.00000
 This molecule is an asymmetric top.
 Rotational symmetry number  1.
 Rotational temperatures (Kelvin)      0.42432     0.35487     0.28329
 Rotational constants (GHZ):           8.84146     7.39427     5.90285
    1 imaginary frequencies ignored.
 Zero-point vibrational energy      52253.8 (Joules/Mol)
                                   12.48897 (Kcal/Mol)
 Warning -- explicit consideration of   5 degrees of freedom as
           vibrations may cause significant error
 Vibrational temperatures:    362.54   510.49   689.49   821.65   840.00
          (Kelvin)           1133.59  1220.08  1421.56  1674.13  1776.98
                             2118.88

 Zero-point correction=                           0.019902 (Hartree/Particle)
 Thermal correction to Energy=                    0.024386
 Thermal correction to Enthalpy=                  0.025330
 Thermal correction to Gibbs Free Energy=        -0.007033
 Sum of electronic and zero-point Energies=           -228.150247
 Sum of electronic and thermal Energies=              -228.145764
 Sum of electronic and thermal Enthalpies=            -228.144819
 Sum of electronic and thermal Free Energies=         -228.177182

                     E (Thermal)             CV                S
                      KCal/Mol        Cal/Mol-Kelvin    Cal/Mol-Kelvin
 Total                   15.302             14.874             68.113
 Electronic               0.000              0.000              0.000
 Translational            0.889              2.981             38.739
 Rotational               0.889              2.981             24.236
 Vibrational             13.525              8.913              5.138
 Vibration     1          0.664              1.759              1.717
 Vibration     2          0.731              1.565              1.145
 Vibration     3          0.836              1.296              0.712
 Vibration     4          0.927              1.094              0.502
 Vibration     5          0.941              1.066              0.478

 Normal termination of Gaussian 09 at Sun Jun 19 01:04:16 2016.
