 Gaussian 09, Revision E.01,
 Gaussian 09:  EM64L-G09RevE.01 30-Nov-2015

 -----------------------------------------
 #p b3lyp/6-311+G(3df) freq symmetry=Loose
 -----------------------------------------

 ---------
 b3lyp opt
 ---------
 Symbolic Z-matrix:
 Charge =  2 Multiplicity = 3

                         Standard orientation:
 ---------------------------------------------------------------------
 Center     Atomic      Atomic             Coordinates (Angstroms)
 Number     Number       Type             X           Y           Z
 ---------------------------------------------------------------------
      1          6           0       -0.103436    1.062342   -0.001818
      2          6           0        1.151459    0.641905    0.000154
      3          6           0        0.806209   -0.877415   -0.002554
      4          6           0       -0.306020   -0.508284    0.937796
      5          6           0       -0.310811   -0.508941   -0.935183
      6          6           0       -1.237401    0.190393    0.001605
 ---------------------------------------------------------------------

 SCF Done:  E(UB3LYP) =  -227.176602960     A.U. after   21 cycles

 The electronic state is 3-A.
 Alpha  occ. eigenvalues --  -10.86309 -10.85971 -10.85875 -10.85801 -10.85738
 Alpha  occ. eigenvalues --  -10.85733  -1.61952  -1.34348  -1.30135  -1.18502
 Alpha  occ. eigenvalues --   -1.06769  -1.01688  -0.99160  -0.98035  -0.87851
 Alpha  occ. eigenvalues --   -0.86224  -0.84244  -0.83014
 Alpha virt. eigenvalues --   -0.67269  -0.63986  -0.59283  -0.58953  -0.52590
 Alpha virt. eigenvalues --   -0.41078  -0.37935  -0.36262  -0.29124  -0.27478
 Alpha virt. eigenvalues --   -0.27436  -0.25102  -0.24799  -0.24620  -0.23504

  Beta  occ. eigenvalues --  -10.86177 -10.85749 -10.85744 -10.84595 -10.84427
  Beta  occ. eigenvalues --  -10.83991  -1.60890  -1.32113  -1.28791  -1.18184
  Beta  occ. eigenvalues --   -1.05200  -0.99241  -0.97955  -0.92304  -0.87540
  Beta  occ. eigenvalues --   -0.84094
  Beta virt. eigenvalues --   -0.68765  -0.65905  -0.64065  -0.62969  -0.58307
  Beta virt. eigenvalues --   -0.58113  -0.52516  -0.39288  -0.35162  -0.34822
  Beta virt. eigenvalues --   -0.28497  -0.26410  -0.25061  -0.24509  -0.24418

 Mulliken charges and spin densities:
               1          2
     1  C    0.672692  -0.322015
     2  C   -0.001938   0.821330
     3  C    0.648411   0.795223
     4  C    0.079206  -0.051491
     5  C    0.077734  -0.054932
     6  C    0.523895   0.811885
 Sum of Mulliken charges =   2.00000   2.00000

 Dipole moment (field-independent basis, Debye):
    X=             -0.0321    Y=              0.6237    Z=             -0.0039  Tot=              0.6245
 Quadrupole moment (field-independent basis, Debye-Ang):
   XX=            -18.8641   YY=            -18.7393   ZZ=            -24.3156
   XY=              0.4088   XZ=              0.0032   YZ=              0.0021

  Exact polarizability:  45.721   1.724  40.421   0.016  -0.007  40.688
 Approx polarizability: 111.773   9.081  98.207   0.172  -0.067 121.914

                      1                      2                      3
                      A                      A                      A
 Frequencies --    244.5018               427.3554               484.9792
 Red. masses --     12.0000                12.0000                12.0000
 Frc consts  --      0.4227                 1.2912                 1.6629
 IR Inten    --      1.3783                 0.4581                25.8517

                      4                      5                      6
                      A                      A                      A
 Frequencies --    512.7959               643.0186               722.4432
 Red. masses --     12.0000                12.0000                12.0000
 Frc consts  --      1.8592                 2.9233                 3.6901
 IR Inten    --      1.1857                 0.4069                 1.8740

                      7                      8                      9
                      A                      A                      A
 Frequencies --    736.6173               846.8411               917.9347
 Red. masses --     12.0000                12.0000                12.0000
 Frc consts  --      3.8363                 5.0703                 5.9574
 IR Inten    --      0.1318                 1.8651                 1.3721

                     10                     11                     12
                      A                      A                      A
 Frequencies --   1072.6109              1161.3284              1493.7069
 Red. masses --     12.0000                12.0000                12.0000
 Frc consts  --      8.1342                 9.5355                15.7747
 IR Inten    --     29.1078                 1.7584                44.8563

 - Thermochemistry -
 -------------------
 Temperature   298.150 Kelvin.  Pressure   1.00000 Atm.
 Atom     1 has atomic number  6 and mass  12.00000

 Molecular mass:    72.00000 amu.
 Principal axes and moments of inertia in atomic units:
                           1         2         3
     Eigenvalues --   197.89989 234.06126 281.63012
           X            1.00000   0.00000   0.00000
           Y           -0.00000   1.00000   0.00000
           Z            0.00000  -0.00000   1.00000
 This molecule is an asymmetric top.
 Rotational symmetry number  1.
 Rotational temperatures (Kelvin)      0.43766     0.37005     0.30754
 Rotational constants (GHZ):           9.11947     7.71055     6.40820
 Zero-point vibrational energy      55411.8 (Joules/Mol)
                                   13.24374 (Kcal/Mol)
 Warning -- explicit consideration of   4 degrees of freedom as
           vibrations may cause significant error
 Vibrational temperatures:    351.78   614.87   697.78   737.80   925.16
          (Kelvin)           1039.43  1059.83  1218.41  1320.70  1543.25
                             1670.89  2149.11

 Zero-point correction=                           0.021105 (Hartree/Particle)
 Thermal correction to Energy=                    0.025675
 Thermal correction to Enthalpy=                  0.026619
 Thermal correction to Gibbs Free Energy=        -0.006794
 Sum of electronic and zero-point Energies=           -227.155498
 Sum of electronic and thermal Energies=              -227.150928
 Sum of electronic and thermal Enthalpies=            -227.149984
 Sum of electronic and thermal Free Energies=         -227.183397

                     E (Thermal)             CV                S
                      KCal/Mol        Cal/Mol-Kelvin    Cal/Mol-Kelvin
 Total                   16.111             15.804             70.325
 Electronic               0.000              0.000              2.183
 Translational            0.889              2.981             38.739
 Rotational               0.889              2.981             24.082
 Vibrational             14.334              9.842              5.321
 Vibration     1          0.660              1.772              1.770
 Vibration     2          0.789              1.411              0.867
 Vibration     3          0.841              1.283              0.697
 Vibration     4          0.868              1.222              0.627

 Normal termination of Gaussian 09 at Sun Jun 19 13:56:45 2016.
