 Gaussian 09, Revision E.01,
 Gaussian 09:  EM64L-G09RevE.01 30-Nov-2015

 ---------------------------------------------
 #p b3lyp/6-311++G(3df,2p) freq symmetry=Loose
 ---------------------------------------------

 ---------
 b3lyp opt
 ---------
 Symbolic Z-matrix:
 Charge =  0 Multiplicity = 1

                         Standard orientation:
 ---------------------------------------------------------------------
 Center     Atomic      Atomic             Coordinates (Angstroms)
 Number     Number       Type             X           Y           Z
 ---------------------------------------------------------------------
      1          6           0        0.000000    0.000000    3.215441
      2          6           0        0.000000    0.000000    1.921567
      3          6           0        0.000000    0.000000    0.635632
      4          6           0        0.000000    0.000000   -0.635632
      5          6           0        0.000000    0.000000   -1.921567
      6          6           0        0.000000    0.000000   -3.215441
 ---------------------------------------------------------------------

 SCF Done:  E(RB3LYP) =  -228.313125421     A.U. after   11 cycles

 Unable to determine electronic state:  partially filled degenerate orbitals.
 Alpha  occ. eigenvalues --  -10.30240 -10.30103 -10.27187 -10.27186 -10.24905
 Alpha  occ. eigenvalues --  -10.24902  -0.89984  -0.84644  -0.79151  -0.71888
 Alpha  occ. eigenvalues --   -0.66246  -0.44953  -0.44924  -0.37159  -0.36711
 Alpha  occ. eigenvalues --   -0.33762  -0.33664  -0.27996
 Alpha virt. eigenvalues --   -0.23822  -0.12034  -0.11666  -0.00895   0.01600
 Alpha virt. eigenvalues --    0.01710   0.02945   0.03992   0.04272   0.05368
 Alpha virt. eigenvalues --    0.06450   0.06609   0.07112   0.10726   0.10833

 Mulliken charges:
               1
     1  C   -0.786183
     2  C    1.267313
     3  C   -0.481130
     4  C   -0.481130
     5  C    1.267313
     6  C   -0.786183
 Sum of Mulliken charges =  -0.00000

 Dipole moment (field-independent basis, Debye):
    X=             -0.0000    Y=             -0.0000    Z=             -0.0000  Tot=              0.0000
 Quadrupole moment (field-independent basis, Debye-Ang):
   XX=            -35.0356   YY=            -31.4998   ZZ=            -55.7967
   XY=             -0.0000   XZ=              0.0000   YZ=              0.0000

  Exact polarizability:  41.465  -0.000  41.460   0.000   0.000 205.675
 Approx polarizability:  58.330  -0.000  62.115  -0.000  -0.000 602.495

                      1                      2                      3
                     ?A                     ?A                     ?B
 Frequencies --     93.9240               110.9406               186.8296
 Red. masses --     12.0000                12.0000                12.0000
 Frc consts  --      0.0624                 0.0870                 0.2468
 IR Inten    --     21.2889                 9.8100                 0.0000

                      4                      5                      6
                     ?B                     ?A                     ?A
 Frequencies --    237.9946               348.6680               450.2448
 Red. masses --     12.0000                12.0000                12.0000
 Frc consts  --      0.4005                 0.8595                 1.4333
 IR Inten    --      0.0000                 9.8721                 0.0013

                      7                      8                      9
                     ?B                     ?B                     SGG
 Frequencies --    540.7731               664.0993               669.0784
 Red. masses --     12.0000                12.0000                12.0000
 Frc consts  --      2.0676                 3.1182                 3.1651
 IR Inten    --      0.0000                 0.0000                 0.0000

                     10                     11                     12
                     SGU                    SGG                    SGU
 Frequencies --   1233.0611              1744.3434              2041.4863
 Red. masses --     12.0000                12.0000                12.0000
 Frc consts  --     10.7498                21.5127                29.4662
 IR Inten    --     99.7890                 0.0000              1338.8038

                     13
                     SGG
 Frequencies --   2181.5786
 Red. masses --     12.0000
 Frc consts  --     33.6491
 IR Inten    --      0.0000

 - Thermochemistry -
 -------------------
 Temperature   298.150 Kelvin.  Pressure   1.00000 Atm.
 Atom     1 has atomic number  6 and mass  12.00000

 Molecular mass:    72.00000 amu.
 Principal axes and moments of inertia in atomic units:
                           1         2         3
     Eigenvalues --     0.000001237.203301237.20330
           X           -0.00000   1.00000  -0.00000
           Y            0.00000   0.00000   1.00000
           Z            1.00000   0.00000  -0.00000
 This molecule is a prolate symmetric top.
 Rotational symmetry number  2.
 Warning -- assumption of classical behavior for rotation
           may cause significant error
 Rotational temperature (Kelvin)      0.07001
 Rotational constant (GHZ):           1.458726
 Zero-point vibrational energy      62822.0 (Joules/Mol)
                                   15.01482 (Kcal/Mol)
 Warning -- explicit consideration of   7 degrees of freedom as
           vibrations may cause significant error
 Vibrational temperatures:    135.14   159.62   268.81   342.42   501.65
          (Kelvin)            647.80   778.05   955.49   962.65  1774.10
                             2509.72  2937.24  3138.80

 Zero-point correction=                           0.023928 (Hartree/Particle)
 Thermal correction to Energy=                    0.029926
 Thermal correction to Enthalpy=                  0.030871
 Thermal correction to Gibbs Free Energy=        -0.002451
 Sum of electronic and zero-point Energies=           -228.289198
 Sum of electronic and thermal Energies=              -228.283199
 Sum of electronic and thermal Enthalpies=            -228.282255
 Sum of electronic and thermal Free Energies=         -228.315576

                     E (Thermal)             CV                S
                      KCal/Mol        Cal/Mol-Kelvin    Cal/Mol-Kelvin
 Total                   18.779             18.621             70.130
 Electronic               0.000              0.000              0.000
 Translational            0.889              2.981             38.739
 Rotational               0.592              1.987             17.216
 Vibrational             17.298             13.653             14.175
 Vibration     1          0.603              1.954              3.577
 Vibration     2          0.607              1.940              3.252
 Vibration     3          0.632              1.858              2.259
 Vibration     4          0.656              1.782              1.818
 Vibration     5          0.726              1.578              1.172
 Vibration     6          0.809              1.360              0.795
 Vibration     7          0.896              1.160              0.564

 Optimization completed.
    -- Stationary point found.
 Normal termination of Gaussian 09 at Sun Jun 19 00:50:34 2016.
