 Gaussian 09, Revision E.01,
 Gaussian 09:  EM64L-G09RevE.01 30-Nov-2015

 -----------------------------------------
 #p b3lyp/6-311+G(3df) freq symmetry=Loose
 -----------------------------------------

 ---------
 b3lyp opt
 ---------
 Symbolic Z-matrix:
 Charge =  2 Multiplicity = 3

                         Standard orientation:
 ---------------------------------------------------------------------
 Center     Atomic      Atomic             Coordinates (Angstroms)
 Number     Number       Type             X           Y           Z
 ---------------------------------------------------------------------
      1          6           0       -3.872117   -0.165644    0.085162
      2          6           0        3.872366   -0.163418   -0.087420
      3          6           0        2.557498    0.076423    0.107832
      4          6           0       -2.557660    0.079945   -0.105296
      5          6           0       -1.287817    0.060614   -0.048073
      6          6           0        1.287774    0.060961    0.047584
      7          6           0       -0.000045    0.051119    0.000210
 ---------------------------------------------------------------------

 SCF Done:  E(UB3LYP) =  -265.501229011     A.U. after   27 cycles

 The electronic state is 3-A.
 Alpha  occ. eigenvalues --  -10.74309 -10.74308 -10.72158 -10.71377 -10.71364
 Alpha  occ. eigenvalues --  -10.68578 -10.68576  -1.31206  -1.27778  -1.24022
 Alpha  occ. eigenvalues --   -1.17500  -1.11653  -1.06980  -0.85553  -0.85550
 Alpha  occ. eigenvalues --   -0.80036  -0.80035  -0.75587  -0.75547  -0.72883
 Alpha  occ. eigenvalues --   -0.72881
 Alpha virt. eigenvalues --   -0.58557  -0.58543  -0.48964  -0.48957  -0.37049
 Alpha virt. eigenvalues --   -0.37035  -0.30772  -0.27505  -0.26621  -0.24418
 Alpha virt. eigenvalues --   -0.24206  -0.23429  -0.23394  -0.21130  -0.19548

  Beta  occ. eigenvalues --  -10.73486 -10.73485 -10.71987 -10.71984 -10.70998
  Beta  occ. eigenvalues --  -10.67735 -10.67733  -1.30104  -1.26589  -1.20621
  Beta  occ. eigenvalues --   -1.15807  -1.10219  -1.06162  -0.83873  -0.83870
  Beta  occ. eigenvalues --   -0.77847  -0.77845  -0.72655  -0.72620
  Beta virt. eigenvalues --   -0.63718  -0.63706  -0.56294  -0.56281  -0.45486
  Beta virt. eigenvalues --   -0.45459  -0.34630  -0.34571  -0.30550  -0.26760
  Beta virt. eigenvalues --   -0.25107  -0.23579  -0.23411  -0.22964  -0.22647

 Mulliken charges and spin densities:
               1          2
     1  C   -0.012570   0.504526
     2  C   -0.014576   0.503372
     3  C    1.130886   0.425154
     4  C    1.128670   0.424681
     5  C    0.074067  -0.023302
     6  C    0.074363  -0.023156
     7  C   -0.380839   0.188724
 Sum of Mulliken charges =   2.00000   2.00000

 Dipole moment (field-independent basis, Debye):
    X=             -0.0016    Y=              0.3465    Z=              0.0056  Tot=              0.3465
 Quadrupole moment (field-independent basis, Debye-Ang):
   XX=             39.2331   YY=            -32.1719   ZZ=            -32.1141
   XY=             -0.0331   XZ=              2.0140   YZ=             -0.0005

  Exact polarizability: 293.877  -0.014  35.631  -0.292  -0.018  36.434
 Approx polarizability: 747.899   0.025  52.207  -3.862  -0.006  51.633

                      1                      2                      3
                      A                      A                      A
 Frequencies --     72.4246                98.1362               136.9538
 Red. masses --     12.0000                12.0000                12.0000
 Frc consts  --      0.0371                 0.0681                 0.1326
 IR Inten    --      0.1298                 2.8984                 0.4490

                      4                      5                      6
                      A                      A                      A
 Frequencies --    214.3625               233.6736               425.3649
 Red. masses --     12.0000                12.0000                12.0000
 Frc consts  --      0.3249                 0.3861                 1.2792
 IR Inten    --     16.2894                 2.9241                17.9064

                      7                      8                      9
                      A                      A                      A
 Frequencies --    431.8218               572.1860               622.1666
 Red. masses --     12.0000                12.0000                12.0000
 Frc consts  --      1.3184                 2.3148                 2.7368
 IR Inten    --      0.2513                 0.4221                 4.4592

                     10                     11                     12
                      A                      A                      A
 Frequencies --    630.9944               983.7603              1264.6167
 Red. masses --     12.0000                12.0000                12.0000
 Frc consts  --      2.8150                 6.8424                11.3070
 IR Inten    --      0.0116               220.5392                10.4551

                     13                     14                     15
                      A                      A                      A
 Frequencies --   1627.4572              1716.6245              1898.9490
 Red. masses --     12.0000                12.0000                12.0000
 Frc consts  --     18.7262                20.8344                25.4952
 IR Inten    --     21.7070               158.6282                 7.5717

 - Thermochemistry -
 -------------------
 Temperature   298.150 Kelvin.  Pressure   1.00000 Atm.
 Atom     1 has atomic number  6 and mass  12.00000

 Molecular mass:    84.00000 amu.
 Principal axes and moments of inertia in atomic units:
                           1         2         3
     Eigenvalues --     5.080791989.651951991.11722
           X            1.00000  -0.00000   0.00000
           Y            0.00000   1.00000   0.00000
           Z           -0.00000  -0.00000   1.00000
 This molecule is an asymmetric top.
 Rotational symmetry number  1.
 Rotational temperatures (Kelvin)     17.04731     0.04353     0.04350
 Rotational constants (GHZ):         355.20870     0.90706     0.90640
 Zero-point vibrational energy      65372.9 (Joules/Mol)
                                   15.62449 (Kcal/Mol)
 Warning -- explicit consideration of   8 degrees of freedom as
           vibrations may cause significant error
 Vibrational temperatures:    104.20   141.20   197.05   308.42   336.20
          (Kelvin)            612.00   621.29   823.25   895.16   907.86
                             1415.41  1819.50  2341.54  2469.84  2732.16

 Zero-point correction=                           0.024899 (Hartree/Particle)
 Thermal correction to Energy=                    0.032064
 Thermal correction to Enthalpy=                  0.033008
 Thermal correction to Gibbs Free Energy=        -0.006598
 Sum of electronic and zero-point Energies=           -265.476330
 Sum of electronic and thermal Energies=              -265.469165
 Sum of electronic and thermal Enthalpies=            -265.468221
 Sum of electronic and thermal Free Energies=         -265.507827

                     E (Thermal)             CV                S
                      KCal/Mol        Cal/Mol-Kelvin    Cal/Mol-Kelvin
 Total                   20.121             21.925             83.359
 Electronic               0.000              0.000              2.183
 Translational            0.889              2.981             39.198
 Rotational               0.889              2.981             24.513
 Vibrational             18.343             15.963             17.464
 Vibration     1          0.599              1.967              4.086
 Vibration     2          0.604              1.950              3.491
 Vibration     3          0.614              1.916              2.846
 Vibration     4          0.644              1.819              2.006
 Vibration     5          0.654              1.789              1.851
 Vibration     6          0.787              1.415              0.874
 Vibration     7          0.793              1.401              0.853
 Vibration     8          0.928              1.091              0.500

 Normal termination of Gaussian 09 at Tue Jul  5 23:57:02 2016.
