 Gaussian 09, Revision C.01,
 Gaussian 09:  AM64L-G09RevC.01 23-Sep-2011

 ---------------------------------------------
 #p b3lyp/6-311++G(3df,2p) freq symmetry=Loose
 ---------------------------------------------

 (Enter /home/nestor/.gaussian09/l101.exe)
 ---------
 b3lyp opt
 ---------
 Charge =  0 Multiplicity = 1

                         Standard orientation:
 ---------------------------------------------------------------------
 Center     Atomic      Atomic             Coordinates (Angstroms)
 Number     Number       Type             X           Y           Z
 ---------------------------------------------------------------------
      1          6           0       -0.676315   -2.146596    0.663418
      2          6           0       -0.284024    0.415316    0.000000
      3          6           0       -0.676315   -2.146596   -0.663418
      4          6           0       -0.676315    1.739095    0.000000
      5          6           0        0.750836    1.433415    0.000000
      6          6           0        2.042097    1.614838    0.000000
      7          6           0       -0.479963   -0.909471    0.000000
 ---------------------------------------------------------------------

 SCF Done:  E(RB3LYP) =  -266.300332196     A.U. after   14 cycles

 The electronic state is 1-A'.
 Alpha  occ. eigenvalues --  -10.33714 -10.30450 -10.30115 -10.28750 -10.26949
 Alpha  occ. eigenvalues --  -10.26857 -10.26416  -1.00260  -0.97797  -0.79284
 Alpha  occ. eigenvalues --   -0.76682  -0.54130  -0.53540  -0.50206  -0.45701
 Alpha  occ. eigenvalues --   -0.44429  -0.42964  -0.34533  -0.32098  -0.31741
 Alpha  occ. eigenvalues --   -0.29720
 Alpha virt. eigenvalues --   -0.21035  -0.16244  -0.08604  -0.07167  -0.04227
 Alpha virt. eigenvalues --    0.00250   0.00831   0.02968   0.03388   0.03814
 Alpha virt. eigenvalues --    0.04677   0.05839   0.06169   0.07036   0.08117

 Mulliken atomic charges:
              1
     1  C   -0.232533
     2  C    0.523947
     3  C   -0.232533
     4  C   -0.389668
     5  C    0.872295
     6  C   -0.716973
     7  C    0.175464
 Sum of Mulliken atomic charges =   0.00000

 Dipole moment (field-independent basis, Debye):
    X=             -0.6941    Y=             -0.4259    Z=              0.0000  Tot=              0.8143
 Quadrupole moment (field-independent basis, Debye-Ang):
   XX=            -45.2141   YY=            -45.1301   ZZ=            -41.8759
   XY=             -1.2970   XZ=              0.0000   YZ=              0.0000

  Exact polarizability:  90.657  39.374 147.634   0.000   0.000  58.003
 Approx polarizability: 263.578 203.578 485.877   0.000   0.000 103.729

                     1                      2                      3
                    A"                     A'                     A"
 Frequencies --   102.6936               103.2957               142.7706
 Red. masses --    12.0000                12.0000                12.0000
 Frc consts  --     0.0746                 0.0754                 0.1441
 IR Inten    --    38.6561                 5.9989                 0.2429

                     4                      5                      6
                    A'                     A"                     A"
 Frequencies --   239.3459               322.2809               432.4155
 Red. masses --    12.0000                12.0000                12.0000
 Frc consts  --     0.4050                 0.7343                 1.3220
 IR Inten    --    11.3402                 0.1398                44.6394

                     7                      8                      9
                    A'                     A"                     A'
 Frequencies --   556.9833               578.4264               583.4102
 Red. masses --    12.0000                12.0000                12.0000
 Frc consts  --     2.1934                 2.3655                 2.4065
 IR Inten    --     1.3459                29.3287                10.2462

                    10                     11                     12
                    A'                     A'                     A'
 Frequencies --   835.9333               903.7703              1259.4008
 Red. masses --    12.0000                12.0000                12.0000
 Frc consts  --     4.9405                 5.7749                11.2140
 IR Inten    --    78.4293                40.3130               154.6581

                    13                     14                     15
                    A'                     A'                     A'
 Frequencies --  1484.8255              1669.3323              1799.8992
 Red. masses --    12.0000                12.0000                12.0000
 Frc consts  --    15.5877                19.7023                22.9049
 IR Inten    --    67.7144               802.5932               142.4792

 - Thermochemistry -
 -------------------
 Temperature   298.150 Kelvin.  Pressure   1.00000 Atm.
 Atom     1 has atomic number  6 and mass  12.00000

 Molecular mass:    84.00000 amu.
 Principal axes and moments of inertia in atomic units:
                           1         2         3
     Eigenvalues --   189.68826 927.906231042.15240
           X            0.40823   0.91288   0.00000
           Y            0.91288  -0.40823   0.00000
           Z            0.00000   0.00000   1.00000
 This molecule is an asymmetric top.
 Rotational symmetry number  1.
 Rotational temperatures (Kelvin)      0.45661     0.09334     0.08311
 Rotational constants (GHZ):           9.51425     1.94496     1.73174
 Zero-point vibrational energy      65883.0 (Joules/Mol)
                                   15.74642 (Kcal/Mol)
 Warning -- explicit consideration of   9 degrees of freedom as
           vibrations may cause significant error
 Vibrational temperatures:    147.75   148.62   205.41   344.36   463.69
          (Kelvin)            622.15   801.37   832.23   839.40  1202.72
                             1300.32  1811.99  2136.33  2401.79  2589.65

 Zero-point correction=                           0.025094 (Hartree/Particle)
 Thermal correction to Energy=                    0.031885
 Thermal correction to Enthalpy=                  0.032829
 Thermal correction to Gibbs Free Energy=        -0.005796
 Sum of electronic and zero-point Energies=           -266.275239
 Sum of electronic and thermal Energies=              -266.268448
 Sum of electronic and thermal Enthalpies=            -266.267503
 Sum of electronic and thermal Free Energies=         -266.306128

                     E (Thermal)             CV                S
                      KCal/Mol        Cal/Mol-Kelvin    Cal/Mol-Kelvin
 Total                   20.008             21.249             81.293
 Electronic               0.000              0.000              0.000
 Translational            0.889              2.981             39.198
 Rotational               0.889              2.981             26.709
 Vibrational             18.230             15.287             15.386
 Vibration     1          0.605              1.947              3.403
 Vibration     2          0.605              1.947              3.391
 Vibration     3          0.616              1.910              2.766
 Vibration     4          0.657              1.780              1.808
 Vibration     5          0.707              1.631              1.299
 Vibration     6          0.793              1.400              0.851
 Vibration     7          0.912              1.124              0.530
 Vibration     8          0.935              1.078              0.488
 Vibration     9          0.940              1.067              0.479

 Optimization completed.
    -- Stationary point found.
 Normal termination of Gaussian 09 at Wed Jul  6 06:40:55 2016.
