 Gaussian 09, Revision E.01,
 Gaussian 09:  EM64L-G09RevE.01 30-Nov-2015

 ---------------------------------------------
 #p b3lyp/6-311+G(3df) opt freq symmetry=Loose
 ---------------------------------------------

 ---------
 b3lyp opt
 ---------
 Symbolic Z-matrix:
 Charge =  1 Multiplicity = 4

 SCF Done:  E(UB3LYP) =  -265.972553272     A.U. after   17 cycles
 SCF Done:  E(UB3LYP) =  -265.972581613     A.U. after   14 cycles
 SCF Done:  E(UB3LYP) =  -265.972581979     A.U. after   12 cycles
 Optimization completed.
    -- Stationary point found.
 Normal termination of Gaussian 09 at Mon Nov 14 16:19:58 2016.

 ----------------------------------------------------------------------
 #P Geom=AllCheck Guess=TCheck SCRF=Check GenChk UB3LYP/6-311+G(3df) Fr
 eq
 ----------------------------------------------------------------------

 Structure from the checkpoint file:  "/scratch/sergio/C7.q1.m4-7.com-2301895/Gau-26658.chk"
 ---------
 b3lyp opt
 ---------
 Charge =  1 Multiplicity = 4

                         Standard orientation:
 ---------------------------------------------------------------------
 Center     Atomic      Atomic             Coordinates (Angstroms)
 Number     Number       Type             X           Y           Z
 ---------------------------------------------------------------------
      1          6           0        0.000000   -0.000000    1.665152
      2          6           0       -0.000000    1.817692   -0.291367
      3          6           0       -0.000000   -1.817692   -0.291367
      4          6           0       -0.000000    0.719244    0.509268
      5          6           0       -0.000000   -0.719244    0.509268
      6          6           0       -0.000000    2.761853   -1.050477
      7          6           0       -0.000000   -2.761853   -1.050477
 ---------------------------------------------------------------------

 SCF Done:  E(UB3LYP) =  -265.972581979     A.U. after    1 cycles

 The electronic state is 4-B2.
 Alpha  occ. eigenvalues --  -10.51943 -10.51902 -10.49708 -10.49707 -10.49622
 Alpha  occ. eigenvalues --  -10.43339 -10.43338  -1.20657  -1.03484  -1.02702
 Alpha  occ. eigenvalues --   -0.91780  -0.90129  -0.73111  -0.68002  -0.66923
 Alpha  occ. eigenvalues --   -0.63129  -0.62822  -0.57420  -0.56812  -0.54979
 Alpha  occ. eigenvalues --   -0.52975  -0.49703
 Alpha virt. eigenvalues --   -0.34000  -0.28840  -0.24623  -0.18566  -0.14270
 Alpha virt. eigenvalues --   -0.13621  -0.10927  -0.09849  -0.09444  -0.09390
 Alpha virt. eigenvalues --   -0.07405  -0.06871  -0.05337  -0.05037  -0.04312

  Beta  occ. eigenvalues --  -10.51715 -10.51677 -10.48521 -10.47121 -10.47120
  Beta  occ. eigenvalues --  -10.43347 -10.43347  -1.19863  -1.02220  -1.01071
  Beta  occ. eigenvalues --   -0.89738  -0.88232  -0.70294  -0.66986  -0.66760
  Beta  occ. eigenvalues --   -0.55935  -0.52610  -0.52422  -0.50910
  Beta virt. eigenvalues --   -0.40508  -0.40374  -0.38307  -0.31824  -0.26509
  Beta virt. eigenvalues --   -0.21070  -0.15584  -0.13828  -0.11806  -0.10520
  Beta virt. eigenvalues --   -0.09407  -0.09070  -0.08839  -0.06867  -0.05859

 Mulliken charges and spin densities:
               1          2
     1  C    0.022544   0.598086
     2  C    0.249897  -0.198996
     3  C    0.249897  -0.198996
     4  C   -0.104539   0.013185
     5  C   -0.104539   0.013185
     6  C    0.343370   1.386767
     7  C    0.343370   1.386767
 Sum of Mulliken charges =   1.00000   3.00000

 Dipole moment (field-independent basis, Debye):
    X=             -0.0000    Y=             -0.0000    Z=             -1.1947  Tot=              1.1947
 Quadrupole moment (field-independent basis, Debye-Ang):
   XX=            -35.1306   YY=            -10.4642   ZZ=            -30.0029
   XY=              0.0000   XZ=              0.0000   YZ=              0.0000

  Exact polarizability:  38.939  -0.000 119.193   0.000   0.000  78.301
 Approx polarizability:  54.123   0.000 228.182   0.000  -0.000 166.276

                      1                      2                      3
                     A1                     B1                     A2
 Frequencies --    101.3643               194.0143               201.3657
 Red. masses --     12.0000                12.0000                12.0000
 Frc consts  --      0.0726                 0.2661                 0.2867
 IR Inten    --      0.7910                 0.2742                 0.0000

                      4                      5                      6
                     B2                     A1                     B1
 Frequencies --    217.9113               370.8670               459.9571
 Red. masses --     12.0000                12.0000                12.0000
 Frc consts  --      0.3357                 0.9725                 1.4958
 IR Inten    --      0.5905                 0.1253                 1.2832

                      7                      8                      9
                     B2                     A2                     A1
 Frequencies --    586.6518               603.5679               725.8998
 Red. masses --     12.0000                12.0000                12.0000
 Frc consts  --      2.4333                 2.5756                 3.7255
 IR Inten    --      3.1525                 0.0000                 1.7574

                     10                     11                     12
                     B2                     A1                     B2
 Frequencies --    824.7685              1044.8730              1445.3629
 Red. masses --     12.0000                12.0000                12.0000
 Frc consts  --      4.8095                 7.7190                14.7702
 IR Inten    --      0.1868                37.4513               300.2384

                     13                     14                     15
                     A1                     B2                     A1
 Frequencies --   1755.7126              2165.7862              2182.3992
 Red. masses --     12.0000                12.0000                12.0000
 Frc consts  --     21.7941                33.1637                33.6744
 IR Inten    --     58.6483               504.8482               225.2141

 - Thermochemistry -
 -------------------
 Temperature   298.150 Kelvin.  Pressure   1.00000 Atm.
 Atom     1 has atomic number  6 and mass  12.00000

 Molecular mass:    84.00000 amu.
 Principal axes and moments of inertia in atomic units:
                           1         2         3
     Eigenvalues --   242.89965 981.255501224.15515
           X            0.00000   0.00000   1.00000
           Y            1.00000   0.00000  -0.00000
           Z            0.00000   1.00000   0.00000
 This molecule is an asymmetric top.
 Rotational symmetry number  2.
 Rotational temperatures (Kelvin)      0.35658     0.08827     0.07075
 Rotational constants (GHZ):           7.42999     1.83922     1.47427
 Zero-point vibrational energy      77042.5 (Joules/Mol)
                                   18.41360 (Kcal/Mol)
 Warning -- explicit consideration of   8 degrees of freedom as
           vibrations may cause significant error
 Vibrational temperatures:    145.84   279.14   289.72   313.53   533.59
          (Kelvin)            661.77   844.06   868.40  1044.41  1186.66
                             1503.34  2079.55  2526.08  3116.08  3139.98

 Zero-point correction=                           0.029344 (Hartree/Particle)
 Thermal correction to Energy=                    0.035704
 Thermal correction to Enthalpy=                  0.036648
 Thermal correction to Gibbs Free Energy=        -0.001734
 Sum of electronic and zero-point Energies=           -265.943238
 Sum of electronic and thermal Energies=              -265.936878
 Sum of electronic and thermal Enthalpies=            -265.935934
 Sum of electronic and thermal Free Energies=         -265.974316

                     E (Thermal)             CV                S
                      KCal/Mol        Cal/Mol-Kelvin    Cal/Mol-Kelvin
 Total                   22.404             20.219             80.782
 Electronic               0.000              0.000              2.755
 Translational            0.889              2.981             39.198
 Rotational               0.889              2.981             25.792
 Vibrational             20.627             14.258             13.036
 Vibration     1          0.604              1.948              3.428
 Vibration     2          0.635              1.848              2.189
 Vibration     3          0.638              1.838              2.121
 Vibration     4          0.646              1.814              1.976
 Vibration     5          0.743              1.532              1.076
 Vibration     6          0.818              1.339              0.766
 Vibration     7          0.944              1.060              0.473
 Vibration     8          0.962              1.024              0.444

 Optimization completed.
    -- Stationary point found.
 Normal termination of Gaussian 09 at Mon Nov 14 16:32:04 2016.
