 Gaussian 09, Revision E.01,
 Gaussian 09:  EM64L-G09RevE.01 30-Nov-2015

 ---------------------------------------------
 #p b3lyp/6-311++G(3df,2p) freq symmetry=Loose
 ---------------------------------------------

 ---------
 b3lyp opt
 ---------
 Symbolic Z-matrix:
 Charge =  0 Multiplicity = 3

                         Standard orientation:
 ---------------------------------------------------------------------
 Center     Atomic      Atomic             Coordinates (Angstroms)
 Number     Number       Type             X           Y           Z
 ---------------------------------------------------------------------
      1          6           0       -1.656231   -0.367335    0.000000
      2          6           0        1.238673    0.949050    0.000000
      3          6           0       -1.244955    0.960534    0.000000
      4          6           0        0.633179   -1.238724    0.000000
      5          6           0        1.660468   -0.373103    0.000000
      6          6           0        0.000000    1.300380    0.000000
      7          6           0       -0.631135   -1.230802    0.000000
 ---------------------------------------------------------------------

 SCF Done:  E(UB3LYP) =  -266.399270625     A.U. after   22 cycles

 The electronic state is 3-A'.
 Alpha  occ. eigenvalues --  -10.26842 -10.26797 -10.25636 -10.25567 -10.25386
 Alpha  occ. eigenvalues --  -10.25082 -10.24935  -0.93190  -0.84415  -0.82312
 Alpha  occ. eigenvalues --   -0.69108  -0.69029  -0.55601  -0.55571  -0.45819
 Alpha  occ. eigenvalues --   -0.44870  -0.36474  -0.35476  -0.34548  -0.33403
 Alpha  occ. eigenvalues --   -0.24942  -0.24839
 Alpha virt. eigenvalues --   -0.12007  -0.11751  -0.09310  -0.08934   0.01058
 Alpha virt. eigenvalues --    0.03506   0.03900   0.04471   0.06320   0.06909
 Alpha virt. eigenvalues --    0.07181   0.07612   0.07811   0.09626   0.09649

  Beta  occ. eigenvalues --  -10.25688 -10.25647 -10.25481 -10.24780 -10.24743
  Beta  occ. eigenvalues --  -10.24703 -10.24638  -0.92370  -0.82980  -0.81615
  Beta  occ. eigenvalues --   -0.67722  -0.67438  -0.54282  -0.54172  -0.44327
  Beta  occ. eigenvalues --   -0.42667  -0.35235  -0.33257  -0.31439  -0.29740
  Beta virt. eigenvalues --   -0.12181  -0.12099  -0.10795  -0.10521  -0.07688
  Beta virt. eigenvalues --   -0.07288   0.01288   0.03637   0.04414   0.04509
  Beta virt. eigenvalues --    0.06500   0.07441   0.07638   0.07679   0.07917

 Mulliken charges and spin densities:
               1          2
     1  C   -0.338403   0.708630
     2  C   -0.117235   0.438514
     3  C   -0.142583   0.461528
     4  C    0.280945   0.006694
     5  C   -0.325969   0.714523
     6  C    0.356801  -0.308406
     7  C    0.286444  -0.021482
 Sum of Mulliken charges =  -0.00000   2.00000

 Dipole moment (field-independent basis, Debye):
    X=              0.0085    Y=             -0.0098    Z=              0.0000  Tot=              0.0130
 Quadrupole moment (field-independent basis, Debye-Ang):
   XX=            -44.1835   YY=            -39.5988   ZZ=            -38.4788
   XY=              0.0686   XZ=              0.0000   YZ=              0.0000

  Exact polarizability: 104.035  -0.331  84.240  -0.000  -0.000  42.643
 Approx polarizability: 253.596  -1.046 188.189  -0.000  -0.000  62.964

                      1                      2                      3
                     A'                     A'                     A"
 Frequencies --     53.0599               291.8536               306.9593
 Red. masses --     12.0000                12.0000                12.0000
 Frc consts  --      0.0199                 0.6022                 0.6662
 IR Inten    --      0.0955                34.0201                16.7616

                      4                      5                      6
                     A"                     A'                     A"
 Frequencies --    376.2974               485.7693               499.1743
 Red. masses --     12.0000                12.0000                12.0000
 Frc consts  --      1.0011                 1.6684                 1.7617
 IR Inten    --      0.0000                14.1519                 0.0343

                      7                      8                      9
                     A"                     A'                     A'
 Frequencies --    500.5272               574.1068              1017.1488
 Red. masses --     12.0000                12.0000                12.0000
 Frc consts  --      1.7713                 2.3303                 7.3148
 IR Inten    --      0.4749                 1.7765                 1.6327

                     10                     11                     12
                     A'                     A'                     A'
 Frequencies --   1038.2421              1225.8912              1341.9298
 Red. masses --     12.0000                12.0000                12.0000
 Frc consts  --      7.6213                10.6252                12.7318
 IR Inten    --     11.8480                 0.7890                13.8569

                     13                     14                     15
                     A'                     A'                     A'
 Frequencies --   1494.9019              1706.9008              1893.9461
 Red. masses --     12.0000                12.0000                12.0000
 Frc consts  --     15.8000                20.5991                25.3610
 IR Inten    --      0.7264               113.5867                 4.5886

 - Thermochemistry -
 -------------------
 Temperature   298.150 Kelvin.  Pressure   1.00000 Atm.
 Atom     1 has atomic number  6 and mass  12.00000

 Molecular mass:    84.00000 amu.
 Principal axes and moments of inertia in atomic units:
                           1         2         3
     Eigenvalues --   292.99161 402.14421 695.13582
           X            0.99988   0.01528   0.00000
           Y           -0.01528   0.99988   0.00000
           Z           -0.00000   0.00000   1.00000
 This molecule is an asymmetric top.
 Rotational symmetry number  1.
 Rotational temperatures (Kelvin)      0.29562     0.21538     0.12460
 Rotational constants (GHZ):           6.15970     4.48780     2.59624
 Zero-point vibrational energy      76601.1 (Joules/Mol)
                                   18.30811 (Kcal/Mol)
 Warning -- explicit consideration of   8 degrees of freedom as
           vibrations may cause significant error
 Vibrational temperatures:     76.34   419.91   441.65   541.41   698.91
          (Kelvin)            718.20   720.15   826.01  1463.45  1493.80
                             1763.78  1930.74  2150.83  2455.85  2724.96

 Zero-point correction=                           0.029176 (Hartree/Particle)
 Thermal correction to Energy=                    0.034969
 Thermal correction to Enthalpy=                  0.035913
 Thermal correction to Gibbs Free Energy=        -0.001451
 Sum of electronic and zero-point Energies=           -266.370095
 Sum of electronic and thermal Energies=              -266.364302
 Sum of electronic and thermal Enthalpies=            -266.363358
 Sum of electronic and thermal Free Energies=         -266.400722

                     E (Thermal)             CV                S
                      KCal/Mol        Cal/Mol-Kelvin    Cal/Mol-Kelvin
 Total                   21.943             18.821             78.639
 Electronic               0.000              0.000              2.183
 Translational            0.889              2.981             39.198
 Rotational               0.889              2.981             25.907
 Vibrational             20.166             12.859             11.350
 Vibration     1          0.596              1.976              4.700
 Vibration     2          0.687              1.689              1.463
 Vibration     3          0.697              1.660              1.379
 Vibration     4          0.747              1.521              1.054
 Vibration     5          0.842              1.282              0.695
 Vibration     6          0.855              1.252              0.660
 Vibration     7          0.856              1.249              0.657
 Vibration     8          0.930              1.087              0.496

 Normal termination of Gaussian 09 at Sun Jun 19 01:48:15 2016.
