 Gaussian 09, Revision E.01,
 Gaussian 09:  EM64L-G09RevE.01 30-Nov-2015

 -----------------------------------------
 #p b3lyp/6-311+G(3df) freq symmetry=Loose
 -----------------------------------------

 ---------
 b3lyp opt
 ---------
 Symbolic Z-matrix:
 Charge =  1 Multiplicity = 2

                         Standard orientation:
 ---------------------------------------------------------------------
 Center     Atomic      Atomic             Coordinates (Angstroms)
 Number     Number       Type             X           Y           Z
 ---------------------------------------------------------------------
      1          6           0        0.001387   -0.137007    3.840105
      2          6           0       -0.001036    0.083789    2.550330
      3          6           0       -0.000352    0.042213    1.275141
      4          6           0        0.000000    0.021981    0.000000
      5          6           0       -0.000352    0.042213   -1.275141
      6          6           0       -0.001036    0.083789   -2.550330
      7          6           0        0.001387   -0.137007   -3.840105
 ---------------------------------------------------------------------

 SCF Done:  E(UB3LYP) =  -266.072816494     A.U. after   18 cycles

 The electronic state is 2-A'.
 Alpha  occ. eigenvalues --  -10.51365 -10.51364 -10.49918 -10.49917 -10.48892
 Alpha  occ. eigenvalues --  -10.45273 -10.45270  -1.10644  -1.06862  -1.02559
 Alpha  occ. eigenvalues --   -0.96716  -0.90553  -0.86079  -0.65762  -0.65105
 Alpha  occ. eigenvalues --   -0.60017  -0.59072  -0.54481  -0.54022  -0.52195
 Alpha  occ. eigenvalues --   -0.51125
 Alpha virt. eigenvalues --   -0.38680  -0.38375  -0.27631  -0.26630  -0.16298
 Alpha virt. eigenvalues --   -0.15767  -0.14099  -0.11120  -0.09889  -0.09708
 Alpha virt. eigenvalues --   -0.08295  -0.06209  -0.06068  -0.04712  -0.04573

  Beta  occ. eigenvalues --  -10.51661 -10.51659 -10.49494 -10.49494 -10.48381
  Beta  occ. eigenvalues --  -10.44862 -10.44860  -1.10167  -1.06304  -1.00863
  Beta  occ. eigenvalues --   -0.95810  -0.89835  -0.85679  -0.65073  -0.64385
  Beta  occ. eigenvalues --   -0.58932  -0.58092  -0.52905  -0.52177  -0.50325
  Beta virt. eigenvalues --   -0.44141  -0.38322  -0.36592  -0.26108  -0.24953
  Beta virt. eigenvalues --   -0.15710  -0.14489  -0.13706  -0.10850  -0.09744
  Beta virt. eigenvalues --   -0.09693  -0.07798  -0.06064  -0.06044  -0.04592

 Mulliken charges and spin densities:
               1          2
     1  C   -0.399042   0.284092
     2  C    1.240045   0.197138
     3  C   -0.197451  -0.027023
     4  C   -0.287105   0.091586
     5  C   -0.197451  -0.027023
     6  C    1.240045   0.197138
     7  C   -0.399042   0.284092
 Sum of Mulliken charges =   1.00000   1.00000

 Dipole moment (field-independent basis, Debye):
    X=             -0.0072    Y=              0.6324    Z=              0.0000  Tot=              0.6325
 Quadrupole moment (field-independent basis, Debye-Ang):
   XX=            -35.7674   YY=            -34.6166   ZZ=            -13.2468
   XY=             -0.0140   XZ=              0.0000   YZ=              0.0000

  Exact polarizability:  48.421   0.105  39.688   0.000   0.000 327.240
 Approx polarizability:  57.789  -0.008  58.634   0.000  -0.000 932.067

                      1                      2                      3
                     A'                     A"                     A'
 Frequencies --     71.8711               118.4990               134.5979
 Red. masses --     12.0000                12.0000                12.0000
 Frc consts  --      0.0365                 0.0993                 0.1281
 IR Inten    --      3.7394                42.7348                 9.4165

                      4                      5                      6
                     A"                     A'                     A"
 Frequencies --    166.0161               244.7539               429.8364
 Red. masses --     12.0000                12.0000                12.0000
 Frc consts  --      0.1949                 0.4235                 1.3063
 IR Inten    --      0.0000                 4.8277                79.9234

                      7                      8                      9
                     A"                     A'                     A'
 Frequencies --    529.7106               584.2579               601.4104
 Red. masses --     12.0000                12.0000                12.0000
 Frc consts  --      1.9838                 2.4135                 2.5573
 IR Inten    --      0.0000                 0.0066                 0.5655

                     10                     11                     12
                     A'                     A"                     A'
 Frequencies --    633.8063              1073.8649              1472.2945
 Red. masses --     12.0000                12.0000                12.0000
 Frc consts  --      2.8402                 8.1532                15.3257
 IR Inten    --      0.1044                50.0922                13.2027

                     13                     14                     15
                     A"                     A"                     A'
 Frequencies --   1592.7501              1890.9011              2036.9865
 Red. masses --     12.0000                12.0000                12.0000
 Frc consts  --     17.9360                25.2795                29.3365
 IR Inten    --     17.9625                48.7458                23.3596

 - Thermochemistry -
 -------------------
 Temperature   298.150 Kelvin.  Pressure   1.00000 Atm.
 Atom     1 has atomic number  6 and mass  12.00000

 Molecular mass:    84.00000 amu.
 Principal axes and moments of inertia in atomic units:
                           1         2         3
     Eigenvalues --     2.384161960.649401963.03355
           X            0.00000  -0.01049   0.99995
           Y            0.00000   0.99995   0.01049
           Z            1.00000  -0.00000   0.00000
 This molecule is an asymmetric top.
 Rotational symmetry number  1.
 Rotational temperatures (Kelvin)     36.32883     0.04418     0.04412
 Rotational constants (GHZ):         756.97090     0.92048     0.91936
 Zero-point vibrational energy      69273.1 (Joules/Mol)
                                   16.55667 (Kcal/Mol)
 Warning -- explicit consideration of   9 degrees of freedom as
           vibrations may cause significant error
 Vibrational temperatures:    103.41   170.49   193.66   238.86   352.15
          (Kelvin)            618.44   762.13   840.62   865.29   911.90
                             1545.05  2118.30  2291.61  2720.58  2930.77

 Zero-point correction=                           0.026385 (Hartree/Particle)
 Thermal correction to Energy=                    0.033480
 Thermal correction to Enthalpy=                  0.034424
 Thermal correction to Gibbs Free Energy=        -0.004310
 Sum of electronic and zero-point Energies=           -266.046432
 Sum of electronic and thermal Energies=              -266.039336
 Sum of electronic and thermal Enthalpies=            -266.038392
 Sum of electronic and thermal Free Energies=         -266.077126

                     E (Thermal)             CV                S
                      KCal/Mol        Cal/Mol-Kelvin    Cal/Mol-Kelvin
 Total                   21.009             21.550             81.523
 Electronic               0.000              0.000              1.377
 Translational            0.889              2.981             39.198
 Rotational               0.889              2.981             23.732
 Vibrational             19.232             15.589             17.214
 Vibration     1          0.598              1.967              4.101
 Vibration     2          0.609              1.934              3.125
 Vibration     3          0.613              1.919              2.879
 Vibration     4          0.624              1.884              2.480
 Vibration     5          0.660              1.771              1.768
 Vibration     6          0.791              1.405              0.859
 Vibration     7          0.885              1.184              0.588
 Vibration     8          0.941              1.065              0.478
 Vibration     9          0.960              1.029              0.447

 Normal termination of Gaussian 09 at Tue Nov  1 19:46:13 2016.
