 Gaussian 09, Revision E.01,
 Gaussian 09:  EM64L-G09RevE.01 30-Nov-2015

 -----------------------------------------
 #p b3lyp/6-311+G(3df) freq symmetry=Loose
 -----------------------------------------

 ---------
 b3lyp opt
 ---------
 Symbolic Z-matrix:
 Charge =  1 Multiplicity = 4

                         Standard orientation:
 ---------------------------------------------------------------------
 Center     Atomic      Atomic             Coordinates (Angstroms)
 Number     Number       Type             X           Y           Z
 ---------------------------------------------------------------------
      1          6           0        0.000000    0.000000    3.904161
      2          6           0        0.000000    0.000000    2.556704
      3          6           0        0.000000    0.000000    1.285356
      4          6           0       -0.000000   -0.000000    0.000000
      5          6           0        0.000000    0.000000   -1.285356
      6          6           0        0.000000    0.000000   -2.556704
      7          6           0        0.000000    0.000000   -3.904161
 ---------------------------------------------------------------------

 SCF Done:  E(UB3LYP) =  -266.015189232     A.U. after   14 cycles

 Unable to determine electronic state:  an orbital has unidentified symmetry.
 Alpha  occ. eigenvalues --  -10.52694 -10.49494 -10.49493 -10.48857 -10.48849
 Alpha  occ. eigenvalues --  -10.48159 -10.48157  -1.11434  -1.07393  -1.03483
 Alpha  occ. eigenvalues --   -0.97381  -0.91243  -0.86578  -0.66956  -0.66222
 Alpha  occ. eigenvalues --   -0.61130  -0.60205  -0.54312  -0.53695  -0.53653
 Alpha  occ. eigenvalues --   -0.53374  -0.44246
 Alpha virt. eigenvalues --   -0.38430  -0.30443  -0.28808  -0.17176  -0.16155
 Alpha virt. eigenvalues --   -0.16024  -0.12210  -0.10138  -0.09991  -0.08325
 Alpha virt. eigenvalues --   -0.06346  -0.06325  -0.05585  -0.05273  -0.04823

  Beta  occ. eigenvalues --  -10.51720 -10.48817 -10.48809 -10.48431 -10.48430
  Beta  occ. eigenvalues --  -10.47484 -10.47482  -1.09291  -1.05398  -0.99730
  Beta  occ. eigenvalues --   -0.94322  -0.89027  -0.85254  -0.63857  -0.62948
  Beta  occ. eigenvalues --   -0.57357  -0.56421  -0.51550  -0.51523
  Beta virt. eigenvalues --   -0.44432  -0.43826  -0.35762  -0.34169  -0.25238
  Beta virt. eigenvalues --   -0.24137  -0.15831  -0.13400  -0.12527  -0.11896
  Beta virt. eigenvalues --   -0.09863  -0.09650  -0.07467  -0.06064  -0.05758

 Mulliken charges and spin densities:
               1          2
     1  C   -0.506872   0.551523
     2  C    1.413560   0.509063
     3  C   -0.230876   0.339900
     4  C   -0.351625   0.199029
     5  C   -0.230876   0.339900
     6  C    1.413560   0.509063
     7  C   -0.506872   0.551523
 Sum of Mulliken charges =   1.00000   3.00000

 Dipole moment (field-independent basis, Debye):
    X=              0.0000    Y=             -0.0000    Z=             -0.0000  Tot=              0.0000
 Quadrupole moment (field-independent basis, Debye-Ang):
   XX=            -35.8923   YY=            -34.2673   ZZ=            -17.8820
   XY=             -0.0000   XZ=              0.0000   YZ=              0.0000

  Exact polarizability:  43.391  -0.000-481.868  -0.000   0.000 268.960
 Approx polarizability:  57.865   0.000  60.174  -0.000   0.000 728.634

                      1                      2                      3
                     ?A                     ?A                     ?B
 Frequencies --     69.3281                80.8271               145.3833
 Red. masses --     12.0000                12.0000                12.0000
 Frc consts  --      0.0340                 0.0462                 0.1494
 IR Inten    --      5.0473                 2.4141                 0.0000

                      4                      5                      6
                     ?B                     ?A                     ?B
 Frequencies --    248.1106               268.5887               317.7801
 Red. masses --     12.0000                12.0000                12.0000
 Frc consts  --      0.4352                 0.5100                 0.7140
 IR Inten    --      0.0000                30.7591                 0.0000

                      7                      8                      9
                     ?A                     SGG                    ?A
 Frequencies --    562.3135               569.0146               570.0296
 Red. masses --     12.0000                12.0000                12.0000
 Frc consts  --      2.2356                 2.2892                 2.2973
 IR Inten    --     20.7428                 0.0000                13.7209

                     10                     11                     12
                     SGU                    SGG                    SGU
 Frequencies --    984.6267              1367.6334              1712.9045
 Red. masses --     12.0000                12.0000                12.0000
 Frc consts  --      6.8545                13.2242                20.7442
 IR Inten    --    317.3748                 0.0000               640.9777

                     13                     14                     15
                     SGU                    SGG                    ?B
 Frequencies --   1874.2923              2006.1253              2377.0791
 Red. masses --     12.0000                12.0000                12.0000
 Frc consts  --     24.8374                28.4543                39.9502
 IR Inten    --    651.0708                 0.0000                 0.0000

                     16
                     ?A
 Frequencies --   4015.4030
 Red. masses --     12.0000
 Frc consts  --    113.9960
 IR Inten    -- 303256.9137

 - Thermochemistry -
 -------------------
 Temperature   298.150 Kelvin.  Pressure   1.00000 Atm.
 Atom     1 has atomic number  6 and mass  12.00000

 Molecular mass:    84.00000 amu.
 Principal axes and moments of inertia in atomic units:
                           1         2         3
     Eigenvalues --     0.000002008.196582008.19658
           X           -0.00000   1.00000   0.00000
           Y           -0.00000   0.00000   1.00000
           Z            1.00000   0.00000   0.00000
 This molecule is a prolate symmetric top.
 Rotational symmetry number  2.
 Warning -- assumption of classical behavior for rotation
           may cause significant error
 Rotational temperature (Kelvin)      0.04313
 Rotational constant (GHZ):           0.898688
 Zero-point vibrational energy     102696.1 (Joules/Mol)
                                   24.54495 (Kcal/Mol)
 Warning -- explicit consideration of   9 degrees of freedom as
           vibrations may cause significant error
 Vibrational temperatures:     99.75   116.29   209.17   356.98   386.44
          (Kelvin)            457.21   809.04   818.68   820.14  1416.66
                             1967.72  2464.48  2696.69  2886.36  3420.08
                             5777.26

 Zero-point correction=                           0.039115 (Hartree/Particle)
 Thermal correction to Energy=                    0.045630
 Thermal correction to Enthalpy=                  0.046575
 Thermal correction to Gibbs Free Energy=         0.009877
 Sum of electronic and zero-point Energies=           -265.976074
 Sum of electronic and thermal Energies=              -265.969559
 Sum of electronic and thermal Enthalpies=            -265.968615
 Sum of electronic and thermal Free Energies=         -266.005312

                     E (Thermal)             CV                S
                      KCal/Mol        Cal/Mol-Kelvin    Cal/Mol-Kelvin
 Total                   28.634             19.831             77.236
 Electronic               0.000              0.000              2.755
 Translational            0.889              2.981             39.198
 Rotational               0.592              1.987             18.179
 Vibrational             27.152             14.863             17.104
 Vibration     1          0.598              1.969              4.172
 Vibration     2          0.600              1.962              3.871
 Vibration     3          0.617              1.908              2.732
 Vibration     4          0.662              1.766              1.744
 Vibration     5          0.673              1.731              1.605
 Vibration     6          0.704              1.640              1.322
 Vibration     7          0.918              1.113              0.519
 Vibration     8          0.925              1.098              0.506
 Vibration     9          0.926              1.096              0.504

 Optimization completed.
    -- Stationary point found.
 Normal termination of Gaussian 09 at Tue Nov  1 20:16:25 2016.
