 Gaussian 09, Revision E.01,
 Gaussian 09:  EM64L-G09RevE.01 30-Nov-2015

 -----------------------------------------
 #p b3lyp/6-311+G(3df) freq symmetry=Loose
 -----------------------------------------

 ---------
 b3lyp opt
 ---------
 Symbolic Z-matrix:
 Charge =  2 Multiplicity = 1

                         Standard orientation:
 ---------------------------------------------------------------------
 Center     Atomic      Atomic             Coordinates (Angstroms)
 Number     Number       Type             X           Y           Z
 ---------------------------------------------------------------------
      1          6           0       -1.917304   -0.002835    0.000839
      2          6           0        0.471897   -0.777958   -0.000725
      3          6           0       -0.935147   -0.840133    0.000167
      4          6           0       -0.937341    0.837043   -0.000443
      5          6           0        0.470020    0.778259   -0.001533
      6          6           0        1.427653   -1.770819    0.000527
      7          6           0        1.420222    1.776443    0.001168
 ---------------------------------------------------------------------

 SCF Done:  E(RB3LYP) =  -265.335647048     A.U. after   14 cycles

 The electronic state is 1-A.
 Alpha  occ. eigenvalues --  -10.81856 -10.81851 -10.78117 -10.78115 -10.76974
 Alpha  occ. eigenvalues --  -10.72831 -10.72812  -1.49955  -1.32156  -1.26385
 Alpha  occ. eigenvalues --   -1.16249  -1.12095  -1.00993  -0.98914  -0.94634
 Alpha  occ. eigenvalues --   -0.86992  -0.79027  -0.77130  -0.76810  -0.76663
 Alpha virt. eigenvalues --   -0.65776  -0.61473  -0.60060  -0.56829  -0.54010
 Alpha virt. eigenvalues --   -0.53386  -0.40342  -0.37470  -0.32280  -0.27814
 Alpha virt. eigenvalues --   -0.26314  -0.26181  -0.24177  -0.23773  -0.21222

 Mulliken charges:
               1
     1  C   -0.113513
     2  C    0.731999
     3  C    0.554167
     4  C    0.552566
     5  C    0.727136
     6  C   -0.226732
     7  C   -0.225622
 Sum of Mulliken charges =   2.00000

 Dipole moment (field-independent basis, Debye):
    X=             -1.3670    Y=             -0.0049    Z=              0.0002  Tot=              1.3670
 Quadrupole moment (field-independent basis, Debye-Ang):
   XX=            -15.2557   YY=            -18.0596   ZZ=            -33.6309
   XY=              0.0049   XZ=             -0.0046   YZ=             -0.0025

  Exact polarizability:  85.759   0.025  71.166  -0.001   0.001  33.206
 Approx polarizability: 238.754   0.146 152.962  -0.009   0.003  51.620

                      1                      2                      3
                      A                      A                      A
 Frequencies --    145.9056               173.0698               197.2928
 Red. masses --     12.0000                12.0000                12.0000
 Frc consts  --      0.1505                 0.2118                 0.2752
 IR Inten    --      0.0000                 7.6858                 0.0022

                      4                      5                      6
                      A                      A                      A
 Frequencies --    262.9259               427.5103               559.7677
 Red. masses --     12.0000                12.0000                12.0000
 Frc consts  --      0.4888                 1.2922                 2.2154
 IR Inten    --      7.6283                 5.1127                24.1454

                      7                      8                      9
                      A                      A                      A
 Frequencies --    587.3299               604.0657               707.3404
 Red. masses --     12.0000                12.0000                12.0000
 Frc consts  --      2.4389                 2.5799                 3.5374
 IR Inten    --      0.0009                 5.9126                 3.0372

                     10                     11                     12
                      A                      A                      A
 Frequencies --    940.5892              1010.3926              1480.2784
 Red. masses --     12.0000                12.0000                12.0000
 Frc consts  --      6.2551                 7.2179                15.4924
 IR Inten    --      0.3162                 0.1949               406.9751

                     13                     14                     15
                      A                      A                      A
 Frequencies --   1544.2479              1591.7561              1825.7576
 Red. masses --     12.0000                12.0000                12.0000
 Frc consts  --     16.8603                17.9137                23.5677
 IR Inten    --    346.9888               333.5928               295.0639

 - Thermochemistry -
 -------------------
 Temperature   298.150 Kelvin.  Pressure   1.00000 Atm.
 Atom     1 has atomic number  6 and mass  12.00000

 Molecular mass:    84.00000 amu.
 Principal axes and moments of inertia in atomic units:
                           1         2         3
     Eigenvalues --   381.77249 425.44218 807.21421
           X            1.00000   0.00000   0.00000
           Y           -0.00000   1.00000   0.00000
           Z           -0.00000  -0.00000   1.00000
 This molecule is an asymmetric top.
 Rotational symmetry number  1.
 Rotational temperatures (Kelvin)      0.22687     0.20359     0.10730
 Rotational constants (GHZ):           4.72727     4.24204     2.23576
 Zero-point vibrational energy      72124.2 (Joules/Mol)
                                   17.23811 (Kcal/Mol)
 Warning -- explicit consideration of   8 degrees of freedom as
           vibrations may cause significant error
 Vibrational temperatures:    209.93   249.01   283.86   378.29   615.09
          (Kelvin)            805.38   845.04   869.11  1017.70  1353.30
                             1453.73  2129.79  2221.83  2290.18  2626.85

 Zero-point correction=                           0.027471 (Hartree/Particle)
 Thermal correction to Energy=                    0.033589
 Thermal correction to Enthalpy=                  0.034533
 Thermal correction to Gibbs Free Energy=        -0.002217
 Sum of electronic and zero-point Energies=           -265.308176
 Sum of electronic and thermal Energies=              -265.302058
 Sum of electronic and thermal Enthalpies=            -265.301114
 Sum of electronic and thermal Free Energies=         -265.337864

                     E (Thermal)             CV                S
                      KCal/Mol        Cal/Mol-Kelvin    Cal/Mol-Kelvin
 Total                   21.077             19.789             77.346
 Electronic               0.000              0.000              0.000
 Translational            0.889              2.981             39.198
 Rotational               0.889              2.981             26.375
 Vibrational             19.300             13.828             11.773
 Vibration     1          0.617              1.907              2.725
 Vibration     2          0.627              1.876              2.402
 Vibration     3          0.637              1.844              2.158
 Vibration     4          0.670              1.741              1.642
 Vibration     5          0.789              1.410              0.867
 Vibration     6          0.915              1.118              0.524
 Vibration     7          0.944              1.059              0.472
 Vibration     8          0.963              1.023              0.443

 Normal termination of Gaussian 09 at Tue Jul  5 23:18:41 2016.
