 Gaussian 09, Revision E.01,
 Gaussian 09:  EM64L-G09RevE.01 30-Nov-2015

 -----------------------------------------
 #p b3lyp/6-311+G(3df) freq symmetry=Loose
 -----------------------------------------

 ---------
 b3lyp opt
 ---------
 Symbolic Z-matrix:
 Charge =  2 Multiplicity = 1

                         Standard orientation:
 ---------------------------------------------------------------------
 Center     Atomic      Atomic             Coordinates (Angstroms)
 Number     Number       Type             X           Y           Z
 ---------------------------------------------------------------------
      1          6           0        0.000000   -0.628715   -1.154847
      2          6           0        0.000000    0.628715   -1.154847
      3          6           0       -0.000000   -0.000000    0.494443
      4          6           0        0.000000    1.333894    0.107277
      5          6           0        0.000000    2.543052    0.800348
      6          6           0       -0.000000   -2.543052    0.800348
      7          6           0       -0.000000   -1.333894    0.107277
 ---------------------------------------------------------------------

 SCF Done:  E(RB3LYP) =  -265.326985349     A.U. after   12 cycles

 The electronic state is 1-A1.
 Alpha  occ. eigenvalues --  -10.82974 -10.79472 -10.79472 -10.75488 -10.75337
 Alpha  occ. eigenvalues --  -10.73956 -10.73954  -1.49361  -1.32023  -1.24764
 Alpha  occ. eigenvalues --   -1.15237  -1.15173  -1.00400  -0.98440  -0.93868
 Alpha  occ. eigenvalues --   -0.84764  -0.79398  -0.77731  -0.76641  -0.74099
 Alpha virt. eigenvalues --   -0.62666  -0.61851  -0.61036  -0.54516  -0.54083
 Alpha virt. eigenvalues --   -0.51563  -0.38941  -0.37150  -0.31846  -0.29531
 Alpha virt. eigenvalues --   -0.27765  -0.26068  -0.24704  -0.23201  -0.22914

 Mulliken charges:
               1
     1  C    0.170516
     2  C    0.170516
     3  C    0.727258
     4  C    0.718114
     5  C   -0.252259
     6  C   -0.252259
     7  C    0.718114
 Sum of Mulliken charges =   2.00000

 Dipole moment (field-independent basis, Debye):
    X=             -0.0000    Y=              0.0000    Z=             -0.1217  Tot=              0.1217
 Quadrupole moment (field-independent basis, Debye-Ang):
   XX=            -33.5917   YY=             -4.7747   ZZ=            -24.0637
   XY=              0.0000   XZ=              0.0000   YZ=              0.0000

  Exact polarizability:  33.469  -0.000 105.547   0.000   0.000  55.317
 Approx polarizability:  51.651   0.000 248.929  -0.000  -0.000 123.623

                      1                      2                      3
                     A1                     B1                     A2
 Frequencies --    144.8472               155.9620               203.7918
 Red. masses --     12.0000                12.0000                12.0000
 Frc consts  --      0.1483                 0.1720                 0.2936
 IR Inten    --      8.0733                 0.0001                 0.0000

                      4                      5                      6
                     B2                     A1                     A2
 Frequencies --    226.0251               331.6547               360.6858
 Red. masses --     12.0000                12.0000                12.0000
 Frc consts  --      0.3612                 0.7777                 0.9198
 IR Inten    --      0.4821                 0.1775                 0.0000

                      7                      8                      9
                     B1                     B2                     A1
 Frequencies --    515.4415               594.0463               768.0188
 Red. masses --     12.0000                12.0000                12.0000
 Frc consts  --      1.8784                 2.4950                 4.1704
 IR Inten    --      0.0803                81.7758                 9.4120

                     10                     11                     12
                     A1                     B2                     B2
 Frequencies --    852.2274               874.2964              1281.7007
 Red. masses --     12.0000                12.0000                12.0000
 Frc consts  --      5.1350                 5.4044                11.6146
 IR Inten    --     51.6278               265.1173                 0.3151

                     13                     14                     15
                     A1                     B2                     A1
 Frequencies --   1563.6021              1634.9009              1886.3493
 Red. masses --     12.0000                12.0000                12.0000
 Frc consts  --     17.2856                18.8979                25.1580
 IR Inten    --    123.3375              1089.3934                17.0065

 - Thermochemistry -
 -------------------
 Temperature   298.150 Kelvin.  Pressure   1.00000 Atm.
 Atom     1 has atomic number  6 and mass  12.00000

 Molecular mass:    84.00000 amu.
 Principal axes and moments of inertia in atomic units:
                           1         2         3
     Eigenvalues --   180.66512 740.63913 921.30425
           X            0.00000   0.00000   1.00000
           Y            1.00000   0.00000   0.00000
           Z           -0.00000   1.00000   0.00000
 This molecule is an asymmetric top.
 Rotational symmetry number  2.
 Rotational temperatures (Kelvin)      0.47942     0.11694     0.09401
 Rotational constants (GHZ):           9.98943     2.43673     1.95890
 Zero-point vibrational energy      68148.6 (Joules/Mol)
                                   16.28790 (Kcal/Mol)
 Warning -- explicit consideration of   8 degrees of freedom as
           vibrations may cause significant error
 Vibrational temperatures:    208.40   224.39   293.21   325.20   477.18
          (Kelvin)            518.95   741.60   854.70  1105.01  1226.16
                             1257.92  1844.08  2249.67  2352.25  2714.03

 Zero-point correction=                           0.025956 (Hartree/Particle)
 Thermal correction to Energy=                    0.032490
 Thermal correction to Enthalpy=                  0.033434
 Thermal correction to Gibbs Free Energy=        -0.003407
 Sum of electronic and zero-point Energies=           -265.301029
 Sum of electronic and thermal Energies=              -265.294495
 Sum of electronic and thermal Enthalpies=            -265.293551
 Sum of electronic and thermal Free Energies=         -265.330392

                     E (Thermal)             CV                S
                      KCal/Mol        Cal/Mol-Kelvin    Cal/Mol-Kelvin
 Total                   20.388             20.919             77.538
 Electronic               0.000              0.000              0.000
 Translational            0.889              2.981             39.198
 Rotational               0.889              2.981             24.936
 Vibrational             18.610             14.957             13.403
 Vibration     1          0.616              1.908              2.739
 Vibration     2          0.620              1.896              2.598
 Vibration     3          0.639              1.835              2.099
 Vibration     4          0.650              1.801              1.910
 Vibration     5          0.714              1.612              1.252
 Vibration     6          0.735              1.553              1.119
 Vibration     7          0.870              1.216              0.621
 Vibration     8          0.952              1.044              0.460

 Optimization completed.
    -- Stationary point found.

 1\1\GINC-BELVIS17\Freq\RB3LYP\6-311+G(3df)\C7(2+)\ROOT\23-Oct-2016\0\\
 #p b3lyp/6-311+G(3df) freq symmetry=Loose\\b3lyp opt\\2,1\C,1.20536885
 61,-0.4218798979,0.3131411756\C,0.9104585963,0.778951964,0.5415284906\
 C,-0.4529414912,-0.0764394816,-0.1829616837\C,-0.411116562,1.257269914
 ,0.2025791819\C,-1.329602752,2.30485532,0.1657375819\C,-0.1367376939,-
 2.5523184158,-0.7580527529\C,0.2145710469,-1.2904394016,-0.2819719932\
 \Version=EM64L-G09RevE.01\State=1-A1\HF=-265.3269853\RMSD=9.838e-09\RM
 SF=2.240e-05\ZeroPoint=0.0259564\Thermal=0.0324899\Dipole=0.0438566,0.

 Normal termination of Gaussian 09 at Sun Oct 23 12:35:25 2016.
