 Gaussian 09, Revision E.01,
 Gaussian 09:  EM64L-G09RevE.01 30-Nov-2015

 -----------------------------------------
 #p b3lyp/6-311+G(3df) freq symmetry=Loose
 -----------------------------------------

 ---------
 b3lyp opt
 ---------
 Symbolic Z-matrix:
 Charge =  2 Multiplicity = 1

                         Standard orientation:
 ---------------------------------------------------------------------
 Center     Atomic      Atomic             Coordinates (Angstroms)
 Number     Number       Type             X           Y           Z
 ---------------------------------------------------------------------
      1          6           0       -1.429495   -0.094988    0.000279
      2          6           0        1.260773    0.144335    0.000315
      3          6           0        1.215519    1.534579   -0.000044
      4          6           0       -0.091346   -0.406347    0.000799
      5          6           0       -2.374464    0.937803   -0.000478
      6          6           0        2.429340   -0.619431   -0.000549
      7          6           0       -1.010328   -1.495951   -0.000322
 ---------------------------------------------------------------------

 SCF Done:  E(RB3LYP) =  -265.275279464     A.U. after   17 cycles

 The electronic state is 1-A.
 Alpha  occ. eigenvalues --  -10.82083 -10.81744 -10.79007 -10.77261 -10.72507
 Alpha  occ. eigenvalues --  -10.71535 -10.71411  -1.42359  -1.34467  -1.20961
 Alpha  occ. eigenvalues --   -1.16890  -1.10055  -0.95652  -0.89512  -0.86364
 Alpha  occ. eigenvalues --   -0.81586  -0.81583  -0.78735  -0.76643  -0.71868
 Alpha virt. eigenvalues --   -0.63588  -0.63112  -0.61546  -0.59404  -0.57186
 Alpha virt. eigenvalues --   -0.51449  -0.42732  -0.37653  -0.33218  -0.27697
 Alpha virt. eigenvalues --   -0.26608  -0.25907  -0.25428  -0.23404  -0.22672

 Mulliken charges:
               1
     1  C    0.467150
     2  C    1.371765
     3  C    0.016324
     4  C    0.272321
     5  C   -0.207285
     6  C    0.085995
     7  C   -0.006270
 Sum of Mulliken charges =   2.00000

 Dipole moment (field-independent basis, Debye):
    X=              1.7337    Y=              1.3180    Z=              0.0011  Tot=              2.1778
 Quadrupole moment (field-independent basis, Debye-Ang):
   XX=             -3.4936   YY=            -28.4048   ZZ=            -31.6906
   XY=              0.0824   XZ=             -0.0019   YZ=             -0.0008

  Exact polarizability: 103.722  -3.662  77.527   0.001   0.003  37.946
 Approx polarizability: 222.932 -39.022 230.743   0.006   0.012  63.010

                      1                      2                      3
                      A                      A                      A
 Frequencies --     74.9977                78.1868               178.8500
 Red. masses --     12.0000                12.0000                12.0000
 Frc consts  --      0.0398                 0.0432                 0.2262
 IR Inten    --      0.4709                 4.5343                 4.0439

                      4                      5                      6
                      A                      A                      A
 Frequencies --    224.2568               271.1651               280.0759
 Red. masses --     12.0000                12.0000                12.0000
 Frc consts  --      0.3556                 0.5199                 0.5546
 IR Inten    --     11.6053                 3.6939                 0.1263

                      7                      8                      9
                      A                      A                      A
 Frequencies --    418.7249               505.0886               667.4242
 Red. masses --     12.0000                12.0000                12.0000
 Frc consts  --      1.2396                 1.8037                 3.1495
 IR Inten    --      7.9986                 2.6141                 7.5456

                     10                     11                     12
                      A                      A                      A
 Frequencies --    788.7614               915.8656              1127.1519
 Red. masses --     12.0000                12.0000                12.0000
 Frc consts  --      4.3987                 5.9305                 8.9825
 IR Inten    --     11.4451                21.7118               336.5151

                     13                     14                     15
                      A                      A                      A
 Frequencies --   1311.5275              1435.8817              1640.0127
 Red. masses --     12.0000                12.0000                12.0000
 Frc consts  --     12.1615                14.5770                19.0163
 IR Inten    --    235.4027               316.3605               690.3626

 - Thermochemistry -
 -------------------
 Temperature   298.150 Kelvin.  Pressure   1.00000 Atm.
 Atom     1 has atomic number  6 and mass  12.00000

 Molecular mass:    84.00000 amu.
 Principal axes and moments of inertia in atomic units:
                           1         2         3
     Eigenvalues --   259.29974 757.610091016.90970
           X            1.00000  -0.00000   0.00000
           Y            0.00000   1.00000   0.00000
           Z           -0.00000  -0.00000   1.00000
 This molecule is an asymmetric top.
 Rotational symmetry number  1.
 Rotational temperatures (Kelvin)      0.33403     0.11433     0.08517
 Rotational constants (GHZ):           6.96006     2.38215     1.77473
 Zero-point vibrational energy      59322.6 (Joules/Mol)
                                   14.17845 (Kcal/Mol)
 Warning -- explicit consideration of   8 degrees of freedom as
           vibrations may cause significant error
 Vibrational temperatures:    107.90   112.49   257.32   322.66   390.15
          (Kelvin)            402.97   602.45   726.71   960.27  1134.85
                             1317.72  1621.72  1886.99  2065.91  2359.61

 Zero-point correction=                           0.022595 (Hartree/Particle)
 Thermal correction to Energy=                    0.029823
 Thermal correction to Enthalpy=                  0.030767
 Thermal correction to Gibbs Free Energy=        -0.008988
 Sum of electronic and zero-point Energies=           -265.252685
 Sum of electronic and thermal Energies=              -265.245457
 Sum of electronic and thermal Enthalpies=            -265.244512
 Sum of electronic and thermal Free Energies=         -265.284268

                     E (Thermal)             CV                S
                      KCal/Mol        Cal/Mol-Kelvin    Cal/Mol-Kelvin
 Total                   18.714             22.249             83.673
 Electronic               0.000              0.000              0.000
 Translational            0.889              2.981             39.198
 Rotational               0.889              2.981             26.793
 Vibrational             16.937             16.287             17.681
 Vibration     1          0.599              1.966              4.018
 Vibration     2          0.599              1.964              3.936
 Vibration     3          0.629              1.868              2.340
 Vibration     4          0.649              1.804              1.924
 Vibration     5          0.675              1.726              1.589
 Vibration     6          0.680              1.710              1.533
 Vibration     7          0.782              1.430              0.896
 Vibration     8          0.860              1.239              0.646

 Optimization completed.
    -- Stationary point found.
 Normal termination of Gaussian 09 at Tue Jul  5 22:51:32 2016.
