 Gaussian 09, Revision C.01,
 Gaussian 09:  AM64L-G09RevC.01 23-Sep-2011

 ---------------------------------------------
 #p b3lyp/6-311++G(3df,2p) freq symmetry=Loose
 ---------------------------------------------

 (Enter /home/nestor/.gaussian09/l101.exe)
 ---------
 b3lyp opt
 ---------
 Charge =  0 Multiplicity = 1

                         Standard orientation:
 ---------------------------------------------------------------------
 Center     Atomic      Atomic             Coordinates (Angstroms)
 Number     Number       Type             X           Y           Z
 ---------------------------------------------------------------------
      1          6           0       -0.783993    1.321380    0.000000
      2          6           0        0.566474    1.618800    0.000000
      3          6           0        0.817239   -2.194532    0.000000
      4          6           0        0.566474   -1.020349    0.753691
      5          6           0        0.332118    0.191534    0.000000
      6          6           0       -2.064786    1.103515    0.000000
      7          6           0        0.566474   -1.020349   -0.753691
 ---------------------------------------------------------------------

 SCF Done:  E(RB3LYP) =  -266.274513482     A.U. after   15 cycles

 The electronic state is 1-A'.
 Alpha  occ. eigenvalues --  -10.35445 -10.31523 -10.31495 -10.30372 -10.29384
 Alpha  occ. eigenvalues --  -10.27687 -10.26203  -1.06243  -0.96263  -0.79080
 Alpha  occ. eigenvalues --   -0.74854  -0.60393  -0.52993  -0.51162  -0.48278
 Alpha  occ. eigenvalues --   -0.41449  -0.38185  -0.37477  -0.35039  -0.30661
 Alpha  occ. eigenvalues --   -0.30211
 Alpha virt. eigenvalues --   -0.19656  -0.15841  -0.12053  -0.05920  -0.04275
 Alpha virt. eigenvalues --    0.01024   0.01199   0.02640   0.03779   0.04026
 Alpha virt. eigenvalues --    0.05434   0.05740   0.06254   0.06660   0.08037

 Mulliken atomic charges:
              1
     1  C    0.967000
     2  C   -0.637768
     3  C   -0.493853
     4  C   -0.126224
     5  C    1.038433
     6  C   -0.621363
     7  C   -0.126224
 Sum of Mulliken atomic charges =   0.00000

 Dipole moment (field-independent basis, Debye):
    X=              0.3194    Y=              1.1615    Z=              0.0000  Tot=              1.2046
 Quadrupole moment (field-independent basis, Debye-Ang):
   XX=            -45.3094   YY=            -49.0131   ZZ=            -39.7442
   XY=              1.6027   XZ=              0.0000   YZ=              0.0000

  Exact polarizability:  85.950 -17.857  88.139   0.000   0.000  56.852
 Approx polarizability: 218.954 -38.343 150.663   0.000   0.000 119.017

                     1                      2                      3
                    A"                     A'                     A'
 Frequencies --   154.5234               155.8912               257.8481
 Red. masses --    12.0000                12.0000                12.0000
 Frc consts  --     0.1688                 0.1718                 0.4701
 IR Inten    --     5.3771                 3.8244                30.9584

                     4                      5                      6
                    A"                     A"                     A'
 Frequencies --   334.5885               359.1436               498.4355
 Red. masses --    12.0000                12.0000                12.0000
 Frc consts  --     0.7915                 0.9119                 1.7565
 IR Inten    --     0.0208                11.4459                84.8558

                     7                      8                      9
                    A"                     A'                     A'
 Frequencies --   569.7017               583.7981               708.2768
 Red. masses --    12.0000                12.0000                12.0000
 Frc consts  --     2.2947                 2.4097                 3.5468
 IR Inten    --    77.7394                50.7304               115.2605

                    10                     11                     12
                    A'                     A"                     A'
 Frequencies --   955.9389               956.8027              1045.5946
 Red. masses --    12.0000                12.0000                12.0000
 Frc consts  --     6.4609                 6.4726                 7.7296
 IR Inten    --     8.4159                 6.1318                43.6509

                    13                     14                     15
                    A'                     A'                     A'
 Frequencies --  1376.9323              1442.0148              1777.9893
 Red. masses --    12.0000                12.0000                12.0000
 Frc consts  --    13.4047                14.7018                22.3506
 IR Inten    --    21.4704               108.6925               491.3214

 - Thermochemistry -
 -------------------
 Temperature   298.150 Kelvin.  Pressure   1.00000 Atm.
 Atom     1 has atomic number  6 and mass  12.00000

 Molecular mass:    84.00000 amu.
 Principal axes and moments of inertia in atomic units:
                           1         2         3
     Eigenvalues --   199.43365 718.05435 820.11790
           X           -0.50619   0.86242   0.00000
           Y            0.86242   0.50619   0.00000
           Z            0.00000   0.00000   1.00000
 This molecule is an asymmetric top.
 Rotational symmetry number  1.
 Rotational temperatures (Kelvin)      0.43430     0.12062     0.10561
 Rotational constants (GHZ):           9.04933     2.51338     2.20059
 Zero-point vibrational energy      66856.2 (Joules/Mol)
                                   15.97901 (Kcal/Mol)
 Warning -- explicit consideration of   8 degrees of freedom as
           vibrations may cause significant error
 Vibrational temperatures:    222.32   224.29   370.99   481.40   516.73
          (Kelvin)            717.14   819.67   839.95  1019.05  1375.38
                             1376.62  1504.38  1981.10  2074.74  2558.13

 Zero-point correction=                           0.025464 (Hartree/Particle)
 Thermal correction to Energy=                    0.031586
 Thermal correction to Enthalpy=                  0.032530
 Thermal correction to Gibbs Free Energy=        -0.004055
 Sum of electronic and zero-point Energies=           -266.249049
 Sum of electronic and thermal Energies=              -266.242927
 Sum of electronic and thermal Enthalpies=            -266.241983
 Sum of electronic and thermal Free Energies=         -266.278568

                     E (Thermal)             CV                S
                      KCal/Mol        Cal/Mol-Kelvin    Cal/Mol-Kelvin
 Total                   19.821             20.316             77.000
 Electronic               0.000              0.000              0.000
 Translational            0.889              2.981             39.198
 Rotational               0.889              2.981             26.266
 Vibrational             18.043             14.355             11.536
 Vibration     1          0.620              1.898              2.616
 Vibration     2          0.620              1.896              2.599
 Vibration     3          0.667              1.750              1.676
 Vibration     4          0.716              1.606              1.238
 Vibration     5          0.734              1.556              1.126
 Vibration     6          0.854              1.253              0.662
 Vibration     7          0.926              1.097              0.505
 Vibration     8          0.941              1.066              0.478

 Optimization completed.
    -- Stationary point found.
 Normal termination of Gaussian 09 at Wed Jul  6 09:07:13 2016.
