 Gaussian 09, Revision E.01,
 Gaussian 09:  EM64L-G09RevE.01 30-Nov-2015

 ---------------------------------------------
 #p b3lyp/6-311++G(3df,2p) freq symmetry=Loose
 ---------------------------------------------

 ---------
 b3lyp opt
 ---------
 Symbolic Z-matrix:
 Charge =  0 Multiplicity = 1

                         Standard orientation:
 ---------------------------------------------------------------------
 Center     Atomic      Atomic             Coordinates (Angstroms)
 Number     Number       Type             X           Y           Z
 ---------------------------------------------------------------------
      1          6           0        1.071867   -0.201023    0.676114
      2          6           0        0.189303   -0.122091   -0.725731
      3          6           0       -1.100754   -0.065719   -0.024140
      4          6           0       -0.019111    0.735816    0.661659
      5          6           0       -2.383605   -0.325404    0.008590
      6          6           0        0.883477    1.190729   -0.483335
      7          6           0        1.358823   -1.212309   -0.113156
 ---------------------------------------------------------------------

 SCF Done:  E(RB3LYP) =  -266.218838073     A.U. after   16 cycles

 The electronic state is 1-A.
 Alpha  occ. eigenvalues --  -10.34677 -10.33215 -10.30264 -10.29774 -10.29720
 Alpha  occ. eigenvalues --  -10.28341 -10.27810  -1.10743  -0.86207  -0.80840
 Alpha  occ. eigenvalues --   -0.70832  -0.68616  -0.54888  -0.48335  -0.43670
 Alpha  occ. eigenvalues --   -0.41761  -0.38152  -0.37328  -0.34555  -0.32844
 Alpha  occ. eigenvalues --   -0.29806
 Alpha virt. eigenvalues --   -0.19929  -0.12742  -0.10603  -0.05892  -0.04971
 Alpha virt. eigenvalues --   -0.00350   0.01125   0.02432   0.03460   0.03893
 Alpha virt. eigenvalues --    0.04991   0.05891   0.06778   0.07184   0.07329

 Mulliken charges:
               1
     1  C    0.238384
     2  C    0.086947
     3  C    0.820427
     4  C   -0.015517
     5  C   -0.427499
     6  C   -0.353104
     7  C   -0.349638
 Sum of Mulliken charges =  -0.00000

 Dipole moment (field-independent basis, Debye):
    X=             -0.4501    Y=              0.3513    Z=              0.9902  Tot=              1.1430
 Quadrupole moment (field-independent basis, Debye-Ang):
   XX=            -48.4459   YY=            -45.0167   ZZ=            -38.0800
   XY=             -0.6171   XZ=              2.5633   YZ=              0.5545

  Exact polarizability:  87.690  -1.766  66.287  -1.936   0.507  54.562
 Approx polarizability: 149.620  -9.198 135.663  -2.483  10.654 118.074

                      1                      2                      3
                      A                      A                      A
 Frequencies --     91.2061               156.8022               184.1603
 Red. masses --     12.0000                12.0000                12.0000
 Frc consts  --      0.0588                 0.1738                 0.2398
 IR Inten    --     10.2812                26.8964                 8.3665

                      4                      5                      6
                      A                      A                      A
 Frequencies --    346.3571               444.8780               562.6035
 Red. masses --     12.0000                12.0000                12.0000
 Frc consts  --      0.8482                 1.3993                 2.2379
 IR Inten    --      8.9561                10.9381                69.7478

                      7                      8                      9
                      A                      A                      A
 Frequencies --    630.2479               660.2026               711.5114
 Red. masses --     12.0000                12.0000                12.0000
 Frc consts  --      2.8084                 3.0817                 3.5793
 IR Inten    --      3.1148                12.6890                 7.0439

                     10                     11                     12
                      A                      A                      A
 Frequencies --    784.9965               935.5343              1007.7905
 Red. masses --     12.0000                12.0000                12.0000
 Frc consts  --      4.3568                 6.1880                 7.1808
 IR Inten    --     10.8879                 2.1415                 7.0711

                     13                     14                     15
                      A                      A                      A
 Frequencies --   1187.6518              1536.5427              1778.7450
 Red. masses --     12.0000                12.0000                12.0000
 Frc consts  --      9.9726                16.6925                22.3696
 IR Inten    --     11.7965                43.9592                99.2282

 - Thermochemistry -
 -------------------
 Temperature   298.150 Kelvin.  Pressure   1.00000 Atm.
 Atom     1 has atomic number  6 and mass  12.00000

 Molecular mass:    84.00000 amu.
 Principal axes and moments of inertia in atomic units:
                           1         2         3
     Eigenvalues --   225.54099 530.25812 612.78387
           X            1.00000   0.00000   0.00000
           Y           -0.00000   1.00000   0.00000
           Z            0.00000  -0.00000   1.00000
 This molecule is an asymmetric top.
 Rotational symmetry number  1.
 Rotational temperatures (Kelvin)      0.38403     0.16334     0.14134
 Rotational constants (GHZ):           8.00183     3.40351     2.94515
 Zero-point vibrational energy      65909.6 (Joules/Mol)
                                   15.75278 (Kcal/Mol)
 Warning -- explicit consideration of   6 degrees of freedom as
           vibrations may cause significant error
 Vibrational temperatures:    131.23   225.60   264.97   498.33   640.08
          (Kelvin)            809.46   906.79   949.88  1023.70  1129.43
                             1346.02  1449.98  1708.76  2210.74  2559.21

 Zero-point correction=                           0.025104 (Hartree/Particle)
 Thermal correction to Energy=                    0.031292
 Thermal correction to Enthalpy=                  0.032236
 Thermal correction to Gibbs Free Energy=        -0.004613
 Sum of electronic and zero-point Energies=           -266.193734
 Sum of electronic and thermal Energies=              -266.187546
 Sum of electronic and thermal Enthalpies=            -266.186602
 Sum of electronic and thermal Free Energies=         -266.223451

                     E (Thermal)             CV                S
                      KCal/Mol        Cal/Mol-Kelvin    Cal/Mol-Kelvin
 Total                   19.636             20.228             77.555
 Electronic               0.000              0.000              0.000
 Translational            0.889              2.981             39.198
 Rotational               0.889              2.981             25.797
 Vibrational             17.858             14.266             12.560
 Vibration     1          0.602              1.955              3.634
 Vibration     2          0.620              1.895              2.588
 Vibration     3          0.631              1.861              2.286
 Vibration     4          0.724              1.583              1.183
 Vibration     5          0.804              1.372              0.811
 Vibration     6          0.918              1.112              0.519

 Normal termination of Gaussian 09 at Sun Jun 19 01:25:22 2016.
