 Gaussian 09, Revision E.01,
 Gaussian 09:  EM64L-G09RevE.01 30-Nov-2015

 ---------------------------------------------
 #p b3lyp/6-311++G(3df,2p) freq symmetry=Loose
 ---------------------------------------------

 ---------
 b3lyp opt
 ---------
 Symbolic Z-matrix:
 Charge =  0 Multiplicity = 1

                         Standard orientation:
 ---------------------------------------------------------------------
 Center     Atomic      Atomic             Coordinates (Angstroms)
 Number     Number       Type             X           Y           Z
 ---------------------------------------------------------------------
      1          6           0        0.000000    2.063857    0.000000
      2          6           0        0.224294    3.332720    0.000000
      3          6           0        1.424795   -2.303218   -0.000000
      4          6           0       -1.199713   -1.643250   -0.000000
      5          6           0       -0.455711   -0.468140   -0.000000
      6          6           0       -0.220402    0.808778    0.000000
      7          6           0        0.226737   -1.790747   -0.000000
 ---------------------------------------------------------------------

 SCF Done:  E(RB3LYP) =  -266.334794984     A.U. after   16 cycles

 The electronic state is 1-A'.
 Alpha  occ. eigenvalues --  -10.32290 -10.30286 -10.30181 -10.28262 -10.27994
 Alpha  occ. eigenvalues --  -10.26255 -10.24023  -0.98573  -0.87772  -0.79580
 Alpha  occ. eigenvalues --   -0.77500  -0.69387  -0.52254  -0.47544  -0.47363
 Alpha  occ. eigenvalues --   -0.40039  -0.39632  -0.34272  -0.34180  -0.31375
 Alpha  occ. eigenvalues --   -0.29319
 Alpha virt. eigenvalues --   -0.20046  -0.19270  -0.12001  -0.05823  -0.00599
 Alpha virt. eigenvalues --    0.00520   0.02234   0.02893   0.04235   0.04565
 Alpha virt. eigenvalues --    0.05480   0.06219   0.06834   0.07050   0.07562

 Mulliken charges:
               1
     1  C    1.396208
     2  C   -0.703995
     3  C   -0.912809
     4  C   -0.452606
     5  C    0.524399
     6  C   -0.578187
     7  C    0.726990
 Sum of Mulliken charges =  -0.00000

 Dipole moment (field-independent basis, Debye):
    X=             -0.8441    Y=             -0.2133    Z=              0.0000  Tot=              0.8706
 Quadrupole moment (field-independent basis, Debye-Ang):
   XX=            -44.8125   YY=            -54.1719   ZZ=            -39.1528
   XY=              0.3750   XZ=              0.0000   YZ=             -0.0000

  Exact polarizability:  74.695  -9.470 195.996  -0.004   0.005  47.147
 Approx polarizability: 160.523 -60.128 674.719  -0.000   0.000  71.663

                      1                      2                      3
                     A'                     A"                     A'
 Frequencies --     84.4710               138.2636               167.8798
 Red. masses --     12.0000                12.0000                12.0000
 Frc consts  --      0.0504                 0.1352                 0.1993
 IR Inten    --      7.3784                 9.6431                 8.0958

                      4                      5                      6
                     ?A                     ?A                     A"
 Frequencies --    289.4751               296.3851               343.5274
 Red. masses --     12.0000                12.0000                12.0000
 Frc consts  --      0.5925                 0.6211                 0.8344
 IR Inten    --      2.0833                 5.6497                 2.5567

                      7                      8                      9
                     A"                     A'                     A'
 Frequencies --    551.1565               571.8114               602.5360
 Red. masses --     12.0000                12.0000                12.0000
 Frc consts  --      2.1477                 2.3117                 2.5668
 IR Inten    --      0.3661                 3.1317                12.2623

                     10                     11                     12
                     A'                     A'                     A'
 Frequencies --    807.9894               893.6294              1279.1478
 Red. masses --     12.0000                12.0000                12.0000
 Frc consts  --      4.6158                 5.6461                11.5684
 IR Inten    --    114.1476                67.5680               324.5676

                     13                     14                     15
                     A'                     A'                     A'
 Frequencies --   1674.9264              1840.6814              2142.8833
 Red. masses --     12.0000                12.0000                12.0000
 Frc consts  --     19.8346                23.9546                32.4660
 IR Inten    --    646.7064               138.3692              1667.3784

 - Thermochemistry -
 -------------------
 Temperature   298.150 Kelvin.  Pressure   1.00000 Atm.
 Atom     1 has atomic number  6 and mass  12.00000

 Molecular mass:    84.00000 amu.
 Principal axes and moments of inertia in atomic units:
                           1         2         3
     Eigenvalues --   162.432561177.958731340.39129
           X           -0.03943   0.99922   0.00000
           Y            0.99922   0.03943   0.00000
           Z            0.00000   0.00000   1.00000
 This molecule is an asymmetric top.
 Rotational symmetry number  1.
 Rotational temperatures (Kelvin)      0.53323     0.07353     0.06462
 Rotational constants (GHZ):          11.11071     1.53209     1.34643
 Zero-point vibrational energy      69890.4 (Joules/Mol)
                                   16.70421 (Kcal/Mol)
 Warning -- explicit consideration of   9 degrees of freedom as
           vibrations may cause significant error
 Vibrational temperatures:    121.53   198.93   241.54   416.49   426.43
          (Kelvin)            494.26   792.99   822.71   866.91  1162.52
                             1285.73  1840.41  2409.84  2648.33  3083.13

 Zero-point correction=                           0.026620 (Hartree/Particle)
 Thermal correction to Energy=                    0.033392
 Thermal correction to Enthalpy=                  0.034336
 Thermal correction to Gibbs Free Energy=        -0.004288
 Sum of electronic and zero-point Energies=           -266.308175
 Sum of electronic and thermal Energies=              -266.301403
 Sum of electronic and thermal Enthalpies=            -266.300459
 Sum of electronic and thermal Free Energies=         -266.339083

                     E (Thermal)             CV                S
                      KCal/Mol        Cal/Mol-Kelvin    Cal/Mol-Kelvin
 Total                   20.954             21.310             81.292
 Electronic               0.000              0.000              0.000
 Translational            0.889              2.981             39.198
 Rotational               0.889              2.981             27.042
 Vibrational             19.176             15.349             15.052
 Vibration     1          0.601              1.960              3.784
 Vibration     2          0.614              1.915              2.828
 Vibration     3          0.625              1.882              2.459
 Vibration     4          0.686              1.693              1.477
 Vibration     5          0.690              1.680              1.437
 Vibration     6          0.722              1.588              1.196
 Vibration     7          0.906              1.137              0.542
 Vibration     8          0.928              1.092              0.501
 Vibration     9          0.961              1.026              0.445

 Optimization completed.
    -- Stationary point found.
 Normal termination of Gaussian 09 at Sun Jun 19 01:21:25 2016.
