 Gaussian 09, Revision E.01,
 Gaussian 09:  EM64L-G09RevE.01 30-Nov-2015

 ---------------------------------------------
 #p b3lyp/6-311++G(3df,2p) freq symmetry=Loose
 ---------------------------------------------

 ---------
 b3lyp opt
 ---------
 Symbolic Z-matrix:
 Charge =  0 Multiplicity = 1

                         Standard orientation:
 ---------------------------------------------------------------------
 Center     Atomic      Atomic             Coordinates (Angstroms)
 Number     Number       Type             X           Y           Z
 ---------------------------------------------------------------------
      1          6           0        0.000000    0.000000    3.833187
      2          6           0        0.000000    0.000000    2.551962
      3          6           0        0.000000    0.000000    1.268685
      4          6           0        0.000000    0.000000    0.000000
      5          6           0        0.000000    0.000000   -1.268685
      6          6           0        0.000000    0.000000   -2.551962
      7          6           0        0.000000    0.000000   -3.833187
 ---------------------------------------------------------------------

 SCF Done:  E(RB3LYP) =  -266.450063063     A.U. after   12 cycles

 The electronic state is 1-SGG.
 Alpha  occ. eigenvalues --  -10.31967 -10.31964 -10.26817 -10.26649 -10.26648
 Alpha  occ. eigenvalues --  -10.22812 -10.22810  -0.90543  -0.86324  -0.81289
 Alpha  occ. eigenvalues --   -0.76040  -0.69788  -0.65587  -0.45808  -0.45808
 Alpha  occ. eigenvalues --   -0.39441  -0.39441  -0.33208  -0.33180  -0.31030
 Alpha  occ. eigenvalues --   -0.31030
 Alpha virt. eigenvalues --   -0.19062  -0.19062  -0.06329  -0.06329  -0.01268
 Alpha virt. eigenvalues --    0.02213   0.03575   0.03575   0.04702   0.04702
 Alpha virt. eigenvalues --    0.05096   0.06409   0.07498   0.07498   0.08807

 Mulliken charges:
               1
     1  C   -0.929305
     2  C    1.488959
     3  C   -0.463495
     4  C   -0.192317
     5  C   -0.463495
     6  C    1.488959
     7  C   -0.929305
 Sum of Mulliken charges =  -0.00000

 Dipole moment (field-independent basis, Debye):
    X=             -0.0000    Y=             -0.0000    Z=              0.0000  Tot=              0.0000
 Quadrupole moment (field-independent basis, Debye-Ang):
   XX=            -38.6807   YY=            -38.6807   ZZ=            -68.0527
   XY=             -0.0000   XZ=              0.0000   YZ=              0.0000

  Exact polarizability:  46.439  -0.000  46.439  -0.000  -0.000 287.291
 Approx polarizability:  67.614  -0.000  67.614  -0.000  -0.0001049.734

                      1                      2                      3
                     PIU                    PIU                    PIG
 Frequencies --     75.5206                75.5206               171.3418
 Red. masses --     12.0000                12.0000                12.0000
 Frc consts  --      0.0403                 0.0403                 0.2076
 IR Inten    --     10.9060                10.9060                 0.0000

                      4                      5                      6
                     PIG                    PIU                    PIU
 Frequencies --    171.3418               264.1653               264.1653
 Red. masses --     12.0000                12.0000                12.0000
 Frc consts  --      0.2076                 0.4934                 0.4934
 IR Inten    --      0.0000                 5.2995                 5.2995

                      7                      8                      9
                     PIG                    PIG                    SGG
 Frequencies --    544.5256               544.5256               587.6476
 Red. masses --     12.0000                12.0000                12.0000
 Frc consts  --      2.0964                 2.0964                 2.4415
 IR Inten    --      0.0000                 0.0000                 0.0000

                     10                     11                     12
                     PIU                    PIU                    SGU
 Frequencies --    639.4718               639.4718              1115.5529
 Red. masses --     12.0000                12.0000                12.0000
 Frc consts  --      2.8912                 2.8912                 8.7986
 IR Inten    --      5.4124                 5.4124                13.4518

                     13                     14                     15
                     SGG                    SGU                    SGG
 Frequencies --   1605.5999              1982.7237              2211.1206
 Red. masses --     12.0000                12.0000                12.0000
 Frc consts  --     18.2266                27.7943                34.5666
 IR Inten    --      0.0000              1477.6017                 0.0000

                     16
                     SGU
 Frequencies --   2238.1802
 Red. masses --     12.0000
 Frc consts  --     35.4178
 IR Inten    --   5154.6862

 - Thermochemistry -
 -------------------
 Temperature   298.150 Kelvin.  Pressure   1.00000 Atm.
 Atom     1 has atomic number  6 and mass  12.00000

 Molecular mass:    84.00000 amu.
 Principal axes and moments of inertia in atomic units:
                           1         2         3
     Eigenvalues --     0.000001955.406061955.40606
           X           -0.00000   1.00000  -0.00000
           Y            0.00000   0.00000   1.00000
           Z            1.00000   0.00000  -0.00000
 This molecule is a prolate symmetric top.
 Rotational symmetry number  2.
 Warning -- assumption of classical behavior for rotation
           may cause significant error
 Rotational temperature (Kelvin)      0.04429
 Rotational constant (GHZ):           0.922950
 Zero-point vibrational energy      78540.1 (Joules/Mol)
                                   18.77153 (Kcal/Mol)
 Warning -- explicit consideration of   9 degrees of freedom as
           vibrations may cause significant error
 Vibrational temperatures:    108.66   108.66   246.52   246.52   380.07
          (Kelvin)            380.07   783.45   783.45   845.49   920.06
                              920.06  1605.03  2310.10  2852.69  3181.31
                             3220.24

 Zero-point correction=                           0.029914 (Hartree/Particle)
 Thermal correction to Energy=                    0.036848
 Thermal correction to Enthalpy=                  0.037792
 Thermal correction to Gibbs Free Energy=         0.001745
 Sum of electronic and zero-point Energies=           -266.420149
 Sum of electronic and thermal Energies=              -266.413215
 Sum of electronic and thermal Enthalpies=            -266.412271
 Sum of electronic and thermal Free Energies=         -266.448318

                     E (Thermal)             CV                S
                      KCal/Mol        Cal/Mol-Kelvin    Cal/Mol-Kelvin
 Total                   23.122             21.733             75.866
 Electronic               0.000              0.000              0.000
 Translational            0.889              2.981             39.198
 Rotational               0.592              1.987             18.126
 Vibrational             21.641             16.765             18.542
 Vibration     1          0.599              1.965              4.004
 Vibration     2          0.599              1.965              4.004
 Vibration     3          0.626              1.878              2.421
 Vibration     4          0.626              1.878              2.421
 Vibration     5          0.671              1.739              1.634
 Vibration     6          0.671              1.739              1.634
 Vibration     7          0.900              1.152              0.556
 Vibration     8          0.900              1.152              0.556
 Vibration     9          0.945              1.058              0.471

 Optimization completed.
    -- Stationary point found.
 Normal termination of Gaussian 09 at Sun Jun 19 01:15:08 2016.
