 Gaussian 09, Revision E.01,
 Gaussian 09:  EM64L-G09RevE.01 30-Nov-2015

 ---------------------------------------------
 #p b3lyp/6-311+G(3df) opt freq symmetry=Loose
 ---------------------------------------------

 ---------
 b3lyp opt
 ---------
 Symbolic Z-matrix:
 Charge =  1 Multiplicity = 4

 SCF Done:  E(UB3LYP) =  -265.911229700     A.U. after   31 cycles
 SCF Done:  E(UB3LYP) =  -265.911232165     A.U. after   13 cycles
 Optimization completed.
    -- Stationary point found.
 Normal termination of Gaussian 09 at Mon Nov 14 16:27:21 2016.

 ----------------------------------------------------------------------
 #P Geom=AllCheck Guess=TCheck SCRF=Check GenChk UB3LYP/6-311+G(3df) Fr
 eq
 ----------------------------------------------------------------------

 Structure from the checkpoint file:  "/scratch/sergio/C7.q1.m4-11.com-2301897/Gau-27335.chk"
 ---------
 b3lyp opt
 ---------
 Charge =  1 Multiplicity = 4

                         Standard orientation:
 ---------------------------------------------------------------------
 Center     Atomic      Atomic             Coordinates (Angstroms)
 Number     Number       Type             X           Y           Z
 ---------------------------------------------------------------------
      1          6           0        0.000000   -0.000000   -1.702702
      2          6           0        0.000000   -0.000000   -3.022413
      3          6           0        0.000000    0.000000    3.244005
      4          6           0        0.000000    0.809510   -0.540733
      5          6           0       -0.000000   -0.809510   -0.540733
      6          6           0        0.000000    0.000000    0.618462
      7          6           0        0.000000    0.000000    1.944113
 ---------------------------------------------------------------------

 SCF Done:  E(UB3LYP) =  -265.911232165     A.U. after    1 cycles

 The electronic state is 4-A2.
 Alpha  occ. eigenvalues --  -10.55551 -10.55535 -10.55355 -10.53527 -10.53082
 Alpha  occ. eigenvalues --  -10.44725 -10.42840  -1.27703  -1.07950  -1.02469
 Alpha  occ. eigenvalues --   -0.93826  -0.84657  -0.84373  -0.72873  -0.71762
 Alpha  occ. eigenvalues --   -0.67928  -0.59698  -0.57578  -0.53931  -0.52306
 Alpha  occ. eigenvalues --   -0.49706  -0.49453
 Alpha virt. eigenvalues --   -0.35994  -0.35196  -0.30126  -0.21132  -0.19429
 Alpha virt. eigenvalues --   -0.14642  -0.12011  -0.11431  -0.08775  -0.08619
 Alpha virt. eigenvalues --   -0.08552  -0.07263  -0.06970  -0.06051  -0.04803

  Beta  occ. eigenvalues --  -10.55191 -10.55176 -10.53554 -10.53326 -10.51181
  Beta  occ. eigenvalues --  -10.44352 -10.42249  -1.27308  -1.05656  -0.98827
  Beta  occ. eigenvalues --   -0.91073  -0.83677  -0.82753  -0.71713  -0.71118
  Beta  occ. eigenvalues --   -0.56869  -0.56192  -0.50117  -0.48624
  Beta virt. eigenvalues --   -0.43059  -0.41827  -0.35773  -0.34399  -0.30713
  Beta virt. eigenvalues --   -0.26922  -0.18652  -0.17467  -0.14361  -0.11411
  Beta virt. eigenvalues --   -0.11138  -0.08241  -0.07802  -0.06782  -0.06521

 Mulliken charges and spin densities:
               1          2
     1  C    0.026793  -0.133063
     2  C   -0.126579   2.197146
     3  C   -0.233145   0.182443
     4  C    0.784364   0.207932
     5  C    0.784364   0.207932
     6  C   -0.793147  -0.051090
     7  C    0.557350   0.388700
 Sum of Mulliken charges =   1.00000   3.00000

 Dipole moment (field-independent basis, Debye):
    X=             -0.0000    Y=             -0.0000    Z=             -5.4550  Tot=              5.4550
 Quadrupole moment (field-independent basis, Debye-Ang):
   XX=            -34.2271   YY=            -36.2494   ZZ=            -19.3803
   XY=             -0.0000   XZ=              0.0000   YZ=             -0.0000

  Exact polarizability:  35.693   0.000  49.286  -0.000   0.000 165.359
 Approx polarizability:  58.450   0.000 105.359   0.000  -0.000 370.037

                      1                      2                      3
                     B1                     B2                     B1
 Frequencies --    118.3451               131.0692               302.1856
 Red. masses --     12.0000                12.0000                12.0000
 Frc consts  --      0.0990                 0.1215                 0.6456
 IR Inten    --      0.8597                 0.7539                 1.8656

                      4                      5                      6
                     B2                     B1                     B2
 Frequencies --    349.7886               506.8916               541.4620
 Red. masses --     12.0000                12.0000                12.0000
 Frc consts  --      0.8651                 1.8166                 2.0728
 IR Inten    --      1.1137                 2.0345                 2.2249

                      7                      8                      9
                     A1                     B1                     B2
 Frequencies --    579.9499               625.2353               744.1261
 Red. masses --     12.0000                12.0000                12.0000
 Frc consts  --      2.3780                 2.7639                 3.9149
 IR Inten    --      4.2621                 0.0030                25.8736

                     10                     11                     12
                     A1                     B2                     A1
 Frequencies --    889.9843               921.2841              1076.6038
 Red. masses --     12.0000                12.0000                12.0000
 Frc consts  --      5.6001                 6.0009                 8.1949
 IR Inten    --      7.5255                 0.0536                42.9246

                     13                     14                     15
                     A1                     A1                     A1
 Frequencies --   1293.9929              1606.7138              1937.1103
 Red. masses --     12.0000                12.0000                12.0000
 Frc consts  --     11.8385                18.2519                26.5302
 IR Inten    --      4.1256                13.1513               730.9576

 - Thermochemistry -
 -------------------
 Temperature   298.150 Kelvin.  Pressure   1.00000 Atm.
 Atom     1 has atomic number  6 and mass  12.00000

 Molecular mass:    84.00000 amu.
 Principal axes and moments of inertia in atomic units:
                           1         2         3
     Eigenvalues --    56.163381170.077781226.24116
           X            0.00000  -0.00000   1.00000
           Y            0.00000   1.00000   0.00000
           Z            1.00000  -0.00000  -0.00000
 This molecule is an asymmetric top.
 Rotational symmetry number  2.
 Rotational temperatures (Kelvin)      1.54218     0.07402     0.07063
 Rotational constants (GHZ):          32.13377     1.54241     1.47177
 Zero-point vibrational energy      69531.4 (Joules/Mol)
                                   16.61840 (Kcal/Mol)
 Warning -- explicit consideration of   7 degrees of freedom as
           vibrations may cause significant error
 Vibrational temperatures:    170.27   188.58   434.78   503.27   729.30
          (Kelvin)            779.04   834.42   899.57  1070.63  1280.49
                             1325.52  1548.99  1861.76  2311.70  2787.07

 Zero-point correction=                           0.026483 (Hartree/Particle)
 Thermal correction to Energy=                    0.032449
 Thermal correction to Enthalpy=                  0.033393
 Thermal correction to Gibbs Free Energy=        -0.003587
 Sum of electronic and zero-point Energies=           -265.884749
 Sum of electronic and thermal Energies=              -265.878784
 Sum of electronic and thermal Enthalpies=            -265.877839
 Sum of electronic and thermal Free Energies=         -265.914819

                     E (Thermal)             CV                S
                      KCal/Mol        Cal/Mol-Kelvin    Cal/Mol-Kelvin
 Total                   20.362             19.761             77.831
 Electronic               0.000              0.000              2.755
 Translational            0.889              2.981             39.198
 Rotational               0.889              2.981             24.514
 Vibrational             18.584             13.799             11.364
 Vibration     1          0.609              1.934              3.127
 Vibration     2          0.612              1.922              2.930
 Vibration     3          0.694              1.670              1.405
 Vibration     4          0.727              1.576              1.167
 Vibration     5          0.862              1.235              0.641
 Vibration     6          0.897              1.158              0.562
 Vibration     7          0.937              1.075              0.485

 Optimization completed.
    -- Stationary point found.
 Normal termination of Gaussian 09 at Mon Nov 14 16:43:12 2016.
