 Gaussian 09, Revision C.01,
 Gaussian 09:  AM64L-G09RevC.01 23-Sep-2011

 ---------------------------------------------
 #p b3lyp/6-311++G(3df,2p) freq symmetry=Loose
 ---------------------------------------------

 (Enter /home/nestor/.gaussian09/l101.exe)
 ---------
 b3lyp opt
 ---------
 Charge =  0 Multiplicity = 3

                         Standard orientation:
 ---------------------------------------------------------------------
 Center     Atomic      Atomic             Coordinates (Angstroms)
 Number     Number       Type             X           Y           Z
 ---------------------------------------------------------------------
      1          6           0        0.000000   -3.848421   -0.125464
      2          6           0        0.000000   -2.564722    0.060365
      3          6           0        0.000000   -1.276324    0.045392
      4          6           0        0.000000    0.000000    0.039414
      5          6           0        0.000000    1.276324    0.045392
      6          6           0        0.000000    2.564722    0.060365
      7          6           0        0.000000    3.848421   -0.125464
 ---------------------------------------------------------------------

 SCF Done:  E(UB3LYP) =  -266.386641710     A.U. after   23 cycles

 The electronic state is 3-A2.
 Alpha  occ. eigenvalues --  -10.29148 -10.29121 -10.28846 -10.26725 -10.26724
 Alpha  occ. eigenvalues --  -10.25019 -10.25017  -0.90359  -0.86425  -0.82096
 Alpha  occ. eigenvalues --   -0.76589  -0.69878  -0.65219  -0.45933  -0.45925
 Alpha  occ. eigenvalues --   -0.40184  -0.40140  -0.34829  -0.34506  -0.32790
 Alpha  occ. eigenvalues --   -0.32782  -0.24379
 Alpha virt. eigenvalues --   -0.19070  -0.08047  -0.07893  -0.01125   0.01532
 Alpha virt. eigenvalues --    0.03488   0.03791   0.03832   0.03840   0.04890
 Alpha virt. eigenvalues --    0.06286   0.06869   0.07146   0.08715   0.08756

  Beta  occ. eigenvalues --  -10.28836 -10.28789 -10.28617 -10.25814 -10.25813
  Beta  occ. eigenvalues --  -10.24837 -10.24836  -0.89136  -0.85091  -0.80087
  Beta  occ. eigenvalues --   -0.74335  -0.68427  -0.64388  -0.44176  -0.44136
  Beta  occ. eigenvalues --   -0.37957  -0.37804  -0.32561  -0.31950  -0.30241
  Beta virt. eigenvalues --   -0.25001  -0.16451  -0.16008  -0.05200  -0.05197
  Beta virt. eigenvalues --   -0.01021   0.02142   0.03695   0.03928   0.04823
  Beta virt. eigenvalues --    0.04828   0.05194   0.06271   0.07938   0.08338

 Mulliken atomic charges:
              1
     1  C   -0.739679
     2  C    1.176476
     3  C   -0.296900
     4  C   -0.279792
     5  C   -0.296900
     6  C    1.176476
     7  C   -0.739679
 Sum of Mulliken atomic charges =   0.00000

 Dipole moment (field-independent basis, Debye):
    X=              0.0000    Y=              0.0000    Z=              0.7842  Tot=              0.7842
 Quadrupole moment (field-independent basis, Debye-Ang):
   XX=            -40.4403   YY=            -65.7069   ZZ=            -37.4599
   XY=              0.0000   XZ=              0.0000   YZ=              0.0000

  Exact polarizability:  56.801   0.000 386.277   0.000   0.000  46.929
 Approx polarizability:  66.657   0.000 843.803   0.000   0.000  68.558

                     1                      2                      3
                    A1                     B2                     B1
 Frequencies --    75.6323               130.2875               150.1397
 Red. masses --    12.0000                12.0000                12.0000
 Frc consts  --     0.0404                 0.1200                 0.1594
 IR Inten    --    12.7310               129.8322                25.3045

                     4                      5                      6
                    A2                     A1                     B2
 Frequencies --   190.2420               261.7740               432.5410
 Red. masses --    12.0000                12.0000                12.0000
 Frc consts  --     0.2559                 0.4845                 1.3228
 IR Inten    --     0.0000                11.9783               270.5209

                     7                      8                      9
                    A2                     B1                     A1
 Frequencies --   437.3635               477.2454               577.7000
 Red. masses --    12.0000                12.0000                12.0000
 Frc consts  --     1.3524                 1.6103                 2.3596
 IR Inten    --     0.0000                 2.8732                 0.0072

                    10                     11                     12
                    A1                     B2                     A1
 Frequencies --   639.4960              1065.9887              1488.4163
 Red. masses --    12.0000                12.0000                12.0000
 Frc consts  --     2.8914                 8.0341                15.6632
 IR Inten    --     0.0294                 0.3384                13.2854

                    13                     14                     15
                    B2                     B2                     A1
 Frequencies --  1528.9920              1844.8629              1956.4035
 Red. masses --    12.0000                12.0000                12.0000
 Frc consts  --    16.5288                24.0635                27.0613
 IR Inten    --   331.1677               145.6039                20.6481

 - Thermochemistry -
 -------------------
 Temperature   298.150 Kelvin.  Pressure   1.00000 Atm.
 Atom     1 has atomic number  6 and mass  12.00000

 Molecular mass:    84.00000 amu.
 Principal axes and moments of inertia in atomic units:
                           1         2         3
     Eigenvalues --     1.904561972.697641974.60220
           X            0.00000   0.00000   1.00000
           Y            1.00000   0.00000   0.00000
           Z            0.00000   1.00000   0.00000
 This molecule is an asymmetric top.
 Rotational symmetry number  2.
 Rotational temperatures (Kelvin)     45.47697     0.04391     0.04386
 Rotational constants (GHZ):         947.58744     0.91486     0.91398
 Zero-point vibrational energy      67332.3 (Joules/Mol)
                                   16.09281 (Kcal/Mol)
 Warning -- explicit consideration of   9 degrees of freedom as
           vibrations may cause significant error
 Vibrational temperatures:    108.82   187.45   216.02   273.72   376.63
          (Kelvin)            622.33   629.27   686.65   831.18   920.09
                             1533.72  2141.50  2199.88  2654.34  2814.82

 Zero-point correction=                           0.025646 (Hartree/Particle)
 Thermal correction to Energy=                    0.032775
 Thermal correction to Enthalpy=                  0.033720
 Thermal correction to Gibbs Free Energy=        -0.004477
 Sum of electronic and zero-point Energies=           -266.360996
 Sum of electronic and thermal Energies=              -266.353866
 Sum of electronic and thermal Enthalpies=            -266.352922
 Sum of electronic and thermal Free Energies=         -266.391119

                     E (Thermal)             CV                S
                      KCal/Mol        Cal/Mol-Kelvin    Cal/Mol-Kelvin
 Total                   20.567             21.958             80.392
 Electronic               0.000              0.000              2.183
 Translational            0.889              2.981             39.198
 Rotational               0.889              2.981             22.144
 Vibrational             18.789             15.996             16.867
 Vibration     1          0.599              1.965              4.001
 Vibration     2          0.612              1.923              2.942
 Vibration     3          0.618              1.903              2.670
 Vibration     4          0.634              1.853              2.225
 Vibration     5          0.669              1.743              1.650
 Vibration     6          0.793              1.399              0.850
 Vibration     7          0.798              1.389              0.835
 Vibration     8          0.834              1.301              0.718
 Vibration     9          0.934              1.080              0.490

 Optimization completed.
    -- Stationary point found.
 Normal termination of Gaussian 09 at Wed Jul  6 10:32:51 2016.
