 Gaussian 09, Revision E.01,
 Gaussian 09:  EM64L-G09RevE.01 30-Nov-2015

 -----------------------------------------
 #p b3lyp/6-311+G(3df) freq symmetry=Loose
 -----------------------------------------

 ---------
 b3lyp opt
 ---------
 Symbolic Z-matrix:
 Charge =  1 Multiplicity = 2

                         Standard orientation:
 ---------------------------------------------------------------------
 Center     Atomic      Atomic             Coordinates (Angstroms)
 Number     Number       Type             X           Y           Z
 ---------------------------------------------------------------------
      1          6           0       -1.452608   -0.002496   -0.000049
      2          6           0       -1.088191    1.347536    0.000143
      3          6           0        2.243423   -0.368898    0.000008
      4          6           0        1.196932   -0.059244    0.769256
      5          6           0       -0.016500    0.313667   -0.000079
      6          6           0       -2.080062   -1.171604   -0.000046
      7          6           0        1.197006   -0.058962   -0.769233
 ---------------------------------------------------------------------

 SCF Done:  E(UB3LYP) =  -265.906166858     A.U. after   23 cycles

 The electronic state is 2-A.
 Alpha  occ. eigenvalues --  -10.57031 -10.57008 -10.56340 -10.55001 -10.51769
 Alpha  occ. eigenvalues --  -10.49694 -10.45746  -1.30186  -1.17284  -0.99316
 Alpha  occ. eigenvalues --   -0.96675  -0.85079  -0.75292  -0.72926  -0.70580
 Alpha  occ. eigenvalues --   -0.65579  -0.62908  -0.57366  -0.57117  -0.54075
 Alpha  occ. eigenvalues --   -0.50302
 Alpha virt. eigenvalues --   -0.38980  -0.35906  -0.35497  -0.29010  -0.27043
 Alpha virt. eigenvalues --   -0.17432  -0.14137  -0.12165  -0.11346  -0.10789
 Alpha virt. eigenvalues --   -0.08889  -0.08164  -0.07292  -0.05853  -0.05422

  Beta  occ. eigenvalues --  -10.56626 -10.56604 -10.56182 -10.53333 -10.51850
  Beta  occ. eigenvalues --  -10.49666 -10.45761  -1.29833  -1.17206  -0.99051
  Beta  occ. eigenvalues --   -0.95908  -0.83486  -0.74881  -0.72404  -0.69268
  Beta  occ. eigenvalues --   -0.63097  -0.59940  -0.57213  -0.54141  -0.50071
  Beta virt. eigenvalues --   -0.43643  -0.38730  -0.35651  -0.34869  -0.27094
  Beta virt. eigenvalues --   -0.24931  -0.17447  -0.13944  -0.12051  -0.11015
  Beta virt. eigenvalues --   -0.10710  -0.08738  -0.07617  -0.07279  -0.05704

 Mulliken charges and spin densities:
               1          2
     1  C    0.943173  -0.027993
     2  C   -0.540859   0.026336
     3  C   -0.215059   0.743222
     4  C    0.183568   0.183856
     5  C    0.721575  -0.058821
     6  C   -0.276097  -0.050454
     7  C    0.183700   0.183854
 Sum of Mulliken charges =   1.00000   1.00000

 Dipole moment (field-independent basis, Debye):
    X=              2.5042    Y=             -0.7668    Z=             -0.0004  Tot=              2.6190
 Quadrupole moment (field-independent basis, Debye-Ang):
   XX=            -23.4126   YY=            -37.8963   ZZ=            -33.9447
   XY=             -0.3697   XZ=              0.0001   YZ=             -0.0004

  Exact polarizability:  92.243   5.641  61.486   0.001   0.000  47.497
 Approx polarizability: 189.189  39.008 151.194   0.003   0.000  99.439

                      1                      2                      3
                      A                      A                      A
 Frequencies --    114.6344               136.3254               245.2653
 Red. masses --     12.0000                12.0000                12.0000
 Frc consts  --      0.0929                 0.1314                 0.4253
 IR Inten    --      1.6367                 2.3356                 3.4859

                      4                      5                      6
                      A                      A                      A
 Frequencies --    342.6727               385.8469               504.5650
 Red. masses --     12.0000                12.0000                12.0000
 Frc consts  --      0.8302                 1.0526                 1.8000
 IR Inten    --     15.8480                 4.8771                21.6893

                      7                      8                      9
                      A                      A                      A
 Frequencies --    514.1813               600.9101               807.5388
 Red. masses --     12.0000                12.0000                12.0000
 Frc consts  --      1.8692                 2.5530                 4.6106
 IR Inten    --      1.7957                14.3315                48.4921

                     10                     11                     12
                      A                      A                      A
 Frequencies --    868.5790               978.5651              1181.7329
 Red. masses --     12.0000                12.0000                12.0000
 Frc consts  --      5.3340                 6.7703                 9.8735
 IR Inten    --     23.4230                47.9188                 3.3159

                     13                     14                     15
                      A                      A                      A
 Frequencies --   1270.2874              1685.5769              1710.6186
 Red. masses --     12.0000                12.0000                12.0000
 Frc consts  --     11.4087                20.0876                20.6889
 IR Inten    --      4.2288               130.9460               620.5502

 - Thermochemistry -
 -------------------
 Temperature   298.150 Kelvin.  Pressure   1.00000 Atm.
 Atom     1 has atomic number  6 and mass  12.00000

 Molecular mass:    84.00000 amu.
 Principal axes and moments of inertia in atomic units:
                           1         2         3
     Eigenvalues --   197.69904 715.77217 812.04099
           X            1.00000  -0.00000  -0.00000
           Y            0.00000   1.00000  -0.00000
           Z            0.00000   0.00000   1.00000
 This molecule is an asymmetric top.
 Rotational symmetry number  1.
 Rotational temperatures (Kelvin)      0.43811     0.12101     0.10666
 Rotational constants (GHZ):           9.12873     2.52139     2.22248
 Zero-point vibrational energy      67871.9 (Joules/Mol)
                                   16.22178 (Kcal/Mol)
 Warning -- explicit consideration of   8 degrees of freedom as
           vibrations may cause significant error
 Vibrational temperatures:    164.93   196.14   352.88   493.03   555.15
          (Kelvin)            725.96   739.79   864.57  1161.87  1249.69
                             1407.94  1700.25  1827.66  2425.17  2461.20

 Zero-point correction=                           0.025851 (Hartree/Particle)
 Thermal correction to Energy=                    0.032050
 Thermal correction to Enthalpy=                  0.032994
 Thermal correction to Gibbs Free Energy=        -0.004593
 Sum of electronic and zero-point Energies=           -265.880316
 Sum of electronic and thermal Energies=              -265.874117
 Sum of electronic and thermal Enthalpies=            -265.873173
 Sum of electronic and thermal Free Energies=         -265.910760

                     E (Thermal)             CV                S
                      KCal/Mol        Cal/Mol-Kelvin    Cal/Mol-Kelvin
 Total                   20.112             20.204             79.109
 Electronic               0.000              0.000              1.377
 Translational            0.889              2.981             39.198
 Rotational               0.889              2.981             26.244
 Vibrational             18.334             14.242             12.289
 Vibration     1          0.608              1.937              3.189
 Vibration     2          0.614              1.917              2.855
 Vibration     3          0.660              1.771              1.764
 Vibration     4          0.722              1.590              1.200
 Vibration     5          0.755              1.500              1.016
 Vibration     6          0.860              1.240              0.647
 Vibration     7          0.869              1.219              0.624
 Vibration     8          0.959              1.030              0.448

 Optimization completed.
    -- Stationary point found.
 Normal termination of Gaussian 09 at Tue Nov  1 20:38:54 2016.
