 Gaussian 09, Revision E.01,
 Gaussian 09:  EM64L-G09RevE.01 30-Nov-2015

 -----------------------------------------
 #p b3lyp/6-311+G(3df) freq symmetry=Loose
 -----------------------------------------

 ---------
 b3lyp opt
 ---------
 Symbolic Z-matrix:
 Charge =  1 Multiplicity = 2

                         Standard orientation:
 ---------------------------------------------------------------------
 Center     Atomic      Atomic             Coordinates (Angstroms)
 Number     Number       Type             X           Y           Z
 ---------------------------------------------------------------------
      1          6           0       -1.244749   -1.649352   -0.000000
      2          6           0       -1.892115   -2.805150   -0.000000
      3          6           0        2.567031    1.076406    0.000000
      4          6           0        0.000000    2.040063    0.000000
      5          6           0       -0.024141    0.627426    0.000000
      6          6           0       -0.638073   -0.556567   -0.000000
      7          6           0        1.232046    1.267173    0.000000
 ---------------------------------------------------------------------

 SCF Done:  E(UB3LYP) =  -265.974038267     A.U. after   24 cycles

 The electronic state is 2-A".
 Alpha  occ. eigenvalues --  -10.53787 -10.52751 -10.52726 -10.52500 -10.50797
 Alpha  occ. eigenvalues --  -10.49135 -10.46353  -1.20267  -1.09148  -1.01359
 Alpha  occ. eigenvalues --   -0.99335  -0.91120  -0.74463  -0.69013  -0.66328
 Alpha  occ. eigenvalues --   -0.61218  -0.60664  -0.55356  -0.55198  -0.51358
 Alpha  occ. eigenvalues --   -0.51294
 Alpha virt. eigenvalues --   -0.40488  -0.40178  -0.34154  -0.27233  -0.21212
 Alpha virt. eigenvalues --   -0.17227  -0.16234  -0.11570  -0.11032  -0.09942
 Alpha virt. eigenvalues --   -0.09941  -0.08197  -0.06722  -0.06370  -0.05725

  Beta  occ. eigenvalues --  -10.53877 -10.52344 -10.52164 -10.52092 -10.50923
  Beta  occ. eigenvalues --  -10.48939 -10.46188  -1.19963  -1.08820  -0.99671
  Beta  occ. eigenvalues --   -0.97607  -0.90607  -0.74302  -0.67248  -0.66092
  Beta  occ. eigenvalues --   -0.60518  -0.59233  -0.54603  -0.54171  -0.51327
  Beta virt. eigenvalues --   -0.42889  -0.39717  -0.37314  -0.33543  -0.25767
  Beta virt. eigenvalues --   -0.18499  -0.16964  -0.16148  -0.11391  -0.10357
  Beta virt. eigenvalues --   -0.09881  -0.08889  -0.07975  -0.06601  -0.06000

 Mulliken charges and spin densities:
               1          2
     1  C    1.593236   0.162533
     2  C   -0.370029   0.169477
     3  C   -0.522490   0.350353
     4  C   -0.245314  -0.053185
     5  C    0.465134   0.185164
     6  C   -0.519388   0.014275
     7  C    0.598851   0.171383
 Sum of Mulliken charges =   1.00000   1.00000

 Dipole moment (field-independent basis, Debye):
    X=             -0.1840    Y=             -0.8224    Z=             -0.0000  Tot=              0.8428
 Quadrupole moment (field-independent basis, Debye-Ang):
   XX=            -30.1154   YY=            -28.8657   ZZ=            -34.6556
   XY=              7.7317   XZ=              0.0000   YZ=              0.0000

  Exact polarizability: 115.736  57.179 130.350  -0.000   0.000  41.886
 Approx polarizability: 311.093 189.104 354.516   0.000   0.000  63.233

                      1                      2                      3
                     A'                     A"                     A'
 Frequencies --     80.3160               111.1540               154.7969
 Red. masses --     12.0000                12.0000                12.0000
 Frc consts  --      0.0456                 0.0874                 0.1694
 IR Inten    --      3.4796                 8.6993                 2.9877

                      4                      5                      6
                     A"                     A'                     A"
 Frequencies --    239.7209               292.1250               307.2402
 Red. masses --     12.0000                12.0000                12.0000
 Frc consts  --      0.4063                 0.6033                 0.6674
 IR Inten    --      6.1517                 5.3701                 8.0966

                      7                      8                      9
                     A"                     A'                     A'
 Frequencies --    570.1824               579.8845               594.1385
 Red. masses --     12.0000                12.0000                12.0000
 Frc consts  --      2.2986                 2.3775                 2.4958
 IR Inten    --      0.0196                 0.7511                 9.2529

                     10                     11                     12
                     A'                     A'                     A'
 Frequencies --    792.2528               936.6344              1203.5102
 Red. masses --     12.0000                12.0000                12.0000
 Frc consts  --      4.4377                 6.2026                10.2407
 IR Inten    --     73.7751                 9.3212               592.2863

                     13                     14                     15
                     A'                     A'                     A'
 Frequencies --   1502.5766              1704.6082              2150.1624
 Red. masses --     12.0000                12.0000                12.0000
 Frc consts  --     15.9626                20.5438                32.6869
 IR Inten    --    224.9559               132.6449              1537.9203

 - Thermochemistry -
 -------------------
 Temperature   298.150 Kelvin.  Pressure   1.00000 Atm.
 Atom     1 has atomic number  6 and mass  12.00000

 Molecular mass:    84.00000 amu.
 Principal axes and moments of inertia in atomic units:
                           1         2         3
     Eigenvalues --   158.179571207.268551365.44812
           X            0.63764   0.77034   0.00000
           Y            0.77034  -0.63764   0.00000
           Z           -0.00000  -0.00000   1.00000
 This molecule is an asymmetric top.
 Rotational symmetry number  1.
 Rotational temperatures (Kelvin)      0.54757     0.07174     0.06343
 Rotational constants (GHZ):          11.40945     1.49490     1.32172
 Zero-point vibrational energy      67106.3 (Joules/Mol)
                                   16.03880 (Kcal/Mol)
 Warning -- explicit consideration of   9 degrees of freedom as
           vibrations may cause significant error
 Vibrational temperatures:    115.56   159.93   222.72   344.90   420.30
          (Kelvin)            442.05   820.36   834.32   854.83  1139.87
                             1347.61  1731.58  2161.87  2452.55  3093.60

 Zero-point correction=                           0.025559 (Hartree/Particle)
 Thermal correction to Energy=                    0.032519
 Thermal correction to Enthalpy=                  0.033463
 Thermal correction to Gibbs Free Energy=        -0.006383
 Sum of electronic and zero-point Energies=           -265.948479
 Sum of electronic and thermal Energies=              -265.941519
 Sum of electronic and thermal Enthalpies=            -265.940575
 Sum of electronic and thermal Free Energies=         -265.980421

                     E (Thermal)             CV                S
                      KCal/Mol        Cal/Mol-Kelvin    Cal/Mol-Kelvin
 Total                   20.406             21.540             83.863
 Electronic               0.000              0.000              1.377
 Translational            0.889              2.981             39.198
 Rotational               0.889              2.981             27.058
 Vibrational             18.629             15.578             16.230
 Vibration     1          0.600              1.963              3.883
 Vibration     2          0.607              1.940              3.249
 Vibration     3          0.620              1.897              2.612
 Vibration     4          0.657              1.780              1.805
 Vibration     5          0.688              1.688              1.462
 Vibration     6          0.697              1.660              1.377
 Vibration     7          0.926              1.096              0.504
 Vibration     8          0.937              1.075              0.486
 Vibration     9          0.952              1.044              0.460

 Normal termination of Gaussian 09 at Tue Nov  1 20:07:42 2016.
