 Gaussian 09, Revision E.01,
 Gaussian 09:  EM64L-G09RevE.01 30-Nov-2015

 -----------------------------------------
 #p b3lyp/6-311+G(3df) freq symmetry=Loose
 -----------------------------------------

 ---------
 b3lyp opt
 ---------
 Symbolic Z-matrix:
 Charge =  2 Multiplicity = 1

                         Standard orientation:
 ---------------------------------------------------------------------
 Center     Atomic      Atomic             Coordinates (Angstroms)
 Number     Number       Type             X           Y           Z
 ---------------------------------------------------------------------
      1          6           0        0.000000    0.000000    2.436835
      2          6           0       -0.000000   -0.000000   -1.468354
      3          6           0        0.000000    0.000000    1.038590
      4          6           0        0.000000    1.094819    0.122611
      5          6           0       -0.000000   -1.276349   -1.126147
      6          6           0       -0.000000   -1.094819    0.122611
      7          6           0        0.000000    1.276349   -1.126147
 ---------------------------------------------------------------------

 SCF Done:  E(RB3LYP) =  -265.426383791     A.U. after   13 cycles

 The electronic state is 1-A1.
 Alpha  occ. eigenvalues --  -10.81882 -10.80712 -10.78413 -10.78411 -10.74660
 Alpha  occ. eigenvalues --  -10.72800 -10.72795  -1.46160  -1.32396  -1.32045
 Alpha  occ. eigenvalues --   -1.16723  -1.09105  -1.08140  -0.99761  -0.93397
 Alpha  occ. eigenvalues --   -0.89100  -0.80801  -0.79934  -0.79161  -0.77694
 Alpha virt. eigenvalues --   -0.63961  -0.61772  -0.61706  -0.54402  -0.52666
 Alpha virt. eigenvalues --   -0.47399  -0.46982  -0.32531  -0.31897  -0.26642
 Alpha virt. eigenvalues --   -0.26261  -0.25852  -0.24333  -0.23423  -0.21257

 Mulliken charges:
               1
     1  C    0.007092
     2  C    0.474407
     3  C    0.862521
     4  C    0.231721
     5  C    0.096270
     6  C    0.231721
     7  C    0.096270
 Sum of Mulliken charges =   2.00000

 Dipole moment (field-independent basis, Debye):
    X=             -0.0000    Y=              0.0000    Z=              0.9250  Tot=              0.9250
 Quadrupole moment (field-independent basis, Debye-Ang):
   XX=            -32.8945   YY=            -20.8307   ZZ=            -11.9085
   XY=             -0.0000   XZ=              0.0000   YZ=             -0.0000

  Exact polarizability:  30.270  -0.000  58.145  -0.000  -0.000  81.603
 Approx polarizability:  46.310   0.000 136.483  -0.000  -0.000 208.414

                      1                      2                      3
                     B1                     B2                     B2
 Frequencies --    177.5657               224.2606               242.9614
 Red. masses --     12.0000                12.0000                12.0000
 Frc consts  --      0.2229                 0.3556                 0.4174
 IR Inten    --      0.2064                 4.5308                 0.3536

                      4                      5                      6
                     A2                     B1                     A1
 Frequencies --    413.3029               504.0305               541.0853
 Red. masses --     12.0000                12.0000                12.0000
 Frc consts  --      1.2077                 1.7962                 2.0700
 IR Inten    --      0.0000                 2.0731                49.7808

                      7                      8                      9
                     B1                     A1                     A1
 Frequencies --    581.1774               587.2399               896.2376
 Red. masses --     12.0000                12.0000                12.0000
 Frc consts  --      2.3881                 2.4382                 5.6791
 IR Inten    --      0.2345                34.4138                 0.4672

                     10                     11                     12
                     B2                     A1                     A1
 Frequencies --   1048.9501              1219.1954              1460.2488
 Red. masses --     12.0000                12.0000                12.0000
 Frc consts  --      7.7793                10.5094                15.0760
 IR Inten    --      1.7333                40.4812               458.5330

                     13                     14                     15
                     B2                     B2                     A1
 Frequencies --   1713.1331              1835.4007              1891.0447
 Red. masses --     12.0000                12.0000                12.0000
 Frc consts  --     20.7498                23.8173                25.2834
 IR Inten    --    226.6068                27.4158               232.6585

 - Thermochemistry -
 -------------------
 Temperature   298.150 Kelvin.  Pressure   1.00000 Atm.
 Atom     1 has atomic number  6 and mass  12.00000

 Molecular mass:    84.00000 amu.
 Principal axes and moments of inertia in atomic units:
                           1         2         3
     Eigenvalues --   242.34924 503.06484 745.41408
           X           -0.00000   0.00000   1.00000
           Y            0.00000   1.00000  -0.00000
           Z            1.00000  -0.00000   0.00000
 This molecule is an asymmetric top.
 Rotational symmetry number  2.
 Rotational temperatures (Kelvin)      0.35739     0.17217     0.11620
 Rotational constants (GHZ):           7.44686     3.58749     2.42113
 Zero-point vibrational energy      79766.0 (Joules/Mol)
                                   19.06453 (Kcal/Mol)
 Warning -- explicit consideration of   8 degrees of freedom as
           vibrations may cause significant error
 Vibrational temperatures:    255.48   322.66   349.57   594.65   725.19
          (Kelvin)            778.50   836.18   844.91  1289.48  1509.20
                             1754.15  2100.97  2464.81  2640.73  2720.79

 Zero-point correction=                           0.030381 (Hartree/Particle)
 Thermal correction to Energy=                    0.035992
 Thermal correction to Enthalpy=                  0.036937
 Thermal correction to Gibbs Free Energy=         0.002132
 Sum of electronic and zero-point Energies=           -265.396003
 Sum of electronic and thermal Energies=              -265.390391
 Sum of electronic and thermal Enthalpies=            -265.389447
 Sum of electronic and thermal Free Energies=         -265.424252

                     E (Thermal)             CV                S
                      KCal/Mol        Cal/Mol-Kelvin    Cal/Mol-Kelvin
 Total                   22.586             18.568             73.253
 Electronic               0.000              0.000              0.000
 Translational            0.889              2.981             39.198
 Rotational               0.889              2.981             24.633
 Vibrational             20.808             12.607              9.421
 Vibration     1          0.628              1.870              2.354
 Vibration     2          0.649              1.804              1.924
 Vibration     3          0.659              1.774              1.781
 Vibration     4          0.777              1.441              0.915
 Vibration     5          0.859              1.241              0.648
 Vibration     6          0.896              1.159              0.563
 Vibration     7          0.938              1.072              0.483
 Vibration     8          0.944              1.059              0.472

 Optimization completed.
    -- Stationary point found.

 1\1\GINC-BELVIS17\Freq\RB3LYP\6-311+G(3df)\C7(2+)\ROOT\23-Oct-2016\0\\
 #p b3lyp/6-311+G(3df) freq symmetry=Loose\\b3lyp opt\\2,1\C,-0.7031949
 95,-1.8175696253,1.4629150626\C,0.4237213447,1.0952055281,-0.881502772
 \C,-0.2997049271,-0.7746564978,0.6235010992\C,-0.688283216,0.598885202
 ,0.617466914\C,1.0861287409,0.035161629,-1.3100997781\C,0.6175195817,-
 0.7817901329,-0.4702514371\C,-0.4361865294,1.6447638976,-0.0420290874\
 \Version=EM64L-G09RevE.01\State=1-A1\HF=-265.4263838\RMSD=5.411e-09\RM
 SF=1.270e-04\ZeroPoint=0.0303813\Thermal=0.0359923\Dipole=-0.1050137,-

 Normal termination of Gaussian 09 at Sun Oct 23 12:35:30 2016.
