 Gaussian 09, Revision C.01,
 Gaussian 09:  AM64L-G09RevC.01 23-Sep-2011

 ---------------------------------------------
 #p b3lyp/6-311++G(3df,2p) freq symmetry=Loose
 ---------------------------------------------

 (Enter /home/nestor/.gaussian09/l101.exe)
 ---------
 b3lyp opt
 ---------
 Charge =  0 Multiplicity = 1

                         Standard orientation:
 ---------------------------------------------------------------------
 Center     Atomic      Atomic             Coordinates (Angstroms)
 Number     Number       Type             X           Y           Z
 ---------------------------------------------------------------------
      1          6           0        0.000000    1.250011    0.724901
      2          6           0        0.000000    0.717403   -0.691378
      3          6           0        0.000000    0.000000    1.113805
      4          6           0        0.000000   -2.053463   -0.590426
      5          6           0        0.000000   -0.717403   -0.691378
      6          6           0        0.000000   -1.250011    0.724901
      7          6           0        0.000000    2.053463   -0.590426
 ---------------------------------------------------------------------

 SCF Done:  E(RB3LYP) =  -266.321157185     A.U. after   12 cycles

 The electronic state is 1-A1.
 Alpha  occ. eigenvalues --  -10.30547 -10.30517 -10.30507 -10.29043 -10.29034
 Alpha  occ. eigenvalues --  -10.27713 -10.27711  -1.04471  -0.95025  -0.81442
 Alpha  occ. eigenvalues --   -0.72483  -0.69790  -0.51768  -0.50830  -0.47330
 Alpha  occ. eigenvalues --   -0.44264  -0.40943  -0.38655  -0.32968  -0.31914
 Alpha  occ. eigenvalues --   -0.25430
 Alpha virt. eigenvalues --   -0.12609  -0.11959  -0.11040  -0.03399   0.00671
 Alpha virt. eigenvalues --    0.01741   0.02600   0.03201   0.03849   0.05071
 Alpha virt. eigenvalues --    0.05250   0.05466   0.06371   0.06504   0.07837

 Mulliken atomic charges:
              1
     1  C   -0.193445
     2  C    0.380314
     3  C    0.358401
     4  C   -0.366069
     5  C    0.380314
     6  C   -0.193445
     7  C   -0.366069
 Sum of Mulliken atomic charges =   0.00000

 Dipole moment (field-independent basis, Debye):
    X=              0.0000    Y=              0.0000    Z=              0.8865  Tot=              0.8865
 Quadrupole moment (field-independent basis, Debye-Ang):
   XX=            -38.3386   YY=            -54.5458   ZZ=            -38.6422
   XY=              0.0000   XZ=              0.0000   YZ=              0.0000

  Exact polarizability:  42.820   0.000 102.116   0.000   0.000  62.998
 Approx polarizability:  68.865   0.000 216.183   0.000   0.000 131.529

                     1                      2                      3
                    B1                     A2                     B2
 Frequencies --   201.7292               211.6018               386.2780
 Red. masses --    12.0000                12.0000                12.0000
 Frc consts  --     0.2877                 0.3166                 1.0549
 IR Inten    --    19.6919                 0.0000                26.3313

                     4                      5                      6
                    B1                     A1                     A1
 Frequencies --   453.5020               456.3532               483.0978
 Red. masses --    12.0000                12.0000                12.0000
 Frc consts  --     1.4541                 1.4724                 1.6501
 IR Inten    --     0.0454                 6.9504                 1.4197

                     7                      8                      9
                    B2                     A2                     A1
 Frequencies --   609.1196               631.8521               730.6272
 Red. masses --    12.0000                12.0000                12.0000
 Frc consts  --     2.6232                 2.8227                 3.7742
 IR Inten    --    22.6000                 0.0000                 0.0129

                    10                     11                     12
                    B2                     A1                     A1
 Frequencies --   756.5233               937.4845              1351.1283
 Red. masses --    12.0000                12.0000                12.0000
 Frc consts  --     4.0465                 6.2138                12.9070
 IR Inten    --    60.0465                26.1407                19.9968

                    13                     14                     15
                    B2                     B2                     A1
 Frequencies --  1484.3926              1598.7447              1727.2920
 Red. masses --    12.0000                12.0000                12.0000
 Frc consts  --    15.5786                18.0713                21.0942
 IR Inten    --     5.4557               271.7902                 1.0632

 - Thermochemistry -
 -------------------
 Temperature   298.150 Kelvin.  Pressure   1.00000 Atm.
 Atom     1 has atomic number  6 and mass  12.00000

 Molecular mass:    84.00000 amu.
 Principal axes and moments of inertia in atomic units:
                           1         2         3
     Eigenvalues --   169.04306 539.42257 708.46563
           X            0.00000   0.00000   1.00000
           Y            1.00000   0.00000   0.00000
           Z            0.00000   1.00000   0.00000
 This molecule is an asymmetric top.
 Rotational symmetry number  2.
 Rotational temperatures (Kelvin)      0.51238     0.16057     0.12226
 Rotational constants (GHZ):          10.67622     3.34569     2.54739
 Zero-point vibrational energy      71893.9 (Joules/Mol)
                                   17.18306 (Kcal/Mol)
 Warning -- explicit consideration of   7 degrees of freedom as
           vibrations may cause significant error
 Vibrational temperatures:    290.24   304.45   555.77   652.49   656.59
          (Kelvin)            695.07   876.39   909.09  1051.21  1088.47
                             1348.83  1943.97  2135.71  2300.23  2485.18

 Zero-point correction=                           0.027383 (Hartree/Particle)
 Thermal correction to Energy=                    0.032953
 Thermal correction to Enthalpy=                  0.033897
 Thermal correction to Gibbs Free Energy=        -0.000519
 Sum of electronic and zero-point Energies=           -266.293774
 Sum of electronic and thermal Energies=              -266.288204
 Sum of electronic and thermal Enthalpies=            -266.287260
 Sum of electronic and thermal Free Energies=         -266.321676

                     E (Thermal)             CV                S
                      KCal/Mol        Cal/Mol-Kelvin    Cal/Mol-Kelvin
 Total                   20.678             19.324             72.435
 Electronic               0.000              0.000              0.000
 Translational            0.889              2.981             39.198
 Rotational               0.889              2.981             24.294
 Vibrational             18.901             13.363              8.942
 Vibration     1          0.639              1.837              2.117
 Vibration     2          0.643              1.823              2.030
 Vibration     3          0.755              1.499              1.014
 Vibration     4          0.812              1.353              0.785
 Vibration     5          0.815              1.347              0.777
 Vibration     6          0.839              1.288              0.702
 Vibration     7          0.968              1.013              0.434

 Optimization completed.
    -- Stationary point found.
 Normal termination of Gaussian 09 at Wed Jul  6 07:39:38 2016.
