 Gaussian 09, Revision E.01,
 Gaussian 09:  EM64L-G09RevE.01 30-Nov-2015

 -----------------------------------------
 #p b3lyp/6-311+G(3df) freq symmetry=Loose
 -----------------------------------------

 ---------
 b3lyp opt
 ---------
 Symbolic Z-matrix:
 Charge =  1 Multiplicity = 2

                         Standard orientation:
 ---------------------------------------------------------------------
 Center     Atomic      Atomic             Coordinates (Angstroms)
 Number     Number       Type             X           Y           Z
 ---------------------------------------------------------------------
      1          6           0       -0.000000    0.659025   -1.204980
      2          6           0        0.000000   -0.659025   -1.204980
      3          6           0        0.000000    0.000000    0.279767
      4          6           0        0.000000   -1.359162    0.150684
      5          6           0        0.000000   -2.457484    0.914416
      6          6           0       -0.000000    2.457484    0.914416
      7          6           0       -0.000000    1.359162    0.150684
 ---------------------------------------------------------------------

 SCF Done:  E(UB3LYP) =  -265.884312092     A.U. after   20 cycles

 The electronic state is 2-B2.
 Alpha  occ. eigenvalues --  -10.61239 -10.53658 -10.53569 -10.53000 -10.52999
 Alpha  occ. eigenvalues --  -10.50540 -10.50536  -1.29349  -1.11319  -1.03736
 Alpha  occ. eigenvalues --   -0.95333  -0.92486  -0.76085  -0.74301  -0.73545
 Alpha  occ. eigenvalues --   -0.65577  -0.58169  -0.55998  -0.55255  -0.52547
 Alpha  occ. eigenvalues --   -0.48962
 Alpha virt. eigenvalues --   -0.41115  -0.39466  -0.32917  -0.32837  -0.22319
 Alpha virt. eigenvalues --   -0.17723  -0.16310  -0.15465  -0.11670  -0.11578
 Alpha virt. eigenvalues --   -0.11078  -0.08651  -0.08070  -0.06971  -0.05876

  Beta  occ. eigenvalues --  -10.61367 -10.52925 -10.52834 -10.52737 -10.52737
  Beta  occ. eigenvalues --  -10.50405 -10.50402  -1.29311  -1.10853  -1.02925
  Beta  occ. eigenvalues --   -0.94508  -0.91625  -0.75612  -0.73281  -0.72639
  Beta  occ. eigenvalues --   -0.62665  -0.58010  -0.55487  -0.54341  -0.51756
  Beta virt. eigenvalues --   -0.40271  -0.39207  -0.37806  -0.32154  -0.29231
  Beta virt. eigenvalues --   -0.21635  -0.16585  -0.16264  -0.15421  -0.11251
  Beta virt. eigenvalues --   -0.11063  -0.10876  -0.08549  -0.07615  -0.06567

 Mulliken charges and spin densities:
               1          2
     1  C   -0.124752   0.295001
     2  C   -0.124752   0.295001
     3  C    0.676006  -0.071360
     4  C    0.801038   0.060890
     5  C   -0.514289   0.179789
     6  C   -0.514289   0.179789
     7  C    0.801038   0.060890
 Sum of Mulliken charges =   1.00000   1.00000

 Dipole moment (field-independent basis, Debye):
    X=              0.0000    Y=             -0.0000    Z=             -0.4438  Tot=              0.4438
 Quadrupole moment (field-independent basis, Debye-Ang):
   XX=            -36.0530   YY=            -28.4463   ZZ=            -33.9806
   XY=              0.0000   XZ=             -0.0000   YZ=             -0.0000

  Exact polarizability:  38.533   0.000 155.330   0.000  -0.000  68.781
 Approx polarizability:  60.110  -0.000 426.693  -0.000   0.000 178.549

                      1                      2                      3
                     A1                     A2                     B1
 Frequencies --    150.5115               154.4353               166.2943
 Red. masses --     12.0000                12.0000                12.0000
 Frc consts  --      0.1602                 0.1686                 0.1955
 IR Inten    --      6.9677                 0.0000                 3.3678

                      4                      5                      6
                     B2                     A2                     B2
 Frequencies --    201.2950               352.9364               405.4920
 Red. masses --     12.0000                12.0000                12.0000
 Frc consts  --      0.2865                 0.8807                 1.1625
 IR Inten    --    102.5141                 0.0000               177.6822

                      7                      8                      9
                     A1                     B1                     B2
 Frequencies --    445.5054               477.0631               571.6074
 Red. masses --     12.0000                12.0000                12.0000
 Frc consts  --      1.4033                 1.6091                 2.3101
 IR Inten    --      9.7860                 0.0035                 1.1085

                     10                     11                     12
                     A1                     A1                     B2
 Frequencies --    654.5079               828.4031              1296.6343
 Red. masses --     12.0000                12.0000                12.0000
 Frc consts  --      3.0287                 4.8519                11.8868
 IR Inten    --     50.0060                 7.6081               261.9527

                     13                     14                     15
                     A1                     A1                     B2
 Frequencies --   1478.8839              1660.9258              1762.6750
 Red. masses --     12.0000                12.0000                12.0000
 Frc consts  --     15.4632                19.5044                21.9673
 IR Inten    --      1.4555               115.4931              1150.7540

 - Thermochemistry -
 -------------------
 Temperature   298.150 Kelvin.  Pressure   1.00000 Atm.
 Atom     1 has atomic number  6 and mass  12.00000

 Molecular mass:    84.00000 amu.
 Principal axes and moments of inertia in atomic units:
                           1         2         3
     Eigenvalues --   201.40568 713.14412 914.54980
           X           -0.00000  -0.00000   1.00000
           Y            1.00000  -0.00000   0.00000
           Z            0.00000   1.00000   0.00000
 This molecule is an asymmetric top.
 Rotational symmetry number  2.
 Rotational temperatures (Kelvin)      0.43005     0.12145     0.09471
 Rotational constants (GHZ):           8.96073     2.53068     1.97337
 Zero-point vibrational energy      63445.0 (Joules/Mol)
                                   15.16371 (Kcal/Mol)
 Warning -- explicit consideration of   9 degrees of freedom as
           vibrations may cause significant error
 Vibrational temperatures:    216.55   222.20   239.26   289.62   507.80
          (Kelvin)            583.41   640.98   686.39   822.41   941.69
                             1191.89  1865.57  2127.78  2389.70  2536.09

 Zero-point correction=                           0.024165 (Hartree/Particle)
 Thermal correction to Energy=                    0.031021
 Thermal correction to Enthalpy=                  0.031965
 Thermal correction to Gibbs Free Energy=        -0.006131
 Sum of electronic and zero-point Energies=           -265.860147
 Sum of electronic and thermal Energies=              -265.853291
 Sum of electronic and thermal Enthalpies=            -265.852347
 Sum of electronic and thermal Free Energies=         -265.890443

                     E (Thermal)             CV                S
                      KCal/Mol        Cal/Mol-Kelvin    Cal/Mol-Kelvin
 Total                   19.466             22.101             80.181
 Electronic               0.000              0.000              1.377
 Translational            0.889              2.981             39.198
 Rotational               0.889              2.981             24.999
 Vibrational             17.689             16.139             14.606
 Vibration     1          0.618              1.902              2.666
 Vibration     2          0.620              1.898              2.617
 Vibration     3          0.624              1.884              2.477
 Vibration     4          0.638              1.838              2.121
 Vibration     5          0.729              1.569              1.153
 Vibration     6          0.770              1.458              0.943
 Vibration     7          0.805              1.371              0.809
 Vibration     8          0.834              1.301              0.718
 Vibration     9          0.928              1.093              0.501

 Optimization completed.
    -- Stationary point found.
 Normal termination of Gaussian 09 at Tue Nov  1 19:47:12 2016.
