 Gaussian 09, Revision E.01,
 Gaussian 09:  EM64L-G09RevE.01 30-Nov-2015

 -----------------------------------------
 #p b3lyp/6-311+G(3df) freq symmetry=Loose
 -----------------------------------------

 ---------
 b3lyp opt
 ---------
 Symbolic Z-matrix:
 Charge =  2 Multiplicity = 3

                         Standard orientation:
 ---------------------------------------------------------------------
 Center     Atomic      Atomic             Coordinates (Angstroms)
 Number     Number       Type             X           Y           Z
 ---------------------------------------------------------------------
      1          6           0       -2.437739   -0.109416    0.000632
      2          6           0        1.567701   -0.013415   -0.000204
      3          6           0       -1.041930   -0.010669   -0.000337
      4          6           0       -0.254831    1.202516   -0.000449
      5          6           0        1.158880   -1.256805    0.000658
      6          6           0       -0.111612   -1.052579   -0.000786
      7          6           0        1.119532    1.240368    0.000486
 ---------------------------------------------------------------------

 SCF Done:  E(UB3LYP) =  -265.397627653     A.U. after   27 cycles

 The electronic state is 3-A.
 Alpha  occ. eigenvalues --  -10.81437 -10.78861 -10.78053 -10.77613 -10.74994
 Alpha  occ. eigenvalues --  -10.74307 -10.72761  -1.44350  -1.32149  -1.29650
 Alpha  occ. eigenvalues --   -1.16798  -1.10362  -1.06917  -0.99660  -0.91958
 Alpha  occ. eigenvalues --   -0.90174  -0.80926  -0.80541  -0.78762  -0.78603
 Alpha  occ. eigenvalues --   -0.74539
 Alpha virt. eigenvalues --   -0.61493  -0.61118  -0.59624  -0.55215  -0.50140
 Alpha virt. eigenvalues --   -0.46146  -0.32520  -0.32024  -0.25900  -0.25826
 Alpha virt. eigenvalues --   -0.25260  -0.23958  -0.23345  -0.21410  -0.20910

  Beta  occ. eigenvalues --  -10.81417 -10.78615 -10.78244 -10.76112 -10.73972
  Beta  occ. eigenvalues --  -10.72675 -10.72544  -1.43116  -1.31406  -1.27332
  Beta  occ. eigenvalues --   -1.16223  -1.08255  -1.05936  -0.98468  -0.91423
  Beta  occ. eigenvalues --   -0.85345  -0.80320  -0.78468  -0.76908
  Beta virt. eigenvalues --   -0.65936  -0.61313  -0.60629  -0.60007  -0.54382
  Beta virt. eigenvalues --   -0.51141  -0.47848  -0.45616  -0.31867  -0.30630
  Beta virt. eigenvalues --   -0.25774  -0.25561  -0.24868  -0.23129  -0.22156

 Mulliken charges and spin densities:
               1          2
     1  C    0.001013   0.096122
     2  C    0.430553  -0.361237
     3  C    0.893828  -0.078057
     4  C    0.040046   0.747608
     5  C    0.166419   0.578641
     6  C    0.262123   0.097230
     7  C    0.206019   0.919694
 Sum of Mulliken charges =   2.00000   2.00000

 Dipole moment (field-independent basis, Debye):
    X=             -0.0593    Y=             -0.4525    Z=             -0.0006  Tot=              0.4564
 Quadrupole moment (field-independent basis, Debye-Ang):
   XX=            -10.2355   YY=            -20.4976   ZZ=            -33.1989
   XY=             -0.1830   XZ=              0.0014   YZ=              0.0004

  Exact polarizability:  82.278  -0.987  66.089   0.005   0.000  32.843
 Approx polarizability: 201.378  -6.607 187.126   0.025   0.000  48.857

                      1                      2                      3
                      A                      A                      A
 Frequencies --    170.3221               172.5565               386.1232
 Red. masses --     12.0000                12.0000                12.0000
 Frc consts  --      0.2051                 0.2105                 1.0541
 IR Inten    --      5.8563                 0.0097                 5.4227

                      4                      5                      6
                      A                      A                      A
 Frequencies --    410.2839               476.8310               535.3854
 Red. masses --     12.0000                12.0000                12.0000
 Frc consts  --      1.1901                 1.6075                 2.0266
 IR Inten    --      0.6352                 1.5892                53.5824

                      7                      8                      9
                      A                      A                      A
 Frequencies --    544.8279               557.8752               853.0345
 Red. masses --     12.0000                12.0000                12.0000
 Frc consts  --      2.0987                 2.2004                 5.1448
 IR Inten    --      0.3115                 9.7648                 1.3419

                     10                     11                     12
                      A                      A                      A
 Frequencies --    969.8320              1168.9171              1275.9650
 Red. masses --     12.0000                12.0000                12.0000
 Frc consts  --      6.6500                 9.6605                11.5109
 IR Inten    --     23.8547                16.3770                18.0696

                     13                     14                     15
                      A                      A                      A
 Frequencies --   1440.1221              1625.5942              1758.1492
 Red. masses --     12.0000                12.0000                12.0000
 Frc consts  --     14.6632                18.6834                21.8546
 IR Inten    --    412.2757                 5.7177               302.9157

 - Thermochemistry -
 -------------------
 Temperature   298.150 Kelvin.  Pressure   1.00000 Atm.
 Atom     1 has atomic number  6 and mass  12.00000

 Molecular mass:    84.00000 amu.
 Principal axes and moments of inertia in atomic units:
                           1         2         3
     Eigenvalues --   243.58834 521.07393 764.66210
           X            1.00000  -0.00000   0.00000
           Y            0.00000   1.00000  -0.00000
           Z           -0.00000   0.00000   1.00000
 This molecule is an asymmetric top.
 Rotational symmetry number  1.
 Rotational temperatures (Kelvin)      0.35557     0.16622     0.11327
 Rotational constants (GHZ):           7.40898     3.46350     2.36018
 Zero-point vibrational energy      73844.4 (Joules/Mol)
                                   17.64923 (Kcal/Mol)
 Warning -- explicit consideration of   8 degrees of freedom as
           vibrations may cause significant error
 Vibrational temperatures:    245.06   248.27   555.54   590.31   686.05
          (Kelvin)            770.30   783.88   802.66  1227.32  1395.37
                             1681.81  1835.83  2072.01  2338.86  2529.58

 Zero-point correction=                           0.028126 (Hartree/Particle)
 Thermal correction to Energy=                    0.033761
 Thermal correction to Enthalpy=                  0.034706
 Thermal correction to Gibbs Free Energy=        -0.001876
 Sum of electronic and zero-point Energies=           -265.369502
 Sum of electronic and thermal Energies=              -265.363866
 Sum of electronic and thermal Enthalpies=            -265.362922
 Sum of electronic and thermal Free Energies=         -265.399503

                     E (Thermal)             CV                S
                      KCal/Mol        Cal/Mol-Kelvin    Cal/Mol-Kelvin
 Total                   21.186             18.946             76.992
 Electronic               0.000              0.000              2.183
 Translational            0.889              2.981             39.198
 Rotational               0.889              2.981             26.076
 Vibrational             19.408             12.985              9.534
 Vibration     1          0.625              1.879              2.432
 Vibration     2          0.626              1.876              2.407
 Vibration     3          0.755              1.500              1.015
 Vibration     4          0.774              1.448              0.926
 Vibration     5          0.833              1.301              0.719
 Vibration     6          0.890              1.172              0.575
 Vibration     7          0.900              1.151              0.555
 Vibration     8          0.913              1.122              0.528

 Optimization completed.
    -- Stationary point found.
 Normal termination of Gaussian 09 at Wed Jul  6 00:04:14 2016.
