 Gaussian 09, Revision E.01,
 Gaussian 09:  EM64L-G09RevE.01 30-Nov-2015

 -----------------------------------------
 #p b3lyp/6-311+G(3df) freq symmetry=Loose
 -----------------------------------------

 ---------
 b3lyp opt
 ---------
 Symbolic Z-matrix:
 Charge =  2 Multiplicity = 1

                         Standard orientation:
 ---------------------------------------------------------------------
 Center     Atomic      Atomic             Coordinates (Angstroms)
 Number     Number       Type             X           Y           Z
 ---------------------------------------------------------------------
      1          6           0        1.627099    0.797393   -0.134838
      2          6           0        0.488610   -0.000520   -0.078411
      3          6           0       -0.894673   -0.000996   -0.010667
      4          6           0        1.627926   -0.797252   -0.134475
      5          6           0       -2.125016   -0.000205    0.024013
      6          6           0       -3.504904    0.000801    0.065510
      7          6           0        2.780959    0.000779    0.268869
 ---------------------------------------------------------------------

 SCF Done:  E(RB3LYP) =  -265.412088862     A.U. after   17 cycles

 The electronic state is 1-A.
 Alpha  occ. eigenvalues --  -10.78986 -10.78372 -10.76029 -10.76012 -10.75605
 Alpha  occ. eigenvalues --  -10.75378 -10.69246  -1.48544  -1.31031  -1.23766
 Alpha  occ. eigenvalues --   -1.16492  -1.09227  -1.04224  -0.91541  -0.90024
 Alpha  occ. eigenvalues --   -0.82127  -0.81125  -0.78547  -0.76841  -0.71934
 Alpha virt. eigenvalues --   -0.65416  -0.61410  -0.56101  -0.56013  -0.47032
 Alpha virt. eigenvalues --   -0.43775  -0.37958  -0.32196  -0.31832  -0.29691
 Alpha virt. eigenvalues --   -0.26356  -0.25575  -0.25416  -0.22771  -0.22055

 Mulliken charges:
               1
     1  C    0.231692
     2  C    0.440668
     3  C   -0.571771
     4  C    0.232310
     5  C    1.686562
     6  C    0.021369
     7  C   -0.040830
 Sum of Mulliken charges =   2.00000

 Dipole moment (field-independent basis, Debye):
    X=             -2.2444    Y=             -0.0009    Z=             -0.5602  Tot=              2.3133
 Quadrupole moment (field-independent basis, Debye-Ang):
   XX=             13.0514   YY=            -31.3403   ZZ=            -31.4049
   XY=              0.0003   XZ=             -2.1550   YZ=             -0.0003

  Exact polarizability: 179.662   0.000  45.548   2.414  -0.001  34.060
 Approx polarizability: 586.151  -0.013 106.657  13.749  -0.005  56.155

                      1                      2                      3
                      A                      A                      A
 Frequencies --     98.6549               101.5941               218.0037
 Red. masses --     12.0000                12.0000                12.0000
 Frc consts  --      0.0688                 0.0730                 0.3360
 IR Inten    --      1.8883                 0.7758                10.8004

                      4                      5                      6
                      A                      A                      A
 Frequencies --    251.6162               410.4278               512.0764
 Red. masses --     12.0000                12.0000                12.0000
 Frc consts  --      0.4476                 1.1910                 1.8540
 IR Inten    --      0.6363               108.3318                18.2158

                      7                      8                      9
                      A                      A                      A
 Frequencies --    549.9485               611.9708               714.1807
 Red. masses --     12.0000                12.0000                12.0000
 Frc consts  --      2.1383                 2.6478                 3.6062
 IR Inten    --     14.8448                59.2348                36.1406

                     10                     11                     12
                      A                      A                      A
 Frequencies --    827.6040               914.3337              1106.3234
 Red. masses --     12.0000                12.0000                12.0000
 Frc consts  --      4.8426                 5.9107                 8.6536
 IR Inten    --      3.6971               100.5246                 2.0051

                     13                     14                     15
                      A                      A                      A
 Frequencies --   1206.6831              1574.4832              2194.4033
 Red. masses --     12.0000                12.0000                12.0000
 Frc consts  --     10.2948                17.5270                34.0459
 IR Inten    --    684.9687                28.4169              1209.3425

 - Thermochemistry -
 -------------------
 Temperature   298.150 Kelvin.  Pressure   1.00000 Atm.
 Atom     1 has atomic number  6 and mass  12.00000

 Molecular mass:    84.00000 amu.
 Principal axes and moments of inertia in atomic units:
                           1         2         3
     Eigenvalues --    59.613931328.017751377.37397
           X            1.00000   0.00000  -0.00000
           Y           -0.00000   1.00000  -0.00000
           Z            0.00000   0.00000   1.00000
 This molecule is an asymmetric top.
 Rotational symmetry number  1.
 Rotational temperatures (Kelvin)      1.45291     0.06522     0.06288
 Rotational constants (GHZ):          30.27382     1.35897     1.31028
 Zero-point vibrational energy      67543.0 (Joules/Mol)
                                   16.14316 (Kcal/Mol)
 Warning -- explicit consideration of   8 degrees of freedom as
           vibrations may cause significant error
 Vibrational temperatures:    141.94   146.17   313.66   362.02   590.51
          (Kelvin)            736.76   791.25   880.49  1027.55  1190.74
                             1315.52  1591.75  1736.15  2265.33  3157.25

 Zero-point correction=                           0.025726 (Hartree/Particle)
 Thermal correction to Energy=                    0.032176
 Thermal correction to Enthalpy=                  0.033120
 Thermal correction to Gibbs Free Energy=        -0.004527
 Sum of electronic and zero-point Energies=           -265.386363
 Sum of electronic and thermal Energies=              -265.379913
 Sum of electronic and thermal Enthalpies=            -265.378969
 Sum of electronic and thermal Free Energies=         -265.416616

                     E (Thermal)             CV                S
                      KCal/Mol        Cal/Mol-Kelvin    Cal/Mol-Kelvin
 Total                   20.191             20.678             79.234
 Electronic               0.000              0.000              0.000
 Translational            0.889              2.981             39.198
 Rotational               0.889              2.981             26.192
 Vibrational             18.413             14.717             13.844
 Vibration     1          0.604              1.950              3.481
 Vibration     2          0.604              1.948              3.424
 Vibration     3          0.646              1.814              1.976
 Vibration     4          0.664              1.760              1.719
 Vibration     5          0.775              1.448              0.925
 Vibration     6          0.867              1.223              0.629
 Vibration     7          0.905              1.140              0.544
 Vibration     8          0.971              1.007              0.430

 Normal termination of Gaussian 09 at Tue Jul  5 22:50:21 2016.
