 Gaussian 09, Revision E.01,
 Gaussian 09:  EM64L-G09RevE.01 30-Nov-2015

 -----------------------------------------
 #p b3lyp/6-311+G(3df) freq symmetry=Loose
 -----------------------------------------

 ---------
 b3lyp opt
 ---------
 Symbolic Z-matrix:
 Charge =  1 Multiplicity = 2

                         Standard orientation:
 ---------------------------------------------------------------------
 Center     Atomic      Atomic             Coordinates (Angstroms)
 Number     Number       Type             X           Y           Z
 ---------------------------------------------------------------------
      1          6           0        1.150188    0.009626   -0.625936
      2          6           0        0.185053    0.292882    0.721122
      3          6           0       -1.083133   -0.014037    0.019135
      4          6           0       -0.004544   -0.869819   -0.541967
      5          6           0       -2.388244    0.286425   -0.066629
      6          6           0        0.942986   -0.967368    0.574598
      7          6           0        1.197694    1.262292   -0.080323
 ---------------------------------------------------------------------

 SCF Done:  E(UB3LYP) =  -265.850816248     A.U. after   26 cycles

 The electronic state is 2-A.
 Alpha  occ. eigenvalues --  -10.58446 -10.57678 -10.55000 -10.54948 -10.53721
 Alpha  occ. eigenvalues --  -10.53488 -10.50637  -1.35969  -1.09053  -1.04475
 Alpha  occ. eigenvalues --   -0.95144  -0.91213  -0.77075  -0.71797  -0.69714
 Alpha  occ. eigenvalues --   -0.65905  -0.63430  -0.59979  -0.56005  -0.54614
 Alpha  occ. eigenvalues --   -0.53387
 Alpha virt. eigenvalues --   -0.42029  -0.36279  -0.34424  -0.30283  -0.26774
 Alpha virt. eigenvalues --   -0.17234  -0.13879  -0.13515  -0.12183  -0.10806
 Alpha virt. eigenvalues --   -0.10077  -0.08162  -0.07765  -0.06792  -0.06554

  Beta  occ. eigenvalues --  -10.58347 -10.57297 -10.54916 -10.53886 -10.53367
  Beta  occ. eigenvalues --  -10.53351 -10.50638  -1.35726  -1.08592  -1.03765
  Beta  occ. eigenvalues --   -0.94426  -0.90299  -0.76506  -0.71390  -0.68425
  Beta  occ. eigenvalues --   -0.64165  -0.62652  -0.56290  -0.55457  -0.53763
  Beta virt. eigenvalues --   -0.44009  -0.41321  -0.34354  -0.33833  -0.29426
  Beta virt. eigenvalues --   -0.25285  -0.16322  -0.13512  -0.12820  -0.12006
  Beta virt. eigenvalues --   -0.10456  -0.09971  -0.07960  -0.07553  -0.06588

 Mulliken charges and spin densities:
               1          2
     1  C    0.423300   0.032870
     2  C    0.276013   0.018596
     3  C    0.622271   0.004215
     4  C    0.285350   0.130261
     5  C   -0.119723   0.199146
     6  C   -0.264577   0.517682
     7  C   -0.222634   0.097230
 Sum of Mulliken charges =   1.00000   1.00000

 Dipole moment (field-independent basis, Debye):
    X=              0.1991    Y=             -0.8689    Z=             -0.4731  Tot=              1.0092
 Quadrupole moment (field-independent basis, Debye-Ang):
   XX=            -31.4055   YY=            -35.4290   ZZ=            -32.9161
   XY=             -0.6598   XZ=             -1.1260   YZ=              1.1057

  Exact polarizability:  90.624  -1.733  63.314   3.787  -2.125  47.302
 Approx polarizability: 181.716  -2.625 145.545  10.635   4.177 101.455

                      1                      2                      3
                      A                      A                      A
 Frequencies --    154.4650               180.7673               269.4743
 Red. masses --     12.0000                12.0000                12.0000
 Frc consts  --      0.1687                 0.2310                 0.5134
 IR Inten    --      1.5182                10.2150                 4.4644

                      4                      5                      6
                      A                      A                      A
 Frequencies --    428.2104               571.5385               610.0400
 Red. masses --     12.0000                12.0000                12.0000
 Frc consts  --      1.2964                 2.3095                 2.6312
 IR Inten    --     12.2442                 6.9103                 9.9408

                      7                      8                      9
                      A                      A                      A
 Frequencies --    638.2593               690.4831               785.5594
 Red. masses --     12.0000                12.0000                12.0000
 Frc consts  --      2.8802                 3.3708                 4.3630
 IR Inten    --     19.6040                11.9089                 6.4926

                     10                     11                     12
                      A                      A                      A
 Frequencies --    835.9325               915.9226               975.5271
 Red. masses --     12.0000                12.0000                12.0000
 Frc consts  --      4.9405                 5.9313                 6.7284
 IR Inten    --     39.8236                27.3500                 7.4388

                     13                     14                     15
                      A                      A                      A
 Frequencies --   1208.9080              1283.9192              1641.3954
 Red. masses --     12.0000                12.0000                12.0000
 Frc consts  --     10.3328                11.6549                19.0484
 IR Inten    --     25.1147                45.9258               480.2383

 - Thermochemistry -
 -------------------
 Temperature   298.150 Kelvin.  Pressure   1.00000 Atm.
 Atom     1 has atomic number  6 and mass  12.00000

 Molecular mass:    84.00000 amu.
 Principal axes and moments of inertia in atomic units:
                           1         2         3
     Eigenvalues --   214.29973 518.72167 600.43822
           X            1.00000   0.00000   0.00000
           Y           -0.00000   1.00000   0.00000
           Z           -0.00000  -0.00000   1.00000
 This molecule is an asymmetric top.
 Rotational symmetry number  1.
 Rotational temperatures (Kelvin)      0.40417     0.16698     0.14425
 Rotational constants (GHZ):           8.42157     3.47921     3.00571
 Zero-point vibrational energy      66933.5 (Joules/Mol)
                                   15.99748 (Kcal/Mol)
 Warning -- explicit consideration of   6 degrees of freedom as
           vibrations may cause significant error
 Vibrational temperatures:    222.24   260.08   387.71   616.10   822.32
          (Kelvin)            877.71   918.31   993.45  1130.24  1202.72
                             1317.81  1403.56  1739.35  1847.27  2361.60

 Zero-point correction=                           0.025494 (Hartree/Particle)
 Thermal correction to Energy=                    0.031157
 Thermal correction to Enthalpy=                  0.032101
 Thermal correction to Gibbs Free Energy=        -0.004023
 Sum of electronic and zero-point Energies=           -265.825323
 Sum of electronic and thermal Energies=              -265.819659
 Sum of electronic and thermal Enthalpies=            -265.818715
 Sum of electronic and thermal Free Energies=         -265.854839

                     E (Thermal)             CV                S
                      KCal/Mol        Cal/Mol-Kelvin    Cal/Mol-Kelvin
 Total                   19.551             19.318             76.030
 Electronic               0.000              0.000              1.377
 Translational            0.889              2.981             39.198
 Rotational               0.889              2.981             25.704
 Vibrational             17.774             13.357              9.750
 Vibration     1          0.620              1.898              2.616
 Vibration     2          0.630              1.866              2.320
 Vibration     3          0.674              1.729              1.600
 Vibration     4          0.790              1.409              0.865
 Vibration     5          0.928              1.093              0.501
 Vibration     6          0.969              1.011              0.433

 Optimization completed.
    -- Stationary point found.
 Normal termination of Gaussian 09 at Tue Nov  1 20:19:40 2016.
