 Gaussian 09, Revision E.01,
 Gaussian 09:  EM64L-G09RevE.01 30-Nov-2015

 ---------------------------------------------
 #p b3lyp/6-311++G(3df,2p) freq symmetry=Loose
 ---------------------------------------------

 ---------
 b3lyp opt
 ---------
 Symbolic Z-matrix:
 Charge =  0 Multiplicity = 1

                         Standard orientation:
 ---------------------------------------------------------------------
 Center     Atomic      Atomic             Coordinates (Angstroms)
 Number     Number       Type             X           Y           Z
 ---------------------------------------------------------------------
      1          6           0        0.000000    0.000000    1.543987
      2          6           0        0.000000   -1.038721    0.737658
      3          6           0        0.000000   -1.785664   -0.365939
      4          6           0        0.000000   -0.627208   -1.143765
      5          6           0        0.000000    0.627208   -1.143765
      6          6           0        0.000000    1.785664   -0.365939
      7          6           0        0.000000    1.038721    0.737658
 ---------------------------------------------------------------------

 SCF Done:  E(RB3LYP) =  -266.407783263     A.U. after   12 cycles

 The electronic state is 1-A1.
 Alpha  occ. eigenvalues --  -10.30889 -10.30886 -10.26405 -10.26250 -10.26101
 Alpha  occ. eigenvalues --  -10.25674 -10.25674  -0.97664  -0.87858  -0.85246
 Alpha  occ. eigenvalues --   -0.73376  -0.65283  -0.53513  -0.53490  -0.47535
 Alpha  occ. eigenvalues --   -0.47284  -0.36387  -0.35802  -0.35460  -0.32967
 Alpha  occ. eigenvalues --   -0.24478
 Alpha virt. eigenvalues --   -0.13301  -0.11957  -0.09623  -0.09345  -0.00758
 Alpha virt. eigenvalues --    0.00236   0.03214   0.03445   0.03583   0.05201
 Alpha virt. eigenvalues --    0.06827   0.06863   0.07380   0.07851   0.07940

 Mulliken charges:
               1
     1  C   -0.222376
     2  C    0.421423
     3  C   -0.481608
     4  C    0.171373
     5  C    0.171373
     6  C   -0.481608
     7  C    0.421423
 Sum of Mulliken charges =  -0.00000

 Dipole moment (field-independent basis, Debye):
    X=             -0.0000    Y=              0.0000    Z=              0.8547  Tot=              0.8547
 Quadrupole moment (field-independent basis, Debye-Ang):
   XX=            -38.4208   YY=            -47.6091   ZZ=            -40.6711
   XY=             -0.0000   XZ=              0.0000   YZ=             -0.0000

  Exact polarizability:  43.511  -0.000 107.229  -0.000  -0.000  76.886
 Approx polarizability:  67.207   0.000 296.696  -0.000   0.000 167.960

                      1                      2                      3
                     B1                     B2                     A1
 Frequencies --    283.3750               303.1025               396.6343
 Red. masses --     12.0000                12.0000                12.0000
 Frc consts  --      0.5677                 0.6495                 1.1123
 IR Inten    --     34.5413                 0.3097                31.4770

                      4                      5                      6
                     B2                     A2                     B1
 Frequencies --    440.7626               496.2637               514.2239
 Red. masses --     12.0000                12.0000                12.0000
 Frc consts  --      1.3735                 1.7412                 1.8695
 IR Inten    --    163.4209                 0.0000                 4.6899

                      7                      8                      9
                     A2                     A1                     A1
 Frequencies --    529.3835               596.3162               957.1134
 Red. masses --     12.0000                12.0000                12.0000
 Frc consts  --      1.9814                 2.5141                 6.4768
 IR Inten    --      0.0000                44.7916                 1.0850

                     10                     11                     12
                     A1                     B2                     B2
 Frequencies --   1026.2899              1148.2339              1174.0347
 Red. masses --     12.0000                12.0000                12.0000
 Frc consts  --      7.4468                 9.3216                 9.7453
 IR Inten    --      3.4074               118.9400                34.7128

                     13                     14                     15
                     B2                     A1                     A1
 Frequencies --   1613.6678              1667.3962              1945.4172
 Red. masses --     12.0000                12.0000                12.0000
 Frc consts  --     18.4102                19.6566                26.7582
 IR Inten    --    156.6949                97.2518                12.6816

 - Thermochemistry -
 -------------------
 Temperature   298.150 Kelvin.  Pressure   1.00000 Atm.
 Atom     1 has atomic number  6 and mass  12.00000

 Molecular mass:    84.00000 amu.
 Principal axes and moments of inertia in atomic units:
                           1         2         3
     Eigenvalues --   272.38927 399.46741 671.85668
           X           -0.00000   0.00000   1.00000
           Y            1.00000   0.00000   0.00000
           Z           -0.00000   1.00000  -0.00000
 This molecule is an asymmetric top.
 Rotational symmetry number  2.
 Rotational temperatures (Kelvin)      0.31798     0.21682     0.12892
 Rotational constants (GHZ):           6.62560     4.51787     2.68620
 Zero-point vibrational energy      78308.8 (Joules/Mol)
                                   18.71626 (Kcal/Mol)
 Warning -- explicit consideration of   8 degrees of freedom as
           vibrations may cause significant error
 Vibrational temperatures:    407.71   436.10   570.67   634.16   714.01
          (Kelvin)            739.85   761.66   857.96  1377.07  1476.60
                             1652.05  1689.17  2321.71  2399.01  2799.02

 Zero-point correction=                           0.029826 (Hartree/Particle)
 Thermal correction to Energy=                    0.035029
 Thermal correction to Enthalpy=                  0.035973
 Thermal correction to Gibbs Free Energy=         0.002253
 Sum of electronic and zero-point Energies=           -266.377957
 Sum of electronic and thermal Energies=              -266.372754
 Sum of electronic and thermal Enthalpies=            -266.371810
 Sum of electronic and thermal Free Energies=         -266.405530

                     E (Thermal)             CV                S
                      KCal/Mol        Cal/Mol-Kelvin    Cal/Mol-Kelvin
 Total                   21.981             18.239             70.971
 Electronic               0.000              0.000              0.000
 Translational            0.889              2.981             39.198
 Rotational               0.889              2.981             24.417
 Vibrational             20.204             12.278              7.355
 Vibration     1          0.682              1.704              1.513
 Vibration     2          0.695              1.668              1.400
 Vibration     3          0.763              1.477              0.975
 Vibration     4          0.801              1.381              0.824
 Vibration     5          0.852              1.258              0.668
 Vibration     6          0.869              1.218              0.624
 Vibration     7          0.884              1.185              0.589
 Vibration     8          0.954              1.040              0.456

 Optimization completed.
    -- Stationary point found.
 Normal termination of Gaussian 09 at Sun Jun 19 01:18:48 2016.
