 Gaussian 09, Revision E.01,
 Gaussian 09:  EM64L-G09RevE.01 30-Nov-2015

 -----------------------------------------
 #p b3lyp/6-311+G(3df) freq symmetry=Loose
 -----------------------------------------

 ---------
 b3lyp opt
 ---------
 Symbolic Z-matrix:
 Charge =  1 Multiplicity = 2

                         Standard orientation:
 ---------------------------------------------------------------------
 Center     Atomic      Atomic             Coordinates (Angstroms)
 Number     Number       Type             X           Y           Z
 ---------------------------------------------------------------------
      1          6           0       -0.000000   -0.000000    2.008304
      2          6           0        0.000000    0.755533   -0.484723
      3          6           0       -0.000135    0.814777    0.951888
      4          6           0        0.000135   -0.814777    0.951888
      5          6           0       -0.000000   -0.755533   -0.484723
      6          6           0       -0.000121    1.653059   -1.471281
      7          6           0        0.000121   -1.653059   -1.471281
 ---------------------------------------------------------------------

 SCF Done:  E(UB3LYP) =  -265.922808139     A.U. after   21 cycles

 The electronic state is 2-A.
 Alpha  occ. eigenvalues --  -10.55988 -10.55977 -10.53229 -10.53228 -10.52026
 Alpha  occ. eigenvalues --  -10.49524 -10.49500  -1.25926  -1.10144  -1.03501
 Alpha  occ. eigenvalues --   -0.94589  -0.88132  -0.76754  -0.75059  -0.71416
 Alpha  occ. eigenvalues --   -0.65511  -0.57667  -0.56484  -0.55712  -0.54659
 Alpha  occ. eigenvalues --   -0.51157
 Alpha virt. eigenvalues --   -0.39823  -0.37019  -0.35523  -0.32387  -0.29542
 Alpha virt. eigenvalues --   -0.19713  -0.15069  -0.14748  -0.11510  -0.10862
 Alpha virt. eigenvalues --   -0.10136  -0.08403  -0.06625  -0.06230  -0.05994

  Beta  occ. eigenvalues --  -10.55382 -10.55373 -10.53181 -10.53180 -10.50956
  Beta  occ. eigenvalues --  -10.49527 -10.49503  -1.25650  -1.09889  -1.03126
  Beta  occ. eigenvalues --   -0.94119  -0.86597  -0.76112  -0.74052  -0.70898
  Beta  occ. eigenvalues --   -0.61291  -0.57264  -0.56135  -0.54868  -0.54557
  Beta virt. eigenvalues --   -0.40546  -0.38645  -0.36164  -0.34593  -0.31900
  Beta virt. eigenvalues --   -0.26254  -0.18270  -0.14897  -0.14578  -0.11352
  Beta virt. eigenvalues --   -0.10841  -0.09766  -0.08315  -0.06473  -0.05980

 Mulliken charges and spin densities:
               1          2
     1  C   -0.236490   0.404789
     2  C    0.701779   0.038204
     3  C    0.367113   0.212304
     4  C    0.367113   0.212304
     5  C    0.701779   0.038204
     6  C   -0.450648   0.047097
     7  C   -0.450648   0.047097
 Sum of Mulliken charges =   1.00000   1.00000

 Dipole moment (field-independent basis, Debye):
    X=             -0.0000    Y=             -0.0000    Z=              0.8587  Tot=              0.8587
 Quadrupole moment (field-independent basis, Debye-Ang):
   XX=            -36.2205   YY=            -30.5645   ZZ=            -31.6284
   XY=             -0.0005   XZ=             -0.0000   YZ=              0.0000

  Exact polarizability:  37.597  -0.004  80.260   0.000  -0.000  97.871
 Approx polarizability:  58.850  -0.014 170.792   0.000   0.000 208.658

                      1                      2                      3
                      A                      A                      B
 Frequencies --    122.2919               163.0895               192.3830
 Red. masses --     12.0000                12.0000                12.0000
 Frc consts  --      0.1057                 0.1881                 0.2617
 IR Inten    --     15.0320                 0.0000                 2.3377

                      4                      5                      6
                      B                      B                      B
 Frequencies --    227.8697               460.9754               470.1076
 Red. masses --     12.0000                12.0000                12.0000
 Frc consts  --      0.3671                 1.5024                 1.5625
 IR Inten    --      6.1875                 3.1587                19.3183

                      7                      8                      9
                      A                      A                      B
 Frequencies --    541.7825               616.1158               745.4342
 Red. masses --     12.0000                12.0000                12.0000
 Frc consts  --      2.0753                 2.6838                 3.9287
 IR Inten    --      4.1006                 0.0000                16.0241

                     10                     11                     12
                      A                      A                      B
 Frequencies --    794.0458               950.9599              1311.4739
 Red. masses --     12.0000                12.0000                12.0000
 Frc consts  --      4.4578                 6.3938                12.1605
 IR Inten    --      0.3286                 0.7057                 8.1740

                     13                     14                     15
                      B                      A                      A
 Frequencies --   1590.6769              1622.4486              1752.9388
 Red. masses --     12.0000                12.0000                12.0000
 Frc consts  --     17.8894                18.6112                21.7253
 IR Inten    --    345.1485                24.7059               378.3919

 - Thermochemistry -
 -------------------
 Temperature   298.150 Kelvin.  Pressure   1.00000 Atm.
 Atom     1 has atomic number  6 and mass  12.00000

 Molecular mass:    84.00000 amu.
 Principal axes and moments of inertia in atomic units:
                           1         2         3
     Eigenvalues --   340.01916 456.15555 796.17470
           X            0.00000  -0.00008   1.00000
           Y           -0.00000   1.00000   0.00008
           Z            1.00000   0.00000  -0.00000
 This molecule is an asymmetric top.
 Rotational symmetry number  2.
 Rotational temperatures (Kelvin)      0.25473     0.18988     0.10879
 Rotational constants (GHZ):           5.30776     3.95642     2.26677
 Zero-point vibrational energy      69159.7 (Joules/Mol)
                                   16.52956 (Kcal/Mol)
 Warning -- explicit consideration of   8 degrees of freedom as
           vibrations may cause significant error
 Vibrational temperatures:    175.95   234.65   276.80   327.85   663.24
          (Kelvin)            676.38   779.50   886.45  1072.51  1142.45
                             1368.22  1886.92  2288.63  2334.34  2522.08

 Zero-point correction=                           0.026342 (Hartree/Particle)
 Thermal correction to Energy=                    0.032666
 Thermal correction to Enthalpy=                  0.033610
 Thermal correction to Gibbs Free Energy=        -0.003595
 Sum of electronic and zero-point Energies=           -265.896467
 Sum of electronic and thermal Energies=              -265.890142
 Sum of electronic and thermal Enthalpies=            -265.889198
 Sum of electronic and thermal Free Energies=         -265.926403

                     E (Thermal)             CV                S
                      KCal/Mol        Cal/Mol-Kelvin    Cal/Mol-Kelvin
 Total                   20.498             20.352             78.304
 Electronic               0.000              0.000              1.377
 Translational            0.889              2.981             39.198
 Rotational               0.889              2.981             24.938
 Vibrational             18.721             14.391             12.790
 Vibration     1          0.610              1.931              3.064
 Vibration     2          0.623              1.888              2.514
 Vibration     3          0.634              1.850              2.205
 Vibration     4          0.651              1.799              1.896
 Vibration     5          0.819              1.337              0.763
 Vibration     6          0.827              1.316              0.737
 Vibration     7          0.897              1.158              0.561
 Vibration     8          0.976              0.998              0.423

 Optimization completed.
    -- Stationary point found.
 Normal termination of Gaussian 09 at Tue Nov  1 20:41:03 2016.
