 Gaussian 09, Revision E.01,
 Gaussian 09:  EM64L-G09RevE.01 30-Nov-2015

 -----------------------------------------
 #p b3lyp/6-311+G(3df) freq symmetry=Loose
 -----------------------------------------

 ---------
 b3lyp opt
 ---------
 Symbolic Z-matrix:
 Charge =  2 Multiplicity = 1

                         Standard orientation:
 ---------------------------------------------------------------------
 Center     Atomic      Atomic             Coordinates (Angstroms)
 Number     Number       Type             X           Y           Z
 ---------------------------------------------------------------------
      1          6           0       -0.673321   -0.931486    1.365672
      2          6           0       -0.673321    0.408997   -0.707256
      3          6           0        0.673211    0.538583   -0.000000
      4          6           0       -0.673321   -0.931486   -1.365672
      5          6           0        1.805495    1.392017   -0.000000
      6          6           0        0.214576   -0.885622    0.000000
      7          6           0       -0.673321    0.408997    0.707256
 ---------------------------------------------------------------------

 SCF Done:  E(RB3LYP) =  -265.211052112     A.U. after   15 cycles

 The electronic state is 1-A'.
 Alpha  occ. eigenvalues --  -10.86212 -10.81587 -10.81487 -10.81440 -10.80680
 Alpha  occ. eigenvalues --  -10.80680 -10.78980  -1.59301  -1.29982  -1.28579
 Alpha  occ. eigenvalues --   -1.22093  -1.13393  -0.97019  -0.94197  -0.92814
 Alpha  occ. eigenvalues --   -0.90507  -0.87716  -0.82475  -0.77021  -0.76128
 Alpha virt. eigenvalues --   -0.66245  -0.65105  -0.61556  -0.60450  -0.56720
 Alpha virt. eigenvalues --   -0.52819  -0.38813  -0.37381  -0.32831  -0.30930
 Alpha virt. eigenvalues --   -0.30447  -0.29495  -0.28116  -0.26170  -0.24128

 Mulliken charges:
               1
     1  C    0.121009
     2  C    0.253792
     3  C    0.687520
     4  C    0.121009
     5  C    0.816266
     6  C   -0.253387
     7  C    0.253792
 Sum of Mulliken charges =   2.00000

 Dipole moment (field-independent basis, Debye):
    X=              1.3608    Y=              1.9652    Z=             -0.0000  Tot=              2.3903
 Quadrupole moment (field-independent basis, Debye-Ang):
   XX=            -22.4704   YY=            -25.7131   ZZ=            -27.1706
   XY=              4.6294   XZ=             -0.0000   YZ=             -0.0000

  Exact polarizability:  62.432  17.721  60.519  -0.000  -0.000  55.415
 Approx polarizability: 166.706  55.952 161.120   0.000   0.000 120.608

                      1                      2                      3
                     A"                     A'                     A'
 Frequencies --    126.6057               169.3730               187.8699
 Red. masses --     12.0000                12.0000                12.0000
 Frc consts  --      0.1133                 0.2028                 0.2495
 IR Inten    --      3.1519                12.3225                25.3438

                      4                      5                      6
                     A"                     A"                     A'
 Frequencies --    217.2338               407.6591               448.1196
 Red. masses --     12.0000                12.0000                12.0000
 Frc consts  --      0.3336                 1.1750                 1.4198
 IR Inten    --      0.2356                40.3621                 7.3705

                      7                      8                      9
                     A"                     A'                     A'
 Frequencies --    604.7072               636.4613               649.1309
 Red. masses --     12.0000                12.0000                12.0000
 Frc consts  --      2.5854                 2.8640                 2.9792
 IR Inten    --      0.0007                 4.5652                 1.7250

                     10                     11                     12
                     A"                     A'                     A"
 Frequencies --    724.7790               804.6772               861.6370
 Red. masses --     12.0000                12.0000                12.0000
 Frc consts  --      3.7140                 4.5780                 5.2490
 IR Inten    --      0.8244                40.4130                81.1198

                     13                     14                     15
                     A'                     A'                     A'
 Frequencies --    968.3374              1184.7299              1492.7761
 Red. masses --     12.0000                12.0000                12.0000
 Frc consts  --      6.6296                 9.9236                15.7551
 IR Inten    --    152.5034               294.6719               271.0047

 - Thermochemistry -
 -------------------
 Temperature   298.150 Kelvin.  Pressure   1.00000 Atm.
 Atom     1 has atomic number  6 and mass  12.00000

 Molecular mass:    84.00000 amu.
 Principal axes and moments of inertia in atomic units:
                           1         2         3
     Eigenvalues --   285.37826 456.57539 576.63087
           X            0.73218   0.00000  -0.68111
           Y            0.68111   0.00000   0.73218
           Z           -0.00000   1.00000   0.00000
 This molecule is an asymmetric top.
 Rotational symmetry number  1.
 Rotational temperatures (Kelvin)      0.30351     0.18970     0.15021
 Rotational constants (GHZ):           6.32403     3.95278     3.12980
 Zero-point vibrational energy      56727.5 (Joules/Mol)
                                   13.55820 (Kcal/Mol)
 Warning -- explicit consideration of   7 degrees of freedom as
           vibrations may cause significant error
 Vibrational temperatures:    182.16   243.69   270.30   312.55   586.53
          (Kelvin)            644.74   870.04   915.72   933.95  1042.79
                             1157.75  1239.70  1393.22  1704.56  2147.77

 Zero-point correction=                           0.021606 (Hartree/Particle)
 Thermal correction to Energy=                    0.028156
 Thermal correction to Enthalpy=                  0.029100
 Thermal correction to Gibbs Free Energy=        -0.008168
 Sum of electronic and zero-point Energies=           -265.189446
 Sum of electronic and thermal Energies=              -265.182896
 Sum of electronic and thermal Enthalpies=            -265.181952
 Sum of electronic and thermal Free Energies=         -265.219220

                     E (Thermal)             CV                S
                      KCal/Mol        Cal/Mol-Kelvin    Cal/Mol-Kelvin
 Total                   17.668             21.851             78.438
 Electronic               0.000              0.000              0.000
 Translational            0.889              2.981             39.198
 Rotational               0.889              2.981             25.822
 Vibrational             15.891             15.889             13.418
 Vibration     1          0.611              1.927              2.997
 Vibration     2          0.625              1.880              2.442
 Vibration     3          0.633              1.857              2.249
 Vibration     4          0.646              1.815              1.982
 Vibration     5          0.772              1.454              0.935
 Vibration     6          0.807              1.365              0.801
 Vibration     7          0.963              1.022              0.442

 Optimization completed.
    -- Stationary point found.

 1\1\GINC-BELVIS17\Freq\RB3LYP\6-311+G(3df)\C7(2+)\ROOT\23-Oct-2016\0\\
 #p b3lyp/6-311+G(3df) freq symmetry=Loose\\b3lyp opt\\2,1\C,1.14237066
 3,1.259307164,0.543343763\C,0.346591555,-0.998645529,-0.058579185\C,-0
 .841906511,-0.0689814109,0.1723936631\C,0.9005411854,-0.6450273465,-1.
 3996615278\C,-2.23398135,-0.1532250798,0.4282204792\C,0.2145549759,0.6
 189997994,-0.6333838086\C,0.4718304812,-0.0124265966,0.9476666153\\Ver
 sion=EM64L-G09RevE.01\State=1-A'\HF=-265.2110521\RMSD=9.780e-09\RMSF=1
 .993e-05\ZeroPoint=0.0216064\Thermal=0.028156\Dipole=-0.8270321,-0.263

 Normal termination of Gaussian 09 at Sun Oct 23 12:25:27 2016.
