 Gaussian 09, Revision E.01,
 Gaussian 09:  EM64L-G09RevE.01 30-Nov-2015

 -----------------------------------------
 #p b3lyp/6-311+G(3df) freq symmetry=Loose
 -----------------------------------------

 ---------
 b3lyp opt
 ---------
 Symbolic Z-matrix:
 Charge =  2 Multiplicity = 1

                         Standard orientation:
 ---------------------------------------------------------------------
 Center     Atomic      Atomic             Coordinates (Angstroms)
 Number     Number       Type             X           Y           Z
 ---------------------------------------------------------------------
      1          6           0       -0.000000    1.487696    0.000000
      2          6           0        1.450397   -0.331044    0.000000
      3          6           0       -0.645487   -1.340368    0.000000
      4          6           0        0.645487   -1.340368    0.000000
      5          6           0       -1.450397   -0.331044    0.000000
      6          6           0       -1.163128    0.927563    0.000000
      7          6           0        1.163128    0.927563    0.000000
 ---------------------------------------------------------------------

 SCF Done:  E(RB3LYP) =  -265.577613153     A.U. after   10 cycles

 Unable to determine electronic state:  an orbital has unidentified symmetry.
 Alpha  occ. eigenvalues --  -10.75660 -10.75630 -10.75630 -10.75528 -10.75528
 Alpha  occ. eigenvalues --  -10.75448 -10.75448  -1.41876  -1.31638  -1.31638
 Alpha  occ. eigenvalues --   -1.16632  -1.16632  -1.05502  -1.05502  -0.91930
 Alpha  occ. eigenvalues --   -0.91350  -0.81851  -0.81851  -0.79849  -0.79849
 Alpha virt. eigenvalues --   -0.57507  -0.57507  -0.56807  -0.56807  -0.56594
 Alpha virt. eigenvalues --   -0.56594  -0.32374  -0.32282  -0.32282  -0.26071
 Alpha virt. eigenvalues --   -0.25286  -0.25285  -0.23642  -0.20953  -0.20952

 Mulliken charges:
               1
     1  C    0.292992
     2  C    0.280680
     3  C    0.282887
     4  C    0.282887
     5  C    0.280680
     6  C    0.289937
     7  C    0.289937
 Sum of Mulliken charges =   2.00000

 Dipole moment (field-independent basis, Debye):
    X=              0.0000    Y=              0.0000    Z=              0.0000  Tot=              0.0000
 Quadrupole moment (field-independent basis, Debye-Ang):
   XX=            -15.2372   YY=            -15.2372   ZZ=            -32.0490
   XY=             -0.0000   XZ=             -0.0000   YZ=              0.0000

  Exact polarizability:  65.211   0.000  65.211  -0.000   0.000  26.645
 Approx polarizability: 186.353   0.000 186.354  -0.000   0.000  39.325

                      1                      2                      3
                     ?A                     ?A                     ?A
 Frequencies --    391.9089               392.3628               435.6394
 Red. masses --     12.0000                12.0000                12.0000
 Frc consts  --      1.0859                 1.0884                 1.3418
 IR Inten    --      0.0000                 0.0000                 0.0000

                      4                      5                      6
                     ?A                     ?A                     ?A
 Frequencies --    435.7378               508.2744               508.3609
 Red. masses --     12.0000                12.0000                12.0000
 Frc consts  --      1.3424                 1.8265                 1.8272
 IR Inten    --      0.0000                 0.0000                 0.0000

                      7                      8                      9
                     ?A                     ?A                     ?A
 Frequencies --    510.7413               511.1643              1112.9706
 Red. masses --     12.0000                12.0000                12.0000
 Frc consts  --      1.8443                 1.8474                 8.7579
 IR Inten    --      0.0000                 0.0000                 0.0000

                     10                     11                     12
                     ?A                     ?A                     ?A
 Frequencies --   1377.3070              1377.3328              1801.2505
 Red. masses --     12.0000                12.0000                12.0000
 Frc consts  --     13.4120                13.4125                22.9393
 IR Inten    --     13.9103                13.9109                 0.0000

                     13                     14                     15
                     ?A                     ?A                     ?A
 Frequencies --   1801.2640              1818.7900              1818.9123
 Red. masses --     12.0000                12.0000                12.0000
 Frc consts  --     22.9396                23.3882                23.3913
 IR Inten    --      0.0000                 0.0000                 0.0000

 - Thermochemistry -
 -------------------
 Temperature   298.150 Kelvin.  Pressure   1.00000 Atm.
 Atom     1 has atomic number  6 and mass  12.00000

 Molecular mass:    84.00000 amu.
 Principal axes and moments of inertia in atomic units:
                           1         2         3
     Eigenvalues --   331.95222 331.95222 663.90445
           X            0.95616   0.29284   0.00000
           Y           -0.29284   0.95616   0.00000
           Z            0.00000   0.00000   1.00000
 This molecule is an oblate symmetric top.
 Rotational symmetry number 14.
 Rotational temperatures (Kelvin)      0.26092     0.26092     0.13046
 Rotational constants (GHZ):           5.43675     5.43675     2.71837
 Zero-point vibrational energy      88535.7 (Joules/Mol)
                                   21.16055 (Kcal/Mol)
 Warning -- explicit consideration of   8 degrees of freedom as
           vibrations may cause significant error
 Vibrational temperatures:    563.87   564.52   626.79   626.93   731.29
          (Kelvin)            731.42   734.84   735.45  1601.31  1981.64
                             1981.67  2591.59  2591.61  2616.83  2617.01

 Zero-point correction=                           0.033721 (Hartree/Particle)
 Thermal correction to Energy=                    0.038654
 Thermal correction to Enthalpy=                  0.039598
 Thermal correction to Gibbs Free Energy=         0.008210
 Sum of electronic and zero-point Energies=           -265.543892
 Sum of electronic and thermal Energies=              -265.538959
 Sum of electronic and thermal Enthalpies=            -265.538015
 Sum of electronic and thermal Free Energies=         -265.569403

                     E (Thermal)             CV                S
                      KCal/Mol        Cal/Mol-Kelvin    Cal/Mol-Kelvin
 Total                   24.256             17.230             66.063
 Electronic               0.000              0.000              0.000
 Translational            0.889              2.981             39.198
 Rotational               0.889              2.981             20.551
 Vibrational             22.478             11.269              6.314
 Vibration     1          0.759              1.487              0.993
 Vibration     2          0.760              1.487              0.991
 Vibration     3          0.796              1.393              0.840
 Vibration     4          0.796              1.392              0.840
 Vibration     5          0.863              1.232              0.638
 Vibration     6          0.864              1.231              0.638
 Vibration     7          0.866              1.226              0.632
 Vibration     8          0.866              1.225              0.631

 Optimization completed.
    -- Stationary point found.

 1\1\GINC-BELVIS17\Freq\RB3LYP\6-311+G(3df)\C7(2+)\ROOT\23-Oct-2016\0\\
 #p b3lyp/6-311+G(3df) freq symmetry=Loose\\b3lyp opt\\2,1\C,0.05293616
 41,-1.4215251301,-0.4355510488\C,1.432924384,0.3310418529,0.224453878\
 C,-0.6906471596,1.2741972962,0.3356596753\C,0.5952600305,1.2873019349,
 0.4491761948\C,-1.4564828444,0.301595997,-0.030615426\C,-1.1255571331,
 -0.898113347,-0.3738364872\C,1.1915675575,-0.8744996039,-0.1692867871\
 \Version=EM64L-G09RevE.01\HF=-265.5776132\RMSD=1.867e-09\RMSF=2.742e-0
 5\ZeroPoint=0.0337215\Thermal=0.0386543\Dipole=0.0000007,-0.0000178,-0

 Normal termination of Gaussian 09 at Sun Oct 23 12:24:25 2016.
