 Gaussian 09, Revision E.01,
 Gaussian 09:  EM64L-G09RevE.01 30-Nov-2015

 -----------------------------------------
 #p b3lyp/6-311+G(3df) freq symmetry=Loose
 -----------------------------------------

 ---------
 b3lyp opt
 ---------
 Symbolic Z-matrix:
 Charge =  2 Multiplicity = 1

                         Standard orientation:
 ---------------------------------------------------------------------
 Center     Atomic      Atomic             Coordinates (Angstroms)
 Number     Number       Type             X           Y           Z
 ---------------------------------------------------------------------
      1          6           0       -0.227429    0.565222    0.878754
      2          6           0       -0.227429    0.565222   -0.878754
      3          6           0        0.941456    0.252451   -0.000000
      4          6           0       -0.227429   -0.894530   -0.742344
      5          6           0        0.947641   -1.298033   -0.000000
      6          6           0       -0.227429   -0.894530    0.742344
      7          6           0       -0.979379    1.704197    0.000000
 ---------------------------------------------------------------------

 SCF Done:  E(RB3LYP) =  -265.234420950     A.U. after   14 cycles

 The electronic state is 1-A'.
 Alpha  occ. eigenvalues --  -10.84216 -10.84187 -10.83929 -10.83023 -10.81927
 Alpha  occ. eigenvalues --  -10.81921 -10.80162  -1.63810  -1.39197  -1.26154
 Alpha  occ. eigenvalues --   -1.19722  -1.15998  -1.00967  -0.98595  -0.93815
 Alpha  occ. eigenvalues --   -0.91719  -0.88465  -0.86688  -0.83554  -0.76187
 Alpha virt. eigenvalues --   -0.66492  -0.65168  -0.63451  -0.56939  -0.56845
 Alpha virt. eigenvalues --   -0.43548  -0.40908  -0.37910  -0.36151  -0.30829
 Alpha virt. eigenvalues --   -0.29441  -0.28338  -0.26772  -0.24250  -0.23471

 Mulliken charges:
               1
     1  C    0.193785
     2  C    0.193785
     3  C    0.402362
     4  C    0.601048
     5  C   -0.150370
     6  C    0.601048
     7  C    0.158341
 Sum of Mulliken charges =   2.00000

 Dipole moment (field-independent basis, Debye):
    X=             -0.6993    Y=             -0.3986    Z=             -0.0000  Tot=              0.8049
 Quadrupole moment (field-independent basis, Debye-Ang):
   XX=            -27.4283   YY=            -22.1031   ZZ=            -26.3115
   XY=             -1.6086   XZ=             -0.0000   YZ=              0.0000

  Exact polarizability:  48.093 -11.357  62.125  -0.000   0.000  44.078
 Approx polarizability: 125.685 -30.896 162.661  -0.000  -0.000 118.873

                      1                      2                      3
                     A'                     A"                     A'
 Frequencies --    190.6575               278.0942               516.4714
 Red. masses --     12.0000                12.0000                12.0000
 Frc consts  --      0.2570                 0.5468                 1.8859
 IR Inten    --     14.8968                37.2824                51.7060

                      4                      5                      6
                     A"                     A'                     A"
 Frequencies --    521.7393               552.4211               597.7737
 Red. masses --     12.0000                12.0000                12.0000
 Frc consts  --      1.9246                 2.1576                 2.5264
 IR Inten    --     20.8299                28.5315                 3.4012

                      7                      8                      9
                     A'                     A'                     A"
 Frequencies --    664.2340               775.1439               785.0684
 Red. masses --     12.0000                12.0000                12.0000
 Frc consts  --      3.1194                 4.2481                 4.3576
 IR Inten    --      1.7034               129.9641                 1.3053

                     10                     11                     12
                     A'                     A"                     A'
 Frequencies --    921.2424               937.4513              1006.8822
 Red. masses --     12.0000                12.0000                12.0000
 Frc consts  --      6.0004                 6.2134                 7.1678
 IR Inten    --     30.2926                 3.3207                86.1245

                     13                     14                     15
                     A"                     A'                     A'
 Frequencies --   1104.6365              1217.7587              1250.6924
 Red. masses --     12.0000                12.0000                12.0000
 Frc consts  --      8.6272                10.4846                11.0594
 IR Inten    --     31.9746                76.3800                62.5334

 - Thermochemistry -
 -------------------
 Temperature   298.150 Kelvin.  Pressure   1.00000 Atm.
 Atom     1 has atomic number  6 and mass  12.00000

 Molecular mass:    84.00000 amu.
 Principal axes and moments of inertia in atomic units:
                           1         2         3
     Eigenvalues --   187.49262 421.78575 461.11856
           X           -0.43742   0.00000   0.89926
           Y            0.89926  -0.00000   0.43742
           Z            0.00000   1.00000   0.00000
 This molecule is an asymmetric top.
 Rotational symmetry number  1.
 Rotational temperatures (Kelvin)      0.46196     0.20535     0.18783
 Rotational constants (GHZ):           9.62567     4.27881     3.91383
 Zero-point vibrational energy      67710.2 (Joules/Mol)
                                   16.18313 (Kcal/Mol)
 Warning -- explicit consideration of   6 degrees of freedom as
           vibrations may cause significant error
 Vibrational temperatures:    274.31   400.12   743.09   750.67   794.81
          (Kelvin)            860.06   955.68  1115.26  1129.54  1325.46
                             1348.78  1448.68  1589.32  1752.08  1799.47

 Zero-point correction=                           0.025789 (Hartree/Particle)
 Thermal correction to Energy=                    0.030899
 Thermal correction to Enthalpy=                  0.031843
 Thermal correction to Gibbs Free Energy=        -0.002156
 Sum of electronic and zero-point Energies=           -265.208631
 Sum of electronic and thermal Energies=              -265.203522
 Sum of electronic and thermal Enthalpies=            -265.202578
 Sum of electronic and thermal Free Energies=         -265.236577

                     E (Thermal)             CV                S
                      KCal/Mol        Cal/Mol-Kelvin    Cal/Mol-Kelvin
 Total                   19.389             18.318             71.558
 Electronic               0.000              0.000              0.000
 Translational            0.889              2.981             39.198
 Rotational               0.889              2.981             25.103
 Vibrational             17.612             12.356              7.256
 Vibration     1          0.634              1.853              2.221
 Vibration     2          0.679              1.714              1.545
 Vibration     3          0.871              1.214              0.618
 Vibration     4          0.877              1.202              0.606
 Vibration     5          0.908              1.134              0.539
 Vibration     6          0.956              1.037              0.454

 Optimization completed.
    -- Stationary point found.

 1\1\GINC-BELVIS17\Freq\RB3LYP\6-311+G(3df)\C7(2+)\ROOT\23-Oct-2016\0\\
 #p b3lyp/6-311+G(3df) freq symmetry=Loose\\b3lyp opt\\2,1\C,0.17220824
 8,0.742365535,0.750097738\C,0.9067346021,-0.5179373082,-0.2301787801\C
 ,-0.3004651658,-0.6720376124,0.6388720727\C,-0.238637461,-0.303257357,
 -1.119852192\C,-1.4596849059,-0.5521954142,-0.3838137652\C,-0.85914238
 94,0.7614071321,-0.2917451985\C,1.7789870711,0.5416540249,0.6366211249
 \\Version=EM64L-G09RevE.01\State=1-A'\HF=-265.234421\RMSD=4.751e-09\RM
 SF=1.090e-04\ZeroPoint=0.0257895\Thermal=0.0308987\Dipole=0.0258771,0.

 Normal termination of Gaussian 09 at Sun Oct 23 12:25:13 2016.
