 Gaussian 09, Revision C.01,
 Gaussian 09:  AM64L-G09RevC.01 23-Sep-2011

 ---------------------------------------------
 #p b3lyp/6-311++G(3df,2p) freq symmetry=Loose
 ---------------------------------------------

 (Enter /home/nestor/.gaussian09/l101.exe)
 ---------
 b3lyp opt
 ---------
 Charge =  0 Multiplicity = 1

                         Standard orientation:
 ---------------------------------------------------------------------
 Center     Atomic      Atomic             Coordinates (Angstroms)
 Number     Number       Type             X           Y           Z
 ---------------------------------------------------------------------
      1          6           0        0.894739    0.958244    1.089034
      2          6           0        0.894739    0.021516    0.000000
      3          6           0        0.158089   -2.462740    0.000000
      4          6           0       -1.368244   -0.424268    0.000000
      5          6           0        0.894739    0.958244   -1.089034
      6          6           0       -1.347896    0.802492    0.000000
      7          6           0        0.007106    1.331593    0.000000
      8          6           0       -0.133272   -1.185082    0.000000
 ---------------------------------------------------------------------

 SCF Done:  E(RB3LYP) =  -304.305892369     A.U. after   15 cycles

 The electronic state is 1-A'.
 Alpha  occ. eigenvalues --  -10.31741 -10.31488 -10.28650 -10.27672 -10.27625
 Alpha  occ. eigenvalues --  -10.27397 -10.27027 -10.27024  -1.05909  -0.89308
 Alpha  occ. eigenvalues --   -0.82946  -0.71702  -0.69131  -0.62260  -0.59597
 Alpha  occ. eigenvalues --   -0.46045  -0.44870  -0.44165  -0.42066  -0.36439
 Alpha  occ. eigenvalues --   -0.34017  -0.31933  -0.30852  -0.28885
 Alpha virt. eigenvalues --   -0.20411  -0.16573  -0.11395  -0.09841  -0.07816
 Alpha virt. eigenvalues --   -0.02745   0.01186   0.01933   0.02704   0.02776
 Alpha virt. eigenvalues --    0.03917   0.05025   0.05928   0.06531   0.06760

 Mulliken atomic charges:
              1
     1  C   -0.394377
     2  C    0.046294
     3  C   -0.546534
     4  C    0.035290
     5  C   -0.394377
     6  C    0.242899
     7  C   -0.018328
     8  C    1.029134
 Sum of Mulliken atomic charges =   0.00000

 Dipole moment (field-independent basis, Debye):
    X=             -1.8734    Y=              0.5269    Z=              0.0000  Tot=              1.9461
 Quadrupole moment (field-independent basis, Debye-Ang):
   XX=            -44.6834   YY=            -50.6995   ZZ=            -51.8113
   XY=             -1.3404   XZ=              0.0000   YZ=              0.0000

  Exact polarizability:  74.120   1.105  96.963   0.000   0.000  69.688
 Approx polarizability: 133.550  -8.483 209.774   0.000   0.000 148.976

                     1                      2                      3
                    A'                     A"                     A"
 Frequencies --   158.4213               174.9653               209.7397
 Red. masses --    12.0000                12.0000                12.0000
 Frc consts  --     0.1774                 0.2164                 0.3110
 IR Inten    --    18.1374                 1.4765                 1.1586

                     4                      5                      6
                    A'                     A"                     A'
 Frequencies --   366.8557               367.6781               492.1251
 Red. masses --    12.0000                12.0000                12.0000
 Frc consts  --     0.9515                 0.9558                 1.7123
 IR Inten    --    54.2193                 0.0231                36.5447

                     7                      8                      9
                    A"                     A'                     A"
 Frequencies --   503.6379               582.3189               604.8441
 Red. masses --    12.0000                12.0000                12.0000
 Frc consts  --     1.7934                 2.3975                 2.5865
 IR Inten    --     0.0281                 1.6249                 0.0186

                    10                     11                     12
                    A'                     A'                     A'
 Frequencies --   704.1690               887.8322               938.5408
 Red. masses --    12.0000                12.0000                12.0000
 Frc consts  --     3.5058                 5.5731                 6.2278
 IR Inten    --     0.5031                 6.4143                13.6029

                    13                     14                     15
                    A'                     A'                     A"
 Frequencies --   958.4047              1119.8591              1231.2022
 Red. masses --    12.0000                12.0000                12.0000
 Frc consts  --     6.4943                 8.8666                10.7174
 IR Inten    --     0.9433                 0.9731                 3.5925

                    16                     17                     18
                    A'                     A'                     A'
 Frequencies --  1311.0873              1727.2890              2016.3321
 Red. masses --    12.0000                12.0000                12.0000
 Frc consts  --    12.1533                21.0941                28.7446
 IR Inten    --    53.9168                42.3053                 3.0219

 - Thermochemistry -
 -------------------
 Temperature   298.150 Kelvin.  Pressure   1.00000 Atm.
 Atom     1 has atomic number  6 and mass  12.00000

 Molecular mass:    96.00000 amu.
 Principal axes and moments of inertia in atomic units:
                           1         2         3
     Eigenvalues --   357.10939 619.11700 772.93377
           X            0.16771   0.98584   0.00000
           Y            0.98584  -0.16771   0.00000
           Z            0.00000   0.00000   1.00000
 This molecule is an asymmetric top.
 Rotational symmetry number  1.
 Rotational temperatures (Kelvin)      0.24254     0.13990     0.11206
 Rotational constants (GHZ):           5.05375     2.91502     2.33492
 Zero-point vibrational energy      85863.8 (Joules/Mol)
                                   20.52194 (Kcal/Mol)
 Warning -- explicit consideration of   9 degrees of freedom as
           vibrations may cause significant error
 Vibrational temperatures:    227.93   251.74   301.77   527.82   529.01
          (Kelvin)            708.06   724.62   837.83   870.23  1013.14
                             1277.39  1350.35  1378.93  1611.23  1771.42
                             1886.36  2485.18  2901.05

 Zero-point correction=                           0.032704 (Hartree/Particle)
 Thermal correction to Energy=                    0.039084
 Thermal correction to Enthalpy=                  0.040028
 Thermal correction to Gibbs Free Energy=         0.002746
 Sum of electronic and zero-point Energies=           -304.273189
 Sum of electronic and thermal Energies=              -304.266808
 Sum of electronic and thermal Enthalpies=            -304.265864
 Sum of electronic and thermal Free Energies=         -304.303146

                     E (Thermal)             CV                S
                      KCal/Mol        Cal/Mol-Kelvin    Cal/Mol-Kelvin
 Total                   24.526             22.082             78.466
 Electronic               0.000              0.000              0.000
 Translational            0.889              2.981             39.596
 Rotational               0.889              2.981             26.638
 Vibrational             22.748             16.120             12.232
 Vibration     1          0.621              1.893              2.569
 Vibration     2          0.627              1.873              2.381
 Vibration     3          0.642              1.826              2.046
 Vibration     4          0.740              1.540              1.093
 Vibration     5          0.740              1.539              1.089
 Vibration     6          0.848              1.267              0.678
 Vibration     7          0.859              1.242              0.649
 Vibration     8          0.939              1.070              0.481
 Vibration     9          0.963              1.022              0.441

 Normal termination of Gaussian 09 at Wed Jul  6 15:38:03 2016.
