 Gaussian 09, Revision C.01,
 Gaussian 09:  AM64L-G09RevC.01 23-Sep-2011

 ---------------------------------------------
 #p b3lyp/6-311++G(3df,2p) freq symmetry=Loose
 ---------------------------------------------

 (Enter /home/nestor/.gaussian09/l101.exe)
 ---------
 b3lyp opt
 ---------
 Charge =  0 Multiplicity = 3

                         Standard orientation:
 ---------------------------------------------------------------------
 Center     Atomic      Atomic             Coordinates (Angstroms)
 Number     Number       Type             X           Y           Z
 ---------------------------------------------------------------------
      1          6           0        0.000000   -0.966564   -0.724103
      2          6           0        0.000000    1.655152    0.569750
      3          6           0        0.000000   -0.663088    1.379813
      4          6           0        0.000000   -1.655152    0.569750
      5          6           0        0.924506    0.000000   -1.225460
      6          6           0       -0.924506    0.000000   -1.225460
      7          6           0        0.000000    0.966564   -0.724103
      8          6           0        0.000000    0.663088    1.379813
 ---------------------------------------------------------------------

 SCF Done:  E(UB3LYP) =  -304.359705625     A.U. after   17 cycles

 The electronic state is 3-B1.
 Alpha  occ. eigenvalues --  -10.32245 -10.32244 -10.29114 -10.29113 -10.24684
 Alpha  occ. eigenvalues --  -10.24598 -10.24303 -10.24301  -1.04294  -0.88162
 Alpha  occ. eigenvalues --   -0.84114  -0.69214  -0.67273  -0.66753  -0.55386
 Alpha  occ. eigenvalues --   -0.50297  -0.49195  -0.47560  -0.40609  -0.38836
 Alpha  occ. eigenvalues --   -0.35324  -0.33208  -0.30293  -0.27632  -0.23809
 Alpha virt. eigenvalues --   -0.12385  -0.11155  -0.08763  -0.07647  -0.06561
 Alpha virt. eigenvalues --    0.01383   0.02890   0.02930   0.03974   0.05985
 Alpha virt. eigenvalues --    0.06078   0.06432   0.06758   0.07267   0.08028

  Beta  occ. eigenvalues --  -10.31983 -10.31983 -10.28248 -10.28244 -10.24431
  Beta  occ. eigenvalues --  -10.24347 -10.23559 -10.23557  -1.03557  -0.87412
  Beta  occ. eigenvalues --   -0.83441  -0.68075  -0.66568  -0.64776  -0.54307
  Beta  occ. eigenvalues --   -0.49597  -0.46704  -0.46452  -0.39369  -0.34012
  Beta  occ. eigenvalues --   -0.31810  -0.30718  -0.26753
  Beta virt. eigenvalues --   -0.18676  -0.14411  -0.09631  -0.08964  -0.07173
  Beta virt. eigenvalues --   -0.06419  -0.06149   0.01644   0.03051   0.03119
  Beta virt. eigenvalues --    0.04327   0.06078   0.06308   0.06685   0.07246

 Mulliken atomic charges:
              1
     1  C    0.432759
     2  C   -0.206927
     3  C    0.331847
     4  C   -0.206927
     5  C   -0.557679
     6  C   -0.557679
     7  C    0.432759
     8  C    0.331847
 Sum of Mulliken atomic charges =   0.00000

 Dipole moment (field-independent basis, Debye):
    X=              0.0000    Y=              0.0000    Z=             -0.9484  Tot=              0.9484
 Quadrupole moment (field-independent basis, Debye-Ang):
   XX=            -47.3783   YY=            -49.0769   ZZ=            -43.9737
   XY=              0.0000   XZ=              0.0000   YZ=              0.0000

  Exact polarizability:  72.351   0.000 110.078   0.000   0.000  85.674
 Approx polarizability: 154.348   0.000 295.721   0.000   0.000 173.067

                     1                      2                      3
                    B1                     B2                     A2
 Frequencies --   184.4457               308.2315               415.2772
 Red. masses --    12.0000                12.0000                12.0000
 Frc consts  --     0.2405                 0.6717                 1.2193
 IR Inten    --     8.8283                15.4512                 0.0000

                     4                      5                      6
                    B1                     A2                     A1
 Frequencies --   432.8506               463.7201               489.7612
 Red. masses --    12.0000                12.0000                12.0000
 Frc consts  --     1.3247                 1.5203                 1.6959
 IR Inten    --     4.7902                 0.0000                11.5690

                     7                      8                      9
                    A1                     B2                     A2
 Frequencies --   524.1987               540.8596               670.6187
 Red. masses --    12.0000                12.0000                12.0000
 Frc consts  --     1.9428                 2.0682                 3.1797
 IR Inten    --    15.3900                27.2061                 0.0000

                    10                     11                     12
                    A1                     B2                     A1
 Frequencies --   701.6429               759.2526               853.5680
 Red. masses --    12.0000                12.0000                12.0000
 Frc consts  --     3.4807                 4.0757                 5.1512
 IR Inten    --    15.7489                59.9894                 0.1949

                    13                     14                     15
                    B1                     A1                     B2
 Frequencies --   867.8895              1138.4751              1149.6980
 Red. masses --    12.0000                12.0000                12.0000
 Frc consts  --     5.3255                 9.1639                 9.3454
 IR Inten    --   151.4308                 1.7526                 1.7643

                    16                     17                     18
                    A1                     B2                     A1
 Frequencies --  1402.1627              1608.4265              1848.9182
 Red. masses --    12.0000                12.0000                12.0000
 Frc consts  --    13.9004                18.2908                24.1695
 IR Inten    --    56.7281               319.6153                53.6645

 - Thermochemistry -
 -------------------
 Temperature   298.150 Kelvin.  Pressure   1.00000 Atm.
 Atom     1 has atomic number  6 and mass  12.00000

 Molecular mass:    96.00000 amu.
 Principal axes and moments of inertia in atomic units:
                           1         2         3
     Eigenvalues --   425.79985 437.89436 717.18732
           X            0.00000   0.00000   1.00000
           Y            0.00000   1.00000   0.00000
           Z            1.00000   0.00000   0.00000
 This molecule is an asymmetric top.
 Rotational symmetry number  2.
 Rotational temperatures (Kelvin)      0.20341     0.19780     0.12077
 Rotational constants (GHZ):           4.23847     4.12141     2.51642
 Zero-point vibrational energy      85891.9 (Joules/Mol)
                                   20.52865 (Kcal/Mol)
 Warning -- explicit consideration of   8 degrees of freedom as
           vibrations may cause significant error
 Vibrational temperatures:    265.38   443.48   597.49   622.77   667.19
          (Kelvin)            704.66   754.20   778.18   964.87  1009.51
                             1092.39  1228.09  1248.70  1638.01  1654.16
                             2017.40  2314.16  2660.18

 Zero-point correction=                           0.032714 (Hartree/Particle)
 Thermal correction to Energy=                    0.038509
 Thermal correction to Enthalpy=                  0.039454
 Thermal correction to Gibbs Free Energy=         0.003267
 Sum of electronic and zero-point Energies=           -304.326991
 Sum of electronic and thermal Energies=              -304.321196
 Sum of electronic and thermal Enthalpies=            -304.320252
 Sum of electronic and thermal Free Energies=         -304.356439

                     E (Thermal)             CV                S
                      KCal/Mol        Cal/Mol-Kelvin    Cal/Mol-Kelvin
 Total                   24.165             21.486             76.161
 Electronic               0.000              0.000              2.183
 Translational            0.889              2.981             39.596
 Rotational               0.889              2.981             25.017
 Vibrational             22.388             15.525              9.364
 Vibration     1          0.631              1.861              2.283
 Vibration     2          0.698              1.658              1.372
 Vibration     3          0.779              1.437              0.908
 Vibration     4          0.794              1.399              0.849
 Vibration     5          0.821              1.331              0.755
 Vibration     6          0.846              1.273              0.684
 Vibration     7          0.879              1.196              0.600
 Vibration     8          0.896              1.160              0.563

 Optimization completed.
    -- Stationary point found.
 Normal termination of Gaussian 09 at Thu Jul  7 02:18:21 2016.
