 Gaussian 09, Revision C.01,
 Gaussian 09:  AM64L-G09RevC.01 23-Sep-2011

 ---------------------------------------------
 #p b3lyp/6-311++G(3df,2p) freq symmetry=Loose
 ---------------------------------------------

 (Enter /home/nestor/.gaussian09/l101.exe)
 ---------
 b3lyp opt
 ---------
 Charge =  0 Multiplicity = 1

                         Standard orientation:
 ---------------------------------------------------------------------
 Center     Atomic      Atomic             Coordinates (Angstroms)
 Number     Number       Type             X           Y           Z
 ---------------------------------------------------------------------
      1          6           0        0.000000    0.679644    1.508719
      2          6           0        0.000000   -1.449891    0.533575
      3          6           0        0.000000   -0.679644    1.508719
      4          6           0       -1.053340    0.000000   -1.276930
      5          6           0        0.000000   -0.855979   -0.765364
      6          6           0        0.000000    0.855979   -0.765364
      7          6           0        0.000000    1.449891    0.533575
      8          6           0        1.053340    0.000000   -1.276930
 ---------------------------------------------------------------------

 SCF Done:  E(RB3LYP) =  -304.396132046     A.U. after   13 cycles

 The electronic state is 1-A1.
 Alpha  occ. eigenvalues --  -10.30122 -10.30117 -10.27110 -10.27045 -10.25754
 Alpha  occ. eigenvalues --  -10.25750 -10.25540 -10.25537  -1.02325  -0.89475
 Alpha  occ. eigenvalues --   -0.83238  -0.68863  -0.68149  -0.66942  -0.57585
 Alpha  occ. eigenvalues --   -0.47431  -0.46498  -0.44639  -0.42234  -0.37598
 Alpha  occ. eigenvalues --   -0.32814  -0.31538  -0.28859  -0.26990
 Alpha virt. eigenvalues --   -0.14984  -0.14269  -0.10381  -0.09118  -0.06931
 Alpha virt. eigenvalues --   -0.02906   0.01210   0.02878   0.03228   0.04003
 Alpha virt. eigenvalues --    0.05881   0.06006   0.06007   0.06735   0.07007

 Mulliken atomic charges:
              1
     1  C    0.429251
     2  C    0.027458
     3  C    0.429251
     4  C   -0.533513
     5  C    0.076803
     6  C    0.076803
     7  C    0.027458
     8  C   -0.533513
 Sum of Mulliken atomic charges =   0.00000

 Dipole moment (field-independent basis, Debye):
    X=              0.0000    Y=              0.0000    Z=              2.3594  Tot=              2.3594
 Quadrupole moment (field-independent basis, Debye-Ang):
   XX=            -51.0937   YY=            -43.5916   ZZ=            -45.5119
   XY=              0.0000   XZ=              0.0000   YZ=              0.0000

  Exact polarizability:  66.336   0.000  83.953   0.000   0.000  86.883
 Approx polarizability: 136.906   0.000 211.961   0.000   0.000 178.749

                     1                      2                      3
                    A2                     B1                     B2
 Frequencies --    70.6094               299.2504               345.0056
 Red. masses --    12.0000                12.0000                12.0000
 Frc consts  --     0.0352                 0.6331                 0.8416
 IR Inten    --     0.0000                 0.5103                74.0730

                     4                      5                      6
                    A2                     B1                     A1
 Frequencies --   423.9944               433.2403               497.9969
 Red. masses --    12.0000                12.0000                12.0000
 Frc consts  --     1.2710                 1.3271                 1.7534
 IR Inten    --     0.0000                 0.0047                 4.4601

                     7                      8                      9
                    A1                     B2                     A2
 Frequencies --   577.7919               580.0489               587.9050
 Red. masses --    12.0000                12.0000                12.0000
 Frc consts  --     2.3603                 2.3788                 2.4437
 IR Inten    --    22.5221                16.5904                 0.0000

                    10                     11                     12
                    A1                     B2                     A1
 Frequencies --   717.1552               870.5740               974.0897
 Red. masses --    12.0000                12.0000                12.0000
 Frc consts  --     3.6363                 5.3585                 6.7086
 IR Inten    --     3.7463                 0.0703                 1.4456

                    13                     14                     15
                    B1                     B2                     A1
 Frequencies --  1169.3961              1199.3572              1215.6693
 Red. masses --    12.0000                12.0000                12.0000
 Frc consts  --     9.6684                10.1702                10.4487
 IR Inten    --     9.5395                24.1125                 2.5212

                    16                     17                     18
                    A1                     A1                     B2
 Frequencies --  1357.0907              1892.4132              1953.7890
 Red. masses --    12.0000                12.0000                12.0000
 Frc consts  --    13.0211                25.3200                26.9890
 IR Inten    --     2.9525                16.1845                34.4353

 - Thermochemistry -
 -------------------
 Temperature   298.150 Kelvin.  Pressure   1.00000 Atm.
 Atom     1 has atomic number  6 and mass  12.00000

 Molecular mass:    96.00000 amu.
 Principal axes and moments of inertia in atomic units:
                           1         2         3
     Eigenvalues --   377.64657 504.53091 691.99264
           X            0.00000   0.00000   1.00000
           Y            0.00000   1.00000   0.00000
           Z            1.00000   0.00000   0.00000
 This molecule is an asymmetric top.
 Rotational symmetry number  2.
 Rotational temperatures (Kelvin)      0.22935     0.17167     0.12517
 Rotational constants (GHZ):           4.77892     3.57707     2.60804
 Zero-point vibrational energy      90709.1 (Joules/Mol)
                                   21.67999 (Kcal/Mol)
 Warning -- explicit consideration of   9 degrees of freedom as
           vibrations may cause significant error
 Vibrational temperatures:    101.59   430.55   496.39   610.03   623.34
          (Kelvin)            716.51   831.31   834.56   845.86  1031.83
                             1252.56  1401.50  1682.50  1725.61  1749.07
                             1952.55  2722.76  2811.06

 Zero-point correction=                           0.034549 (Hartree/Particle)
 Thermal correction to Energy=                    0.040533
 Thermal correction to Enthalpy=                  0.041477
 Thermal correction to Gibbs Free Energy=         0.005423
 Sum of electronic and zero-point Energies=           -304.361583
 Sum of electronic and thermal Energies=              -304.355600
 Sum of electronic and thermal Enthalpies=            -304.354655
 Sum of electronic and thermal Free Energies=         -304.390709

                     E (Thermal)             CV                S
                      KCal/Mol        Cal/Mol-Kelvin    Cal/Mol-Kelvin
 Total                   25.435             20.997             75.881
 Electronic               0.000              0.000              0.000
 Translational            0.889              2.981             39.596
 Rotational               0.889              2.981             25.003
 Vibrational             23.657             15.035             11.281
 Vibration     1          0.598              1.968              4.136
 Vibration     2          0.692              1.675              1.421
 Vibration     3          0.723              1.585              1.189
 Vibration     4          0.786              1.418              0.879
 Vibration     5          0.794              1.398              0.848
 Vibration     6          0.853              1.254              0.663
 Vibration     7          0.934              1.079              0.489
 Vibration     8          0.937              1.074              0.485
 Vibration     9          0.945              1.058              0.471

 Optimization completed.
    -- Stationary point found.
 Normal termination of Gaussian 09 at Wed Jul  6 18:12:06 2016.
