 Gaussian 09, Revision E.01,
 Gaussian 09:  EM64L-G09RevE.01 30-Nov-2015

 ---------------------------------------------
 #p b3lyp/6-311++G(3df,2p) freq symmetry=Loose
 ---------------------------------------------

 ---------
 b3lyp opt
 ---------
 Symbolic Z-matrix:
 Charge =  0 Multiplicity = 1

                         Standard orientation:
 ---------------------------------------------------------------------
 Center     Atomic      Atomic             Coordinates (Angstroms)
 Number     Number       Type             X           Y           Z
 ---------------------------------------------------------------------
      1          6           0       -0.010959    2.569837   -0.000000
      2          6           0        0.397580   -0.052260    0.000000
      3          6           0        1.166989   -2.483468    0.000000
      4          6           0        0.772729   -1.255248    0.000000
      5          6           0       -2.572083    1.701394   -0.000000
      6          6           0       -0.000000    1.181892   -0.000000
      7          6           0       -1.310301    2.042590   -0.000000
      8          6           0        1.556045   -3.704736    0.000000
 ---------------------------------------------------------------------

 SCF Done:  E(RB3LYP) =  -304.423807615     A.U. after   19 cycles

 The electronic state is 1-A'.
 Alpha  occ. eigenvalues --  -10.33374 -10.30501 -10.29935 -10.28854 -10.27284
 Alpha  occ. eigenvalues --  -10.27157 -10.25555 -10.22450  -0.98643  -0.88414
 Alpha  occ. eigenvalues --   -0.81913  -0.78652  -0.74288  -0.66537  -0.51504
 Alpha  occ. eigenvalues --   -0.49545  -0.47735  -0.41862  -0.41397  -0.34979
 Alpha  occ. eigenvalues --   -0.32568  -0.32371  -0.32351  -0.28626
 Alpha virt. eigenvalues --   -0.22484  -0.15854  -0.13925  -0.06568  -0.01002
 Alpha virt. eigenvalues --   -0.00878   0.00467   0.02161   0.03355   0.03949
 Alpha virt. eigenvalues --    0.04744   0.05733   0.05970   0.06237   0.06762

 Mulliken charges:
               1
     1  C   -0.546049
     2  C   -0.201520
     3  C    1.386376
     4  C   -0.340991
     5  C   -0.884677
     6  C    0.578212
     7  C    0.806457
     8  C   -0.797808
 Sum of Mulliken charges =  -0.00000

 Dipole moment (field-independent basis, Debye):
    X=              0.1259    Y=              2.1330    Z=              0.0000  Tot=              2.1367
 Quadrupole moment (field-independent basis, Debye-Ang):
   XX=            -54.3783   YY=            -63.5921   ZZ=            -42.9478
   XY=              5.7029   XZ=             -0.0000   YZ=              0.0000

  Exact polarizability: 127.552 -75.719 216.246   0.000  -0.000  53.142
 Approx polarizability: 391.833-301.536 639.504   0.000  -0.000  82.115

                      1                      2                      3
                     A'                     A"                     A'
 Frequencies --     72.4790                94.2355               184.5878
 Red. masses --     12.0000                12.0000                12.0000
 Frc consts  --      0.0371                 0.0628                 0.2409
 IR Inten    --      4.4549                 8.1906                 5.8554

                      4                      5                      6
                     A"                     A"                     A'
 Frequencies --    218.3875               256.0571               256.9404
 Red. masses --     12.0000                12.0000                12.0000
 Frc consts  --      0.3372                 0.4636                 0.4668
 IR Inten    --      3.4395                15.8341                19.8305

                      7                      8                      9
                     A'                     A"                     A'
 Frequencies --    410.4148               446.5671               475.8430
 Red. masses --     12.0000                12.0000                12.0000
 Frc consts  --      1.1909                 1.4100                 1.6009
 IR Inten    --    243.1321                 2.2611                35.7097

                     10                     11                     12
                     A'                     A"                     A'
 Frequencies --    565.4806               624.7167               634.4348
 Red. masses --     12.0000                12.0000                12.0000
 Frc consts  --      2.2608                 2.7593                 2.8458
 IR Inten    --      8.5993                 1.6591               129.6878

                     13                     14                     15
                     A'                     A'                     A'
 Frequencies --    930.9772              1139.3539              1572.0302
 Red. masses --     12.0000                12.0000                12.0000
 Frc consts  --      6.1279                 9.1780                17.4724
 IR Inten    --      0.7187               106.2053                30.9326

                     16                     17                     18
                     A'                     A'                     A'
 Frequencies --   1726.8208              1992.1526              2179.9864
 Red. masses --     12.0000                12.0000                12.0000
 Frc consts  --     21.0827                28.0593                33.6000
 IR Inten    --   1034.1268                27.7439              2123.7963

 - Thermochemistry -
 -------------------
 Temperature   298.150 Kelvin.  Pressure   1.00000 Atm.
 Atom     1 has atomic number  6 and mass  12.00000

 Molecular mass:    96.00000 amu.
 Principal axes and moments of inertia in atomic units:
                           1         2         3
     Eigenvalues --   180.368271936.980992117.34926
           X           -0.45968   0.88808   0.00000
           Y            0.88808   0.45968   0.00000
           Z            0.00000   0.00000   1.00000
 This molecule is an asymmetric top.
 Rotational symmetry number  1.
 Rotational temperatures (Kelvin)      0.48021     0.04472     0.04091
 Rotational constants (GHZ):          10.00587     0.93173     0.85236
 Zero-point vibrational energy      82431.5 (Joules/Mol)
                                   19.70159 (Kcal/Mol)
 Warning -- explicit consideration of  10 degrees of freedom as
           vibrations may cause significant error
 Vibrational temperatures:    104.28   135.58   265.58   314.21   368.41
          (Kelvin)            369.68   590.49   642.51   684.63   813.60
                              898.83   912.81  1339.47  1639.27  2261.80
                             2484.51  2866.26  3136.51

 Zero-point correction=                           0.031396 (Hartree/Particle)
 Thermal correction to Energy=                    0.039189
 Thermal correction to Enthalpy=                  0.040133
 Thermal correction to Gibbs Free Energy=        -0.001170
 Sum of electronic and zero-point Energies=           -304.392411
 Sum of electronic and thermal Energies=              -304.384618
 Sum of electronic and thermal Enthalpies=            -304.383674
 Sum of electronic and thermal Free Energies=         -304.424978

                     E (Thermal)             CV                S
                      KCal/Mol        Cal/Mol-Kelvin    Cal/Mol-Kelvin
 Total                   24.592             25.041             86.931
 Electronic               0.000              0.000              0.000
 Translational            0.889              2.981             39.596
 Rotational               0.889              2.981             28.094
 Vibrational             22.814             19.080             19.240
 Vibration     1          0.599              1.967              4.085
 Vibration     2          0.603              1.953              3.570
 Vibration     3          0.631              1.861              2.282
 Vibration     4          0.646              1.813              1.972
 Vibration     5          0.666              1.753              1.689
 Vibration     6          0.667              1.751              1.682
 Vibration     7          0.775              1.448              0.925
 Vibration     8          0.806              1.368              0.806
 Vibration     9          0.832              1.304              0.721
 Vibration    10          0.921              1.106              0.513

 Normal termination of Gaussian 09 at Sun Jun 19 01:45:15 2016.
