 Gaussian 09, Revision E.01,
 Gaussian 09:  EM64L-G09RevE.01 30-Nov-2015

 ---------------------------------------------
 #p b3lyp/6-311++G(3df,2p) freq symmetry=Loose
 ---------------------------------------------

 ---------
 b3lyp opt
 ---------
 Symbolic Z-matrix:
 Charge =  0 Multiplicity = 1

                         Standard orientation:
 ---------------------------------------------------------------------
 Center     Atomic      Atomic             Coordinates (Angstroms)
 Number     Number       Type             X           Y           Z
 ---------------------------------------------------------------------
      1          6           0        0.000000    0.000000    4.484444
      2          6           0        0.000000    0.000000    3.195756
      3          6           0        0.000000    0.000000    1.908678
      4          6           0        0.000000    0.000000    0.639302
      5          6           0        0.000000    0.000000   -0.639302
      6          6           0        0.000000    0.000000   -1.908678
      7          6           0        0.000000    0.000000   -3.195756
      8          6           0        0.000000    0.000000   -4.484444
 ---------------------------------------------------------------------

 SCF Done:  E(RB3LYP) =  -304.505814189     A.U. after   17 cycles

 Unable to determine electronic state:  an orbital has unidentified symmetry.
 Alpha  occ. eigenvalues --  -10.29934 -10.29930 -10.28737 -10.28607 -10.26048
 Alpha  occ. eigenvalues --  -10.26048 -10.23476 -10.23475  -0.90462  -0.87177
 Alpha  occ. eigenvalues --   -0.82856  -0.78662  -0.73237  -0.68052  -0.64746
 Alpha  occ. eigenvalues --   -0.45931  -0.45902  -0.40968  -0.40813  -0.34207
 Alpha  occ. eigenvalues --   -0.33698  -0.32791  -0.32781  -0.26765
 Alpha virt. eigenvalues --   -0.23076  -0.13797  -0.13380  -0.02539  -0.02465
 Alpha virt. eigenvalues --   -0.01522   0.01547   0.03158   0.03440   0.04490
 Alpha virt. eigenvalues --    0.05697   0.05883   0.06220   0.06656   0.06759

 Mulliken charges:
               1
     1  C   -0.794372
     2  C    1.545487
     3  C   -0.227570
     4  C   -0.523545
     5  C   -0.523545
     6  C   -0.227570
     7  C    1.545487
     8  C   -0.794372
 Sum of Mulliken charges =  -0.00000

 Dipole moment (field-independent basis, Debye):
    X=             -0.0000    Y=              0.0000    Z=             -0.0000  Tot=              0.0000
 Quadrupole moment (field-independent basis, Debye-Ang):
   XX=            -42.4937   YY=            -45.9777   ZZ=            -82.4101
   XY=             -0.0000   XZ=              0.0000   YZ=              0.0000

  Exact polarizability:  51.894  -0.000  52.324   0.000  -0.000 382.925
 Approx polarizability:  77.421  -0.000  74.582  -0.000  -0.0001250.819

                      1                      2                      3
                     ?A                     ?A                     ?B
 Frequencies --     60.5929                64.9688               136.2984
 Red. masses --     12.0000                12.0000                12.0000
 Frc consts  --      0.0260                 0.0298                 0.1313
 IR Inten    --     12.1540                 7.6402                 0.0000

                      4                      5                      6
                     ?B                     ?A                     ?A
 Frequencies --    161.4637               219.9097               254.8219
 Red. masses --     12.0000                12.0000                12.0000
 Frc consts  --      0.1843                 0.3419                 0.4591
 IR Inten    --      0.0000                15.4304                 3.8166

                      7                      8                      9
                     ?B                     ?B                     SGG
 Frequencies --    353.1197               421.8091               514.4069
 Red. masses --     12.0000                12.0000                12.0000
 Frc consts  --      0.8816                 1.2579                 1.8709
 IR Inten    --      0.0000                 0.0000                 0.0000

                     10                     11                     12
                     ?A                     ?B                     ?A
 Frequencies --    514.4716               564.0012               590.1742
 Red. masses --     12.0000                12.0000                12.0000
 Frc consts  --      1.8713                 2.2490                 2.4626
 IR Inten    --      0.6402                 0.0000                 0.0064

                     13                     14                     15
                     ?B                     SGU                    SGG
 Frequencies --    686.1661               976.4732              1402.8028
 Red. masses --     12.0000                12.0000                12.0000
 Frc consts  --      3.3288                 6.7414                13.9131
 IR Inten    --      0.0000                17.0364                 0.0000

                     16                     17                     18
                     SGU                    SGG                    SGG
 Frequencies --   1779.9117              2036.2143              2131.4644
 Red. masses --     12.0000                12.0000                12.0000
 Frc consts  --     22.3990                29.3142                32.1209
 IR Inten    --    688.5947                 0.0000                 0.0000

                     19
                     SGU
 Frequencies --   2159.8461
 Red. masses --     12.0000
 Frc consts  --     32.9820
 IR Inten    --   2622.0089

 - Thermochemistry -
 -------------------
 Temperature   298.150 Kelvin.  Pressure   1.00000 Atm.
 Atom     1 has atomic number  6 and mass  12.00000

 Molecular mass:    96.00000 amu.
 Principal axes and moments of inertia in atomic units:
                           1         2         3
     Eigenvalues --     0.000002946.115922946.11592
           X           -0.00000   1.00000  -0.00000
           Y            0.00000   0.00000   1.00000
           Z            1.00000   0.00000  -0.00000
 This molecule is a prolate symmetric top.
 Rotational symmetry number  2.
 Warning -- assumption of classical behavior for rotation
           may cause significant error
 Rotational temperature (Kelvin)      0.02940
 Rotational constant (GHZ):           0.612583
 Zero-point vibrational energy      89892.9 (Joules/Mol)
                                   21.48492 (Kcal/Mol)
 Warning -- explicit consideration of  12 degrees of freedom as
           vibrations may cause significant error
 Vibrational temperatures:     87.18    93.48   196.10   232.31   316.40
          (Kelvin)            366.63   508.06   606.89   740.12   740.21
                              811.47   849.13   987.24  1404.93  2018.32
                             2560.89  2929.65  3066.70  3107.53

 Zero-point correction=                           0.034238 (Hartree/Particle)
 Thermal correction to Energy=                    0.042106
 Thermal correction to Enthalpy=                  0.043050
 Thermal correction to Gibbs Free Energy=         0.004547
 Sum of electronic and zero-point Energies=           -304.471576
 Sum of electronic and thermal Energies=              -304.463709
 Sum of electronic and thermal Enthalpies=            -304.462764
 Sum of electronic and thermal Free Energies=         -304.501267

                     E (Thermal)             CV                S
                      KCal/Mol        Cal/Mol-Kelvin    Cal/Mol-Kelvin
 Total                   26.422             25.290             81.036
 Electronic               0.000              0.000              0.000
 Translational            0.889              2.981             39.596
 Rotational               0.592              1.987             18.941
 Vibrational             24.940             20.322             22.499
 Vibration     1          0.597              1.973              4.438
 Vibration     2          0.597              1.971              4.300
 Vibration     3          0.614              1.917              2.855
 Vibration     4          0.622              1.890              2.533
 Vibration     5          0.647              1.811              1.960
 Vibration     6          0.665              1.755              1.697
 Vibration     7          0.729              1.569              1.152
 Vibration     8          0.784              1.423              0.886
 Vibration     9          0.869              1.218              0.623
 Vibration    10          0.870              1.218              0.623
 Vibration    11          0.920              1.109              0.516
 Vibration    12          0.948              1.053              0.467

 Optimization completed.
    -- Stationary point found.
 Normal termination of Gaussian 09 at Sun Jun 19 01:35:57 2016.
