 Gaussian 09, Revision E.01,
 Gaussian 09:  EM64L-G09RevE.01 30-Nov-2015

 ---------------------------------------------
 #p b3lyp/6-311++G(3df,2p) freq symmetry=Loose
 ---------------------------------------------

 ---------
 b3lyp opt
 ---------
 Symbolic Z-matrix:
 Charge =  0 Multiplicity = 1

                         Standard orientation:
 ---------------------------------------------------------------------
 Center     Atomic      Atomic             Coordinates (Angstroms)
 Number     Number       Type             X           Y           Z
 ---------------------------------------------------------------------
      1          6           0        1.340061    0.314268    0.222563
      2          6           0       -1.339443    0.311378   -0.222173
      3          6           0        2.057992   -0.813743   -0.231812
      4          6           0        0.686231   -0.948756    0.067194
      5          6           0       -2.056888   -0.815899    0.232739
      6          6           0       -0.599468    1.451286   -0.223502
      7          6           0        0.595997    1.450012    0.223310
      8          6           0       -0.684482   -0.948545   -0.068320
 ---------------------------------------------------------------------

 SCF Done:  E(RB3LYP) =  -304.455758272     A.U. after   15 cycles

 The electronic state is 1-A.
 Alpha  occ. eigenvalues --  -10.29307 -10.29280 -10.29038 -10.28974 -10.26735
 Alpha  occ. eigenvalues --  -10.26723 -10.25826 -10.25694  -1.01493  -0.95960
 Alpha  occ. eigenvalues --   -0.86454  -0.73909  -0.71931  -0.61633  -0.50904
 Alpha  occ. eigenvalues --   -0.50453  -0.47390  -0.44037  -0.43237  -0.41761
 Alpha  occ. eigenvalues --   -0.35706  -0.33883  -0.27192  -0.26708
 Alpha virt. eigenvalues --   -0.15655  -0.12818  -0.11193  -0.05364  -0.03080
 Alpha virt. eigenvalues --    0.01361   0.01703   0.02338   0.03256   0.03648
 Alpha virt. eigenvalues --    0.04913   0.05778   0.05927   0.06834   0.07800

 Mulliken charges:
               1
     1  C    0.383493
     2  C    0.378215
     3  C   -0.558533
     4  C    0.373122
     5  C   -0.559674
     6  C   -0.192985
     7  C   -0.196004
     8  C    0.372365
 Sum of Mulliken charges =  -0.00000

 Dipole moment (field-independent basis, Debye):
    X=              0.0063    Y=              0.9559    Z=              0.0000  Tot=              0.9559
 Quadrupole moment (field-independent basis, Debye-Ang):
   XX=            -56.0149   YY=            -47.7839   ZZ=            -43.5976
   XY=              0.0091   XZ=              3.6904   YZ=              0.0183

  Exact polarizability: 112.443  -0.079  92.189   0.359  -0.003  49.269
 Approx polarizability: 246.693  -0.505 233.191  12.556  -0.001  84.145

                      1                      2                      3
                      A                      A                      A
 Frequencies --    209.1693               218.0272               404.3028
 Red. masses --     12.0000                12.0000                12.0000
 Frc consts  --      0.3093                 0.3361                 1.1557
 IR Inten    --     20.0481                 0.0239                56.0006

                      4                      5                      6
                      A                      A                      A
 Frequencies --    457.0775               497.7125               514.0078
 Red. masses --     12.0000                12.0000                12.0000
 Frc consts  --      1.4771                 1.7514                 1.8680
 IR Inten    --      0.2269                 5.2181                18.5256

                      7                      8                      9
                      A                      A                      A
 Frequencies --    586.1996               605.3803               716.5963
 Red. masses --     12.0000                12.0000                12.0000
 Frc consts  --      2.4295                 2.5911                 3.6306
 IR Inten    --      9.8593                 8.2608                 2.6763

                     10                     11                     12
                      A                      A                      A
 Frequencies --    792.4479               873.0341               952.1486
 Red. masses --     12.0000                12.0000                12.0000
 Frc consts  --      4.4399                 5.3888                 6.4097
 IR Inten    --      0.7216                 5.8090                20.6697

                     13                     14                     15
                      A                      A                      A
 Frequencies --    980.9577              1245.6296              1356.4671
 Red. masses --     12.0000                12.0000                12.0000
 Frc consts  --      6.8035                10.9701                13.0092
 IR Inten    --      3.9411                 3.3922                 7.2094

                     16                     17                     18
                      A                      A                      A
 Frequencies --   1574.3181              1604.6990              1712.7330
 Red. masses --     12.0000                12.0000                12.0000
 Frc consts  --     17.5233                18.2062                20.7401
 IR Inten    --      6.9266                23.4218                74.4913

 - Thermochemistry -
 -------------------
 Temperature   298.150 Kelvin.  Pressure   1.00000 Atm.
 Atom     1 has atomic number  6 and mass  12.00000

 Molecular mass:    96.00000 amu.
 Principal axes and moments of inertia in atomic units:
                           1         2         3
     Eigenvalues --   336.31007 601.04435 910.28839
           X            1.00000   0.00000   0.00000
           Y           -0.00000   1.00000   0.00000
           Z            0.00000  -0.00000   1.00000
 This molecule is an asymmetric top.
 Rotational symmetry number  1.
 Rotational temperatures (Kelvin)      0.25754     0.14411     0.09515
 Rotational constants (GHZ):           5.36630     3.00268     1.98260
 Zero-point vibrational energy      91519.8 (Joules/Mol)
                                   21.87375 (Kcal/Mol)
 Warning -- explicit consideration of   8 degrees of freedom as
           vibrations may cause significant error
 Vibrational temperatures:    300.95   313.69   581.70   657.63   716.10
          (Kelvin)            739.54   843.41   871.01  1031.02  1140.15
                             1256.10  1369.93  1411.38  1792.18  1951.65
                             2265.09  2308.80  2464.24

 Zero-point correction=                           0.034858 (Hartree/Particle)
 Thermal correction to Energy=                    0.040460
 Thermal correction to Enthalpy=                  0.041404
 Thermal correction to Gibbs Free Energy=         0.005671
 Sum of electronic and zero-point Energies=           -304.420900
 Sum of electronic and thermal Energies=              -304.415299
 Sum of electronic and thermal Enthalpies=            -304.414354
 Sum of electronic and thermal Free Energies=         -304.450087

                     E (Thermal)             CV                S
                      KCal/Mol        Cal/Mol-Kelvin    Cal/Mol-Kelvin
 Total                   25.389             20.238             75.205
 Electronic               0.000              0.000              0.000
 Translational            0.889              2.981             39.596
 Rotational               0.889              2.981             26.712
 Vibrational             23.611             14.276              8.897
 Vibration     1          0.642              1.827              2.051
 Vibration     2          0.646              1.814              1.975
 Vibration     3          0.769              1.461              0.947
 Vibration     4          0.815              1.345              0.775
 Vibration     5          0.853              1.255              0.664
 Vibration     6          0.869              1.219              0.624
 Vibration     7          0.943              1.061              0.474
 Vibration     8          0.964              1.020              0.440

 Normal termination of Gaussian 09 at Sun Jun 19 01:50:54 2016.
