 Gaussian 09, Revision C.01,
 Gaussian 09:  AM64L-G09RevC.01 23-Sep-2011

 ---------------------------------------------
 #p b3lyp/6-311++G(3df,2p) freq symmetry=Loose
 ---------------------------------------------

 (Enter /home/nestor/.gaussian09/l101.exe)
 ---------
 b3lyp opt
 ---------
 Charge =  0 Multiplicity = 1

                         Standard orientation:
 ---------------------------------------------------------------------
 Center     Atomic      Atomic             Coordinates (Angstroms)
 Number     Number       Type             X           Y           Z
 ---------------------------------------------------------------------
      1          6           0        0.230146   -1.499780    1.937827
      2          6           0        0.230146   -1.055664    0.717832
      3          6           0        0.320707    0.228186    0.000000
      4          6           0        0.230146   -1.055664   -0.717832
      5          6           0       -0.451249    1.587512    0.000000
      6          6           0       -1.735973    1.783467    0.000000
      7          6           0        0.230146   -1.499780   -1.937827
      8          6           0        0.945929    1.511724    0.000000
 ---------------------------------------------------------------------

 SCF Done:  E(RB3LYP) =  -304.287672487     A.U. after   15 cycles

 The electronic state is 1-A'.
 Alpha  occ. eigenvalues --  -10.36118 -10.30598 -10.29491 -10.29489 -10.29380
 Alpha  occ. eigenvalues --  -10.27771 -10.27730 -10.26414  -1.01831  -0.93548
 Alpha  occ. eigenvalues --   -0.81090  -0.78816  -0.76006  -0.55620  -0.52830
 Alpha  occ. eigenvalues --   -0.51279  -0.46322  -0.40752  -0.37975  -0.35309
 Alpha  occ. eigenvalues --   -0.34956  -0.34335  -0.31839  -0.30779
 Alpha virt. eigenvalues --   -0.21077  -0.16709  -0.15257  -0.14158  -0.07368
 Alpha virt. eigenvalues --   -0.00243   0.00396   0.02795   0.03431   0.03518
 Alpha virt. eigenvalues --    0.04420   0.05312   0.05905   0.06087   0.06304

 Mulliken atomic charges:
              1
     1  C   -0.243715
     2  C    0.431234
     3  C    0.289478
     4  C    0.431234
     5  C    0.897566
     6  C   -0.649194
     7  C   -0.243715
     8  C   -0.912888
 Sum of Mulliken atomic charges =   0.00000

 Dipole moment (field-independent basis, Debye):
    X=              0.5293    Y=             -0.0988    Z=              0.0000  Tot=              0.5385
 Quadrupole moment (field-independent basis, Debye-Ang):
   XX=            -52.1271   YY=            -47.7256   ZZ=            -53.6536
   XY=              0.7425   XZ=              0.0000   YZ=              0.0000

  Exact polarizability:  85.199 -18.192 106.553   0.000   0.000 102.575
 Approx polarizability: 208.057 -62.621 205.331   0.000   0.000 218.695

                     1                      2                      3
                    A'                     A"                     A"
 Frequencies --   100.1453               105.3088               140.0237
 Red. masses --    12.0000                12.0000                12.0000
 Frc consts  --     0.0709                 0.0784                 0.1386
 IR Inten    --     9.4666                 0.4501                11.2757

                     4                      5                      6
                    A'                     A'                     A"
 Frequencies --   147.0653               212.0065               284.9609
 Red. masses --    12.0000                12.0000                12.0000
 Frc consts  --     0.1529                 0.3178                 0.5741
 IR Inten    --     3.3420                 7.9778                 8.6429

                     7                      8                      9
                    A"                     A'                     A"
 Frequencies --   402.1715               410.9251               450.9306
 Red. masses --    12.0000                12.0000                12.0000
 Frc consts  --     1.1435                 1.1939                 1.4376
 IR Inten    --     0.2761                 2.2119                16.6228

                    10                     11                     12
                    A'                     A"                     A'
 Frequencies --   517.6673               680.0285               685.1846
 Red. masses --    12.0000                12.0000                12.0000
 Frc consts  --     1.8947                 3.2695                 3.3193
 IR Inten    --   173.5386               106.7865                69.1605

                    13                     14                     15
                    A'                     A'                     A'
 Frequencies --   773.8560               942.7451              1290.6120
 Red. masses --    12.0000                12.0000                12.0000
 Frc consts  --     4.2340                 6.2838                11.7767
 IR Inten    --    35.8399                 5.0780                11.9279

                    16                     17                     18
                    A"                     A'                     A'
 Frequencies --  1641.2928              1765.6537              1881.1278
 Red. masses --    12.0000                12.0000                12.0000
 Frc consts  --    19.0460                22.0416                25.0189
 IR Inten    --   404.4523               651.6126               212.8609

 - Thermochemistry -
 -------------------
 Temperature   298.150 Kelvin.  Pressure   1.00000 Atm.
 Atom     1 has atomic number  6 and mass  12.00000

 Molecular mass:    96.00000 amu.
 Principal axes and moments of inertia in atomic units:
                           1         2         3
     Eigenvalues --   510.04992 822.455741044.40940
           X           -0.29228   0.00000   0.95633
           Y            0.95633   0.00000   0.29228
           Z            0.00000   1.00000   0.00000
 This molecule is an asymmetric top.
 Rotational symmetry number  1.
 Warning -- assumption of classical behavior for rotation
           may cause significant error
 Rotational temperatures (Kelvin)      0.16981     0.10531     0.08293
 Rotational constants (GHZ):           3.53836     2.19433     1.72800
 Zero-point vibrational energy      74358.1 (Joules/Mol)
                                   17.77202 (Kcal/Mol)
 Warning -- explicit consideration of  10 degrees of freedom as
           vibrations may cause significant error
 Vibrational temperatures:    144.09   151.52   201.46   211.59   305.03
          (Kelvin)            409.99   578.63   591.23   648.79   744.81
                              978.41   985.83  1113.40  1356.40  1856.90
                             2361.45  2540.38  2706.52

 Zero-point correction=                           0.028322 (Hartree/Particle)
 Thermal correction to Energy=                    0.036373
 Thermal correction to Enthalpy=                  0.037317
 Thermal correction to Gibbs Free Energy=        -0.004185
 Sum of electronic and zero-point Energies=           -304.259351
 Sum of electronic and thermal Energies=              -304.251299
 Sum of electronic and thermal Enthalpies=            -304.250355
 Sum of electronic and thermal Free Energies=         -304.291857

                     E (Thermal)             CV                S
                      KCal/Mol        Cal/Mol-Kelvin    Cal/Mol-Kelvin
 Total                   22.824             25.791             87.348
 Electronic               0.000              0.000              0.000
 Translational            0.889              2.981             39.596
 Rotational               0.889              2.981             27.574
 Vibrational             21.047             19.829             20.178
 Vibration     1          0.604              1.949              3.451
 Vibration     2          0.605              1.945              3.354
 Vibration     3          0.615              1.913              2.804
 Vibration     4          0.617              1.906              2.710
 Vibration     5          0.643              1.823              2.026
 Vibration     6          0.683              1.702              1.504
 Vibration     7          0.768              1.465              0.955
 Vibration     8          0.775              1.447              0.923
 Vibration     9          0.810              1.359              0.793
 Vibration    10          0.873              1.211              0.615

 Optimization completed.
    -- Stationary point found.
 Normal termination of Gaussian 09 at Wed Jul  6 12:44:42 2016.
