 Gaussian 09, Revision E.01,
 Gaussian 09:  EM64L-G09RevE.01 30-Nov-2015

 ---------------------------------------------
 #p b3lyp/6-311++G(3df,2p) freq symmetry=Loose
 ---------------------------------------------

 ---------
 b3lyp opt
 ---------
 Symbolic Z-matrix:
 Charge =  0 Multiplicity = 1

                         Standard orientation:
 ---------------------------------------------------------------------
 Center     Atomic      Atomic             Coordinates (Angstroms)
 Number     Number       Type             X           Y           Z
 ---------------------------------------------------------------------
      1          6           0       -0.064662    1.506161    0.000000
      2          6           0       -1.298650    1.298650    0.000000
      3          6           0       -1.506161   -0.064662    0.000000
      4          6           0       -1.298650   -1.298650    0.000000
      5          6           0        0.064662   -1.506161    0.000000
      6          6           0        1.298650   -1.298650    0.000000
      7          6           0        1.506161    0.064662    0.000000
      8          6           0        1.298650    1.298650    0.000000
 ---------------------------------------------------------------------

 SCF Done:  E(RB3LYP) =  -304.496575850     A.U. after   11 cycles

 The electronic state is 1-AG.
 Alpha  occ. eigenvalues --  -10.28677 -10.28676 -10.28676 -10.28673 -10.23133
 Alpha  occ. eigenvalues --  -10.23128 -10.23128 -10.23122  -0.93710  -0.86677
 Alpha  occ. eigenvalues --   -0.86677  -0.77793  -0.68512  -0.59386  -0.59386
 Alpha  occ. eigenvalues --   -0.52568  -0.45839  -0.45553  -0.37902  -0.37902
 Alpha  occ. eigenvalues --   -0.36476  -0.36476  -0.26880  -0.23659
 Alpha virt. eigenvalues --   -0.13696  -0.11155  -0.06666  -0.06666  -0.06664
 Alpha virt. eigenvalues --    0.00393   0.03068   0.03068   0.03821   0.03821
 Alpha virt. eigenvalues --    0.03849   0.05307   0.06598   0.07141   0.08008

 Mulliken charges:
               1
     1  C    0.222735
     2  C   -0.222735
     3  C    0.222735
     4  C   -0.222735
     5  C    0.222735
     6  C   -0.222735
     7  C    0.222735
     8  C   -0.222735
 Sum of Mulliken charges =   0.00000

 Dipole moment (field-independent basis, Debye):
    X=             -0.0000    Y=             -0.0000    Z=              0.0000  Tot=              0.0000
 Quadrupole moment (field-independent basis, Debye-Ang):
   XX=            -47.1447   YY=            -47.1447   ZZ=            -45.0971
   XY=              0.0000   XZ=              0.0000   YZ=              0.0000

  Exact polarizability: 100.402   0.000 100.402   0.000  -0.000  46.387
 Approx polarizability: 217.484   0.000 217.484  -0.000  -0.000  69.710

                      1                      2                      3
                     BG                     BU                     BU
 Frequencies --    112.4104               191.8486               346.0641
 Red. masses --     12.0000                12.0000                12.0000
 Frc consts  --      0.0893                 0.2602                 0.8467
 IR Inten    --      0.0000                 0.0000                 0.0000

                      4                      5                      6
                     AU                     EG                     EG
 Frequencies --    399.8474               426.5729               426.5729
 Red. masses --     12.0000                12.0000                12.0000
 Frc consts  --      1.1304                 1.2865                 1.2865
 IR Inten    --     11.5612                 0.0000                 0.0000

                      7                      8                      9
                     BG                     EU                     EU
 Frequencies --    486.5817               568.9357               568.9357
 Red. masses --     12.0000                12.0000                12.0000
 Frc consts  --      1.6740                 2.2885                 2.2885
 IR Inten    --      0.0000                85.5162                85.5162

                     10                     11                     12
                     AG                     AG                     EU
 Frequencies --    620.3442               969.7604              1064.1627
 Red. masses --     12.0000                12.0000                12.0000
 Frc consts  --      2.7208                 6.6491                 8.0066
 IR Inten    --      0.0000                 0.0000                71.4576

                     13                     14                     15
                     EU                     BG                     BG
 Frequencies --   1064.1627              1246.8262              1905.0888
 Red. masses --     12.0000                12.0000                12.0000
 Frc consts  --      8.0066                10.9912                25.6603
 IR Inten    --     71.4576                 0.0000                 0.0000

                     16                     17                     18
                     AG                     EU                     EU
 Frequencies --   1930.4400              1932.0499              1932.0499
 Red. masses --     12.0000                12.0000                12.0000
 Frc consts  --     26.3478                26.3917                26.3917
 IR Inten    --      0.0000               605.7239               605.7240

 - Thermochemistry -
 -------------------
 Temperature   298.150 Kelvin.  Pressure   1.00000 Atm.
 Atom     1 has atomic number  6 and mass  12.00000

 Molecular mass:    96.00000 amu.
 Principal axes and moments of inertia in atomic units:
                           1         2         3
     Eigenvalues --   483.86664 483.86664 967.73328
           X            1.00000  -0.00000   0.00000
           Y            0.00000   1.00000   0.00000
           Z            0.00000   0.00000   1.00000
 This molecule is an oblate symmetric top.
 Rotational symmetry number  4.
 Warning -- assumption of classical behavior for rotation
           may cause significant error
 Rotational temperatures (Kelvin)      0.17900     0.17900     0.08950
 Rotational constants (GHZ):           3.72983     3.72983     1.86492
 Zero-point vibrational energy      96853.6 (Joules/Mol)
                                   23.14856 (Kcal/Mol)
 Warning -- explicit consideration of  10 degrees of freedom as
           vibrations may cause significant error
 Vibrational temperatures:    161.73   276.03   497.91   575.29   613.74
          (Kelvin)            613.74   700.08   818.57   818.57   892.54
                             1395.27  1531.09  1531.09  1793.90  2740.99
                             2777.47  2779.79  2779.79

 Zero-point correction=                           0.036890 (Hartree/Particle)
 Thermal correction to Energy=                    0.043106
 Thermal correction to Enthalpy=                  0.044050
 Thermal correction to Gibbs Free Energy=         0.008179
 Sum of electronic and zero-point Energies=           -304.459686
 Sum of electronic and thermal Energies=              -304.453470
 Sum of electronic and thermal Enthalpies=            -304.452526
 Sum of electronic and thermal Free Energies=         -304.488397

                     E (Thermal)             CV                S
                      KCal/Mol        Cal/Mol-Kelvin    Cal/Mol-Kelvin
 Total                   27.049             21.372             75.496
 Electronic               0.000              0.000              0.000
 Translational            0.889              2.981             39.596
 Rotational               0.889              2.981             24.164
 Vibrational             25.272             15.410             11.737
 Vibration     1          0.607              1.939              3.227
 Vibration     2          0.634              1.851              2.210
 Vibration     3          0.724              1.583              1.184
 Vibration     4          0.766              1.470              0.963
 Vibration     5          0.788              1.412              0.870
 Vibration     6          0.788              1.412              0.870
 Vibration     7          0.843              1.280              0.693
 Vibration     8          0.925              1.098              0.506
 Vibration     9          0.925              1.098              0.506
 Vibration    10          0.980              0.989              0.416

 Optimization completed.
    -- Stationary point found.
 Normal termination of Gaussian 09 at Sun Jun 19 01:39:08 2016.
