 Gaussian 09, Revision C.01,
 Gaussian 09:  AM64L-G09RevC.01 23-Sep-2011

 ---------------------------------------------
 #p b3lyp/6-311++G(3df,2p) freq symmetry=Loose
 ---------------------------------------------

 (Enter /home/nestor/.gaussian09/l101.exe)
 ---------
 b3lyp opt
 ---------
 Charge =  0 Multiplicity = 3

                         Standard orientation:
 ---------------------------------------------------------------------
 Center     Atomic      Atomic             Coordinates (Angstroms)
 Number     Number       Type             X           Y           Z
 ---------------------------------------------------------------------
      1          6           0        0.000000    1.500949    0.000000
      2          6           0        1.293616    1.293616    0.000000
      3          6           0        1.500949    0.000000    0.000000
      4          6           0        1.293616   -1.293616    0.000000
      5          6           0       -1.293616    1.293616    0.000000
      6          6           0       -1.500949    0.000000    0.000000
      7          6           0       -1.293616   -1.293616    0.000000
      8          6           0        0.000000   -1.500949    0.000000
 ---------------------------------------------------------------------

 SCF Done:  E(UB3LYP) =  -304.486313690     A.U. after   11 cycles

 The electronic state is 3-A2G.
 Alpha  occ. eigenvalues --  -10.28874 -10.28872 -10.28872 -10.28868 -10.23787
 Alpha  occ. eigenvalues --  -10.23781 -10.23781 -10.23774  -0.94851  -0.87734
 Alpha  occ. eigenvalues --   -0.87734  -0.78469  -0.69902  -0.60242  -0.60242
 Alpha  occ. eigenvalues --   -0.53104  -0.47694  -0.46486  -0.40204  -0.40204
 Alpha  occ. eigenvalues --   -0.36929  -0.36929  -0.27150  -0.23031  -0.22591
 Alpha virt. eigenvalues --   -0.11529  -0.07013  -0.06828  -0.06828   0.00298
 Alpha virt. eigenvalues --    0.01698   0.01698   0.03025   0.03025   0.03671
 Alpha virt. eigenvalues --    0.05249   0.06640   0.07046   0.07670   0.07670

  Beta  occ. eigenvalues --  -10.28457 -10.28457 -10.28457 -10.28453 -10.23412
  Beta  occ. eigenvalues --  -10.23407 -10.23407 -10.23400  -0.93438  -0.86225
  Beta  occ. eigenvalues --   -0.86225  -0.77121  -0.68368  -0.59250  -0.59250
  Beta  occ. eigenvalues --   -0.52461  -0.45877  -0.43853  -0.36282  -0.36282
  Beta  occ. eigenvalues --   -0.35632  -0.35632  -0.26475
  Beta virt. eigenvalues --   -0.15326  -0.14185  -0.10446  -0.06490  -0.06164
  Beta virt. eigenvalues --   -0.06164   0.00477   0.03076   0.03076   0.03960
  Beta virt. eigenvalues --    0.05325   0.05503   0.05503   0.06663   0.07117

 Mulliken atomic charges:
              1
     1  C    0.255222
     2  C   -0.255222
     3  C    0.255222
     4  C   -0.255222
     5  C   -0.255222
     6  C    0.255222
     7  C   -0.255222
     8  C    0.255222
 Sum of Mulliken atomic charges =   0.00000

 Dipole moment (field-independent basis, Debye):
    X=              0.0000    Y=              0.0000    Z=              0.0000  Tot=              0.0000
 Quadrupole moment (field-independent basis, Debye-Ang):
   XX=            -47.1842   YY=            -47.1842   ZZ=            -45.1675
   XY=              0.0000   XZ=              0.0000   YZ=              0.0000

  Exact polarizability: 104.163   0.000 104.163   0.000   0.000  48.684
 Approx polarizability: 241.374   0.000 241.374   0.000   0.000  71.018

                     1                      2                      3
                    B2G                    B1U                    B2U
 Frequencies --   133.1489               149.2306               220.1571
 Red. masses --    12.0000                12.0000                12.0000
 Frc consts  --     0.1253                 0.1575                 0.3427
 IR Inten    --     0.0000                 0.0000                 0.0000

                     4                      5                      6
                    EG                     EG                     A2U
 Frequencies --   280.2140               280.2141               309.0172
 Red. masses --    12.0000                12.0000                12.0000
 Frc consts  --     0.5552                 0.5552                 0.6751
 IR Inten    --     0.0000                 0.0000                12.5612

                     7                      8                      9
                    B1G                    EU                     EU
 Frequencies --   489.3247               577.3601               577.3601
 Red. masses --    12.0000                12.0000                12.0000
 Frc consts  --     1.6929                 2.3568                 2.3568
 IR Inten    --     0.0000                67.6873                67.6873

                    10                     11                     12
                    A1G                    A1G                    EU
 Frequencies --   715.4616              1009.8501              1143.3189
 Red. masses --    12.0000                12.0000                12.0000
 Frc consts  --     3.6191                 7.2102                 9.2420
 IR Inten    --     0.0000                 0.0000                11.7493

                    13                     14                     15
                    EU                     B1G                    EU
 Frequencies --  1143.3189              1370.1732              1647.0395
 Red. masses --    12.0000                12.0000                12.0000
 Frc consts  --     9.2420                13.2734                19.1796
 IR Inten    --    11.7493                 0.0000               522.5789

                    16                     17                     18
                    EU                     B2G                    A2G
 Frequencies --  1647.0395              1729.8053              1845.4115
 Red. masses --    12.0000                12.0000                12.0000
 Frc consts  --    19.1796                21.1556                24.0779
 IR Inten    --   522.5789                 0.0000                 0.0000

 - Thermochemistry -
 -------------------
 Temperature   298.150 Kelvin.  Pressure   1.00000 Atm.
 Atom     1 has atomic number  6 and mass  12.00000

 Molecular mass:    96.00000 amu.
 Principal axes and moments of inertia in atomic units:
                           1         2         3
     Eigenvalues --   479.92811 479.92811 959.85622
           X            0.75258  -0.65850   0.00000
           Y            0.65850   0.75258   0.00000
           Z            0.00000   0.00000   1.00000
 This molecule is an oblate symmetric top.
 Rotational symmetry number  8.
 Warning -- assumption of classical behavior for rotation
           may cause significant error
 Rotational temperatures (Kelvin)      0.18047     0.18047     0.09024
 Rotational constants (GHZ):           3.76044     3.76044     1.88022
 Zero-point vibrational energy      91319.6 (Joules/Mol)
                                   21.82591 (Kcal/Mol)
 Warning -- explicit consideration of   9 degrees of freedom as
           vibrations may cause significant error
 Vibrational temperatures:    191.57   214.71   316.76   403.16   403.17
          (Kelvin)            444.61   704.03   830.69   830.69  1029.39
                             1452.95  1644.98  1644.98  1971.37  2369.72
                             2369.72  2488.80  2655.13

 Zero-point correction=                           0.034782 (Hartree/Particle)
 Thermal correction to Energy=                    0.041541
 Thermal correction to Enthalpy=                  0.042485
 Thermal correction to Gibbs Free Energy=         0.005091
 Sum of electronic and zero-point Energies=           -304.451532
 Sum of electronic and thermal Energies=              -304.444773
 Sum of electronic and thermal Enthalpies=            -304.443829
 Sum of electronic and thermal Free Energies=         -304.481223

                     E (Thermal)             CV                S
                      KCal/Mol        Cal/Mol-Kelvin    Cal/Mol-Kelvin
 Total                   26.067             22.023             78.702
 Electronic               0.000              0.000              2.183
 Translational            0.889              2.981             39.596
 Rotational               0.889              2.981             22.762
 Vibrational             24.290             16.062             14.161
 Vibration     1          0.613              1.920              2.900
 Vibration     2          0.618              1.904              2.682
 Vibration     3          0.647              1.810              1.958
 Vibration     4          0.680              1.710              1.532
 Vibration     5          0.680              1.710              1.532
 Vibration     6          0.698              1.657              1.368
 Vibration     7          0.845              1.274              0.685
 Vibration     8          0.934              1.080              0.490
 Vibration     9          0.934              1.080              0.490

 Optimization completed.
    -- Stationary point found.
 Normal termination of Gaussian 09 at Wed Jul  6 21:09:46 2016.
