 Gaussian 09, Revision E.01,
 Gaussian 09:  EM64L-G09RevE.01 30-Nov-2015

 ---------------------------------------------
 #p b3lyp/6-311++G(3df,2p) freq symmetry=Loose
 ---------------------------------------------

 ---------
 b3lyp opt
 ---------
 Symbolic Z-matrix:
 Charge =  0 Multiplicity = 3

                         Standard orientation:
 ---------------------------------------------------------------------
 Center     Atomic      Atomic             Coordinates (Angstroms)
 Number     Number       Type             X           Y           Z
 ---------------------------------------------------------------------
      1          6           0        0.000000    0.000000    4.483477
      2          6           0        0.000000    0.000000    3.193069
      3          6           0        0.000000    0.000000    1.907871
      4          6           0        0.000000    0.000000    0.638442
      5          6           0        0.000000    0.000000   -0.638442
      6          6           0        0.000000    0.000000   -1.907871
      7          6           0        0.000000    0.000000   -3.193069
      8          6           0        0.000000    0.000000   -4.483477
 ---------------------------------------------------------------------

 SCF Done:  E(UB3LYP) =  -304.522971452     A.U. after   24 cycles

 The electronic state is 3-SGG.
 Alpha  occ. eigenvalues --  -10.29902 -10.29899 -10.28877 -10.28747 -10.26170
 Alpha  occ. eigenvalues --  -10.26169 -10.23770 -10.23769  -0.91052  -0.87830
 Alpha  occ. eigenvalues --   -0.83487  -0.79896  -0.73964  -0.68575  -0.65069
 Alpha  occ. eigenvalues --   -0.46739  -0.46739  -0.41928  -0.41928  -0.35357
 Alpha  occ. eigenvalues --   -0.35357  -0.33436  -0.33425  -0.28377  -0.28377
 Alpha virt. eigenvalues --   -0.14990  -0.14990  -0.03615  -0.03615  -0.01563
 Alpha virt. eigenvalues --    0.01487   0.03240   0.03240   0.04409   0.05655
 Alpha virt. eigenvalues --    0.05655   0.06188   0.06292   0.06292   0.07899

  Beta  occ. eigenvalues --  -10.29575 -10.29572 -10.28675 -10.28540 -10.25338
  Beta  occ. eigenvalues --  -10.25338 -10.23646 -10.23645  -0.89929  -0.86573
  Beta  occ. eigenvalues --   -0.82396  -0.77344  -0.72347  -0.67440  -0.64406
  Beta  occ. eigenvalues --   -0.45155  -0.45155  -0.39915  -0.39915  -0.32728
  Beta  occ. eigenvalues --   -0.32728  -0.31887  -0.31879
  Beta virt. eigenvalues --   -0.21285  -0.21285  -0.11935  -0.11935  -0.01478
  Beta virt. eigenvalues --   -0.01347  -0.01347   0.01632   0.03352   0.03352
  Beta virt. eigenvalues --    0.04622   0.05987   0.05987   0.06283   0.07085

 Mulliken charges and spin densities:
               1          2
     1  C   -0.801629   0.453510
     2  C    1.552721   0.255001
     3  C   -0.233030   0.221896
     4  C   -0.518063   0.069592
     5  C   -0.518063   0.069592
     6  C   -0.233030   0.221896
     7  C    1.552721   0.255001
     8  C   -0.801629   0.453510
 Sum of Mulliken charges =  -0.00000   2.00000

 Dipole moment (field-independent basis, Debye):
    X=             -0.0000    Y=              0.0000    Z=             -0.0000  Tot=              0.0000
 Quadrupole moment (field-independent basis, Debye-Ang):
   XX=            -44.1728   YY=            -44.1728   ZZ=            -82.7063
   XY=             -0.0000   XZ=              0.0000   YZ=              0.0000

  Exact polarizability:  52.749  -0.000  52.749   0.000   0.000 400.737
 Approx polarizability:  75.487  -0.000  75.487  -0.000  -0.0001108.995

                      1                      2                      3
                     PIU                    PIU                    PIG
 Frequencies --     63.3364                63.3364               151.1503
 Red. masses --     12.0000                12.0000                12.0000
 Frc consts  --      0.0284                 0.0284                 0.1615
 IR Inten    --      9.9868                 9.9868                 0.0000

                      4                      5                      6
                     PIG                    PIU                    PIU
 Frequencies --    151.1503               246.1866               246.1866
 Red. masses --     12.0000                12.0000                12.0000
 Frc consts  --      0.1615                 0.4285                 0.4285
 IR Inten    --      0.0000                10.5292                10.5292

                      7                      8                      9
                     PIG                    PIG                    SGG
 Frequencies --    390.8400               390.8400               515.2547
 Red. masses --     12.0000                12.0000                12.0000
 Frc consts  --      1.0800                 1.0800                 1.8770
 IR Inten    --      0.0000                 0.0000                 0.0000

                     10                     11                     12
                     PIU                    PIU                    PIG
 Frequencies --    543.3370               543.3370               623.2282
 Red. masses --     12.0000                12.0000                12.0000
 Frc consts  --      2.0872                 2.0872                 2.7462
 IR Inten    --      0.0120                 0.0120                 0.0000

                     13                     14                     15
                     PIG                    SGU                    SGG
 Frequencies --    623.2282               976.5253              1400.8619
 Red. masses --     12.0000                12.0000                12.0000
 Frc consts  --      2.7462                 6.7421                13.8746
 IR Inten    --      0.0000                16.9134                 0.0000

                     16                     17                     18
                     SGU                    SGG                    SGG
 Frequencies --   1766.3833              2025.4170              2127.4838
 Red. masses --     12.0000                12.0000                12.0000
 Frc consts  --     22.0598                29.0042                32.0010
 IR Inten    --    779.2159                 0.0000                 0.0000

                     19
                     SGU
 Frequencies --   2153.9655
 Red. masses --     12.0000
 Frc consts  --     32.8026
 IR Inten    --   2249.3904

 - Thermochemistry -
 -------------------
 Temperature   298.150 Kelvin.  Pressure   1.00000 Atm.
 Atom     1 has atomic number  6 and mass  12.00000

 Molecular mass:    96.00000 amu.
 Principal axes and moments of inertia in atomic units:
                           1         2         3
     Eigenvalues --     0.000002943.543252943.54325
           X           -0.00000   1.00000  -0.00000
           Y            0.00000   0.00000   1.00000
           Z            1.00000   0.00000  -0.00000
 This molecule is a prolate symmetric top.
 Rotational symmetry number  2.
 Warning -- assumption of classical behavior for rotation
           may cause significant error
 Rotational temperature (Kelvin)      0.02943
 Rotational constant (GHZ):           0.613119
 Zero-point vibrational energy      89732.2 (Joules/Mol)
                                   21.44650 (Kcal/Mol)
 Warning -- explicit consideration of  11 degrees of freedom as
           vibrations may cause significant error
 Vibrational temperatures:     91.13    91.13   217.47   217.47   354.21
          (Kelvin)            354.21   562.33   562.33   741.34   781.74
                              781.74   896.69   896.69  1405.00  2015.53
                             2541.43  2914.12  3060.97  3099.07

 Zero-point correction=                           0.034177 (Hartree/Particle)
 Thermal correction to Energy=                    0.042002
 Thermal correction to Enthalpy=                  0.042946
 Thermal correction to Gibbs Free Energy=         0.003543
 Sum of electronic and zero-point Energies=           -304.488794
 Sum of electronic and thermal Energies=              -304.480969
 Sum of electronic and thermal Enthalpies=            -304.480025
 Sum of electronic and thermal Free Energies=         -304.519429

                     E (Thermal)             CV                S
                      KCal/Mol        Cal/Mol-Kelvin    Cal/Mol-Kelvin
 Total                   26.357             25.285             82.931
 Electronic               0.000              0.000              2.183
 Translational            0.889              2.981             39.596
 Rotational               0.592              1.987             18.939
 Vibrational             24.875             20.317             22.213
 Vibration     1          0.597              1.972              4.350
 Vibration     2          0.597              1.972              4.350
 Vibration     3          0.619              1.901              2.658
 Vibration     4          0.619              1.901              2.658
 Vibration     5          0.661              1.769              1.758
 Vibration     6          0.661              1.769              1.758
 Vibration     7          0.759              1.490              0.997
 Vibration     8          0.759              1.490              0.997
 Vibration     9          0.870              1.216              0.621
 Vibration    10          0.898              1.154              0.558
 Vibration    11          0.898              1.154              0.558

 Optimization completed.
    -- Stationary point found.
 Normal termination of Gaussian 09 at Sun Jun 19 02:09:59 2016.
