 Gaussian 09, Revision E.01,
 Gaussian 09:  EM64L-G09RevE.01 30-Nov-2015

 ---------------------------------------------
 #p b3lyp/6-311++G(3df,2p) freq symmetry=Loose
 ---------------------------------------------

 ---------
 b3lyp opt
 ---------
 Symbolic Z-matrix:
 Charge =  0 Multiplicity = 3

                         Standard orientation:
 ---------------------------------------------------------------------
 Center     Atomic      Atomic             Coordinates (Angstroms)
 Number     Number       Type             X           Y           Z
 ---------------------------------------------------------------------
      1          6           0        1.982451    1.391478    0.000118
      2          6           0        2.235899   -1.196935    0.000348
      3          6           0        2.387588    0.124201    0.000494
      4          6           0       -1.460480   -0.259801   -0.000823
      5          6           0       -0.084115   -0.118868   -0.000509
      6          6           0        0.922107   -1.100872    0.000074
      7          6           0        0.711257    1.045888   -0.000230
      8          6           0       -2.696357   -0.028898   -0.000946
      9          6           0       -3.998350    0.143804    0.001473
 ---------------------------------------------------------------------

 SCF Done:  E(UB3LYP) =  -342.513492266     A.U. after   24 cycles

 The electronic state is 3-A.
 Alpha  occ. eigenvalues --  -10.33037 -10.31302 -10.31296 -10.30587 -10.27036
 Alpha  occ. eigenvalues --  -10.26305 -10.26285 -10.23971 -10.21035  -1.00986
 Alpha  occ. eigenvalues --   -0.88065  -0.86966  -0.81585  -0.72698  -0.65150
 Alpha  occ. eigenvalues --   -0.64621  -0.60627  -0.53336  -0.49620  -0.45484
 Alpha  occ. eigenvalues --   -0.40132  -0.38421  -0.35721  -0.35326  -0.32455
 Alpha  occ. eigenvalues --   -0.31544  -0.28087  -0.24126
 Alpha virt. eigenvalues --   -0.16650  -0.13937  -0.08672  -0.06118  -0.05837
 Alpha virt. eigenvalues --   -0.00466   0.02153   0.02652   0.02996   0.03818
 Alpha virt. eigenvalues --    0.04521   0.05260   0.05349   0.06150   0.06256

  Beta  occ. eigenvalues --  -10.32814 -10.30708 -10.30682 -10.30596 -10.26185
  Beta  occ. eigenvalues --  -10.25760 -10.25728 -10.23078 -10.21262  -1.00606
  Beta  occ. eigenvalues --   -0.87081  -0.86454  -0.80756  -0.70580  -0.64129
  Beta  occ. eigenvalues --   -0.63039  -0.59551  -0.52835  -0.49186  -0.42942
  Beta  occ. eigenvalues --   -0.39737  -0.34993  -0.34497  -0.32271  -0.32032
  Beta  occ. eigenvalues --   -0.29954
  Beta virt. eigenvalues --   -0.18824  -0.15549  -0.12491  -0.09354  -0.07433
  Beta virt. eigenvalues --   -0.05298  -0.04843  -0.00190   0.02442   0.02719
  Beta virt. eigenvalues --    0.03274   0.04455   0.05176   0.05609   0.05679

 Mulliken charges and spin densities:
               1          2
     1  C   -0.536853   0.252413
     2  C   -0.732148   0.201156
     3  C    0.621121  -0.000524
     4  C   -0.341317   0.555592
     5  C    0.356019  -0.201855
     6  C    0.313361   0.371524
     7  C    0.030431   0.355587
     8  C    1.073091  -0.116674
     9  C   -0.783706   0.582781
 Sum of Mulliken charges =  -0.00000   2.00000

 Dipole moment (field-independent basis, Debye):
    X=              3.8131    Y=             -0.2872    Z=             -0.0035  Tot=              3.8239
 Quadrupole moment (field-independent basis, Debye-Ang):
   XX=            -71.9791   YY=            -53.2714   ZZ=            -49.7705
   XY=              1.2401   XZ=              0.0173   YZ=             -0.0008

  Exact polarizability: 195.271  -4.967 104.188  -0.003  -0.001  54.053
 Approx polarizability: 377.010 -20.110 248.353   0.002  -0.009  83.109

                      1                      2                      3
                      A                      A                      A
 Frequencies --     37.7696                93.3024               226.9294
 Red. masses --     12.0000                12.0000                12.0000
 Frc consts  --      0.0101                 0.0615                 0.3641
 IR Inten    --      3.4194                 7.5670                 1.7553

                      4                      5                      6
                      A                      A                      A
 Frequencies --    307.2019               352.0966               378.0930
 Red. masses --     12.0000                12.0000                12.0000
 Frc consts  --      0.6672                 0.8765                 1.0107
 IR Inten    --      4.6137                 2.1378                 2.4152

                      7                      8                      9
                      A                      A                      A
 Frequencies --    442.8512               462.7300               472.3959
 Red. masses --     12.0000                12.0000                12.0000
 Frc consts  --      1.3866                 1.5139                 1.5778
 IR Inten    --     13.4171                 1.4016                57.0966

                     10                     11                     12
                      A                      A                      A
 Frequencies --    514.9873               516.3627               616.2750
 Red. masses --     12.0000                12.0000                12.0000
 Frc consts  --      1.8751                 1.8851                 2.6852
 IR Inten    --      0.1783                 3.9988                 0.0008

                     13                     14                     15
                      A                      A                      A
 Frequencies --    771.2329               943.9565              1092.1351
 Red. masses --     12.0000                12.0000                12.0000
 Frc consts  --      4.2054                 6.2999                 8.4330
 IR Inten    --     20.3441               149.1551                 0.3548

                     16                     17                     18
                      A                      A                      A
 Frequencies --   1138.4772              1285.4331              1491.5302
 Red. masses --     12.0000                12.0000                12.0000
 Frc consts  --      9.1639                11.6824                15.7288
 IR Inten    --     12.6878                67.3513               145.1674

                     19                     20                     21
                      A                      A                      A
 Frequencies --   1688.6306              1731.8215              1961.8556
 Red. masses --     12.0000                12.0000                12.0000
 Frc consts  --     20.1605                21.2050                27.2123
 IR Inten    --    203.5813               302.3882               714.3699

 - Thermochemistry -
 -------------------
 Temperature   298.150 Kelvin.  Pressure   1.00000 Atm.
 Atom     1 has atomic number  6 and mass  12.00000

 Molecular mass:   108.00000 amu.
 Principal axes and moments of inertia in atomic units:
                           1         2         3
     Eigenvalues --   248.256271773.390372021.64626
           X            1.00000  -0.00000   0.00000
           Y            0.00000   1.00000   0.00000
           Z           -0.00000  -0.00000   1.00000
 This molecule is an asymmetric top.
 Rotational symmetry number  1.
 Rotational temperatures (Kelvin)      0.34889     0.04884     0.04284
 Rotational constants (GHZ):           7.26967     1.01768     0.89271
 Zero-point vibrational energy      98847.8 (Joules/Mol)
                                   23.62520 (Kcal/Mol)
 Warning -- explicit consideration of  12 degrees of freedom as
           vibrations may cause significant error
 Vibrational temperatures:     54.34   134.24   326.50   441.99   506.59
          (Kelvin)            543.99   637.16   665.76   679.67   740.95
                              742.93   886.68  1109.63  1358.14  1571.34
                             1638.01  1849.45  2145.98  2429.56  2491.70
                             2822.67

 Zero-point correction=                           0.037649 (Hartree/Particle)
 Thermal correction to Energy=                    0.045258
 Thermal correction to Enthalpy=                  0.046202
 Thermal correction to Gibbs Free Energy=         0.003752
 Sum of electronic and zero-point Energies=           -342.475843
 Sum of electronic and thermal Energies=              -342.468234
 Sum of electronic and thermal Enthalpies=            -342.467290
 Sum of electronic and thermal Free Energies=         -342.509740

                     E (Thermal)             CV                S
                      KCal/Mol        Cal/Mol-Kelvin    Cal/Mol-Kelvin
 Total                   28.400             25.888             89.344
 Electronic               0.000              0.000              2.183
 Translational            0.889              2.981             39.947
 Rotational               0.889              2.981             28.278
 Vibrational             26.622             19.927             18.935
 Vibration     1          0.594              1.982              5.373
 Vibration     2          0.602              1.954              3.590
 Vibration     3          0.651              1.800              1.903
 Vibration     4          0.697              1.660              1.377
 Vibration     5          0.729              1.571              1.157
 Vibration     6          0.748              1.517              1.047
 Vibration     7          0.802              1.377              0.818
 Vibration     8          0.820              1.333              0.758
 Vibration     9          0.829              1.311              0.731
 Vibration    10          0.870              1.217              0.622
 Vibration    11          0.871              1.214              0.618
 Vibration    12          0.976              0.997              0.423

 Normal termination of Gaussian 09 at Sun Jun 19 04:29:40 2016.
