 Gaussian 09, Revision E.01,
 Gaussian 09:  EM64L-G09RevE.01 30-Nov-2015

 ---------------------------------------------
 #p b3lyp/6-311++G(3df,2p) freq symmetry=Loose
 ---------------------------------------------

 ---------
 b3lyp opt
 ---------
 Symbolic Z-matrix:
 Charge =  0 Multiplicity = 1

                         Standard orientation:
 ---------------------------------------------------------------------
 Center     Atomic      Atomic             Coordinates (Angstroms)
 Number     Number       Type             X           Y           Z
 ---------------------------------------------------------------------
      1          6           0        0.625773    0.754447    0.000164
      2          6           0       -0.323600   -1.530969    0.001018
      3          6           0        3.179536   -0.202274   -0.000870
      4          6           0        0.665444   -0.595799    0.000306
      5          6           0       -1.489906   -0.976519    0.001090
      6          6           0       -0.507681    1.549730    0.000827
      7          6           0        1.968912    0.251214   -0.000607
      8          6           0       -1.596268    0.865486    0.001102
      9          6           0       -2.522209   -0.115316   -0.003031
 ---------------------------------------------------------------------

 SCF Done:  E(RB3LYP) =  -342.518098879     A.U. after   16 cycles

 The electronic state is 1-A.
 Alpha  occ. eigenvalues --  -10.30870 -10.30215 -10.30213 -10.29560 -10.26417
 Alpha  occ. eigenvalues --  -10.26095 -10.25522 -10.25081 -10.24715  -0.99746
 Alpha  occ. eigenvalues --   -0.93917  -0.84965  -0.82109  -0.75334  -0.66594
 Alpha  occ. eigenvalues --   -0.61086  -0.54613  -0.50970  -0.49206  -0.44357
 Alpha  occ. eigenvalues --   -0.41976  -0.40281  -0.36271  -0.32988  -0.32515
 Alpha  occ. eigenvalues --   -0.29556  -0.26709
 Alpha virt. eigenvalues --   -0.14579  -0.13911  -0.12695  -0.12109  -0.01766
 Alpha virt. eigenvalues --   -0.00658   0.01427   0.02380   0.03028   0.03040
 Alpha virt. eigenvalues --    0.04479   0.05210   0.06116   0.06180   0.06671

 Mulliken charges:
               1
     1  C    0.016201
     2  C   -0.514243
     3  C   -0.436376
     4  C   -0.121538
     5  C    0.564766
     6  C   -0.321640
     7  C    0.553675
     8  C    0.761025
     9  C   -0.501869
 Sum of Mulliken charges =  -0.00000

 Dipole moment (field-independent basis, Debye):
    X=             -1.3356    Y=              0.5852    Z=              0.0066  Tot=              1.4582
 Quadrupole moment (field-independent basis, Debye-Ang):
   XX=            -64.4955   YY=            -53.9157   ZZ=            -49.6916
   XY=              3.0637   XZ=             -0.0146   YZ=             -0.0008

  Exact polarizability: 175.425   0.632  93.060   0.006   0.003  53.457
 Approx polarizability: 447.677  15.802 205.368   0.047  -0.001  83.719

                      1                      2                      3
                      A                      A                      A
 Frequencies --     40.3729               117.4016               159.1881
 Red. masses --     12.0000                12.0000                12.0000
 Frc consts  --      0.0115                 0.0974                 0.1792
 IR Inten    --     11.7439                 8.2284                72.2138

                      4                      5                      6
                      A                      A                      A
 Frequencies --    285.8876               385.2520               396.5562
 Red. masses --     12.0000                12.0000                12.0000
 Frc consts  --      0.5779                 1.0494                 1.1118
 IR Inten    --      2.7735                41.5123                11.6076

                      7                      8                      9
                      A                      A                      A
 Frequencies --    497.3906               534.1743               547.6241
 Red. masses --     12.0000                12.0000                12.0000
 Frc consts  --      1.7491                 2.0174                 2.1203
 IR Inten    --      4.0152                 3.0362                 7.9862

                     10                     11                     12
                      A                      A                      A
 Frequencies --    575.2182               605.9827               667.4419
 Red. masses --     12.0000                12.0000                12.0000
 Frc consts  --      2.3394                 2.5963                 3.1496
 IR Inten    --     36.6395                 0.3172               104.6525

                     13                     14                     15
                      A                      A                      A
 Frequencies --    768.6790              1035.3530              1076.5743
 Red. masses --     12.0000                12.0000                12.0000
 Frc consts  --      4.1775                 7.5789                 8.1944
 IR Inten    --     27.3830                71.5057                 3.8023

                     16                     17                     18
                      A                      A                      A
 Frequencies --   1200.9737              1363.6527              1561.8127
 Red. masses --     12.0000                12.0000                12.0000
 Frc consts  --     10.1976                13.1474                17.2460
 IR Inten    --     21.7713               121.3649                85.5063

                     19                     20                     21
                      A                      A                      A
 Frequencies --   1668.1762              1791.7441              1846.1309
 Red. masses --     12.0000                12.0000                12.0000
 Frc consts  --     19.6750                22.6978                24.0966
 IR Inten    --     93.2906               217.7757               265.3469

 - Thermochemistry -
 -------------------
 Temperature   298.150 Kelvin.  Pressure   1.00000 Atm.
 Atom     1 has atomic number  6 and mass  12.00000

 Molecular mass:   108.00000 amu.
 Principal axes and moments of inertia in atomic units:
                           1         2         3
     Eigenvalues --   320.953911127.558141448.51080
           X            1.00000   0.00000   0.00001
           Y           -0.00000   1.00000   0.00001
           Z           -0.00001  -0.00001   1.00000
 This molecule is an asymmetric top.
 Rotational symmetry number  1.
 Rotational temperatures (Kelvin)      0.26986     0.07682     0.05980
 Rotational constants (GHZ):           5.62305     1.60057     1.24593
 Zero-point vibrational energy     102433.8 (Joules/Mol)
                                   24.48226 (Kcal/Mol)
 Warning -- explicit consideration of  11 degrees of freedom as
           vibrations may cause significant error
 Vibrational temperatures:     58.09   168.91   229.04   411.33   554.29
          (Kelvin)            570.56   715.63   768.56   787.91   827.61
                              871.87   960.30  1105.96  1489.64  1548.95
                             1727.93  1961.99  2247.10  2400.13  2577.92
                             2656.17

 Zero-point correction=                           0.039015 (Hartree/Particle)
 Thermal correction to Energy=                    0.046363
 Thermal correction to Enthalpy=                  0.047307
 Thermal correction to Gibbs Free Energy=         0.006601
 Sum of electronic and zero-point Energies=           -342.479084
 Sum of electronic and thermal Energies=              -342.471736
 Sum of electronic and thermal Enthalpies=            -342.470792
 Sum of electronic and thermal Free Energies=         -342.511498

                     E (Thermal)             CV                S
                      KCal/Mol        Cal/Mol-Kelvin    Cal/Mol-Kelvin
 Total                   29.093             24.838             85.674
 Electronic               0.000              0.000              0.000
 Translational            0.889              2.981             39.947
 Rotational               0.889              2.981             27.752
 Vibrational             27.316             18.876             17.975
 Vibration     1          0.594              1.981              5.241
 Vibration     2          0.608              1.935              3.143
 Vibration     3          0.621              1.892              2.559
 Vibration     4          0.684              1.700              1.498
 Vibration     5          0.754              1.502              1.018
 Vibration     6          0.763              1.478              0.975
 Vibration     7          0.853              1.256              0.665
 Vibration     8          0.889              1.174              0.578
 Vibration     9          0.903              1.145              0.549
 Vibration    10          0.932              1.085              0.494
 Vibration    11          0.965              1.019              0.439

 Normal termination of Gaussian 09 at Sun Jun 19 03:30:30 2016.
