 Gaussian 09, Revision E.01,
 Gaussian 09:  EM64L-G09RevE.01 30-Nov-2015

 ---------------------------------------------
 #p b3lyp/6-311++G(3df,2p) freq symmetry=Loose
 ---------------------------------------------

 ---------
 b3lyp opt
 ---------
 Symbolic Z-matrix:
 Charge =  0 Multiplicity = 1

                         Standard orientation:
 ---------------------------------------------------------------------
 Center     Atomic      Atomic             Coordinates (Angstroms)
 Number     Number       Type             X           Y           Z
 ---------------------------------------------------------------------
      1          6           0       -0.619297   -1.462653    0.002346
      2          6           0        2.579916    0.410176   -0.006534
      3          6           0       -1.619038   -0.519391   -0.000039
      4          6           0        1.221384    0.897908    0.001102
      5          6           0       -1.220417    0.896997    0.001054
      6          6           0       -2.579721    0.410959   -0.006009
      7          6           0        1.618018   -0.519210    0.001448
      8          6           0        0.619257   -1.463921    0.000558
      9          6           0       -0.000101    1.349134    0.006074
 ---------------------------------------------------------------------

 SCF Done:  E(RB3LYP) =  -342.580201749     A.U. after   15 cycles

 The electronic state is 1-A.
 Alpha  occ. eigenvalues --  -10.30596 -10.30577 -10.29783 -10.29772 -10.26612
 Alpha  occ. eigenvalues --  -10.26435 -10.24709 -10.24706 -10.23910  -0.99580
 Alpha  occ. eigenvalues --   -0.97172  -0.86104  -0.82224  -0.73373  -0.68022
 Alpha  occ. eigenvalues --   -0.64075  -0.51528  -0.48749  -0.47509  -0.46639
 Alpha  occ. eigenvalues --   -0.44076  -0.43271  -0.38160  -0.35524  -0.30446
 Alpha  occ. eigenvalues --   -0.27343  -0.26317
 Alpha virt. eigenvalues --   -0.16109  -0.11306  -0.11095  -0.06812  -0.02045
 Alpha virt. eigenvalues --   -0.00064   0.02484   0.02793   0.03210   0.04661
 Alpha virt. eigenvalues --    0.05448   0.05618   0.05796   0.07028   0.07856

 Mulliken charges:
               1
     1  C   -0.291810
     2  C   -0.644120
     3  C    0.719659
     4  C    0.136116
     5  C    0.139475
     6  C   -0.648093
     7  C    0.723685
     8  C   -0.288058
     9  C    0.153147
 Sum of Mulliken charges =  -0.00000

 Dipole moment (field-independent basis, Debye):
    X=              0.0002    Y=             -1.2713    Z=              0.0180  Tot=              1.2714
 Quadrupole moment (field-independent basis, Debye-Ang):
   XX=            -66.3776   YY=            -50.0829   ZZ=            -49.1263
   XY=              0.0138   XZ=              0.0025   YZ=              0.0036

  Exact polarizability: 160.114   0.000  93.676  -0.010  -0.004  51.217
 Approx polarizability: 417.925  -0.008 225.373  -0.094  -0.016  81.649

                      1                      2                      3
                      A                      A                      A
 Frequencies --    119.3193               213.6359               361.0516
 Red. masses --     12.0000                12.0000                12.0000
 Frc consts  --      0.1007                 0.3227                 0.9217
 IR Inten    --      6.7285                 0.0004                 1.9893

                      4                      5                      6
                      A                      A                      A
 Frequencies --    377.9685               449.5348               478.5498
 Red. masses --     12.0000                12.0000                12.0000
 Frc consts  --      1.0100                 1.4288                 1.6191
 IR Inten    --      0.3512                18.7994                 5.6015

                      7                      8                      9
                      A                      A                      A
 Frequencies --    497.8474               536.3094               573.6503
 Red. masses --     12.0000                12.0000                12.0000
 Frc consts  --      1.7524                 2.0336                 2.3266
 IR Inten    --      0.0011                17.6892                 2.9426

                     10                     11                     12
                      A                      A                      A
 Frequencies --    579.8135               596.8327               709.1997
 Red. masses --     12.0000                12.0000                12.0000
 Frc consts  --      2.3769                 2.5185                 3.5561
 IR Inten    --      0.0202                 2.7406                11.7454

                     13                     14                     15
                      A                      A                      A
 Frequencies --    804.7596               839.1898               866.5154
 Red. masses --     12.0000                12.0000                12.0000
 Frc consts  --      4.5789                 4.9791                 5.3086
 IR Inten    --     23.8880                 0.1109                 0.6248

                     16                     17                     18
                      A                      A                      A
 Frequencies --   1058.2312              1455.6049              1513.6438
 Red. masses --     12.0000                12.0000                12.0000
 Frc consts  --      7.9176                14.9802                16.1986
 IR Inten    --     10.3738                31.6596                 1.8264

                     19                     20                     21
                      A                      A                      A
 Frequencies --   1663.0501              1804.8557              2019.6956
 Red. masses --     12.0000                12.0000                12.0000
 Frc consts  --     19.5543                23.0312                28.8405
 IR Inten    --      4.8681               137.9042                19.6989

 - Thermochemistry -
 -------------------
 Temperature   298.150 Kelvin.  Pressure   1.00000 Atm.
 Atom     1 has atomic number  6 and mass  12.00000

 Molecular mass:   108.00000 amu.
 Principal axes and moments of inertia in atomic units:
                           1         2         3
     Eigenvalues --   368.10644 955.553511323.64915
           X            1.00000  -0.00000   0.00000
           Y            0.00000   1.00000   0.00000
           Z            0.00000  -0.00000   1.00000
 This molecule is an asymmetric top.
 Rotational symmetry number  1.
 Rotational temperatures (Kelvin)      0.23530     0.09064     0.06544
 Rotational constants (GHZ):           4.90277     1.88869     1.36346
 Zero-point vibrational energy     104788.4 (Joules/Mol)
                                   25.04504 (Kcal/Mol)
 Warning -- explicit consideration of  11 degrees of freedom as
           vibrations may cause significant error
 Vibrational temperatures:    171.67   307.37   519.47   543.81   646.78
          (Kelvin)            688.53   716.29   771.63   825.35   834.22
                              858.71  1020.38  1157.87  1207.41  1246.72
                             1522.56  2094.29  2177.79  2392.76  2596.78
                             2905.89

 Zero-point correction=                           0.039912 (Hartree/Particle)
 Thermal correction to Energy=                    0.046460
 Thermal correction to Enthalpy=                  0.047404
 Thermal correction to Gibbs Free Energy=         0.009392
 Sum of electronic and zero-point Energies=           -342.540290
 Sum of electronic and thermal Energies=              -342.533742
 Sum of electronic and thermal Enthalpies=            -342.532798
 Sum of electronic and thermal Free Energies=         -342.570809

                     E (Thermal)             CV                S
                      KCal/Mol        Cal/Mol-Kelvin    Cal/Mol-Kelvin
 Total                   29.154             24.215             80.002
 Electronic               0.000              0.000              0.000
 Translational            0.889              2.981             39.947
 Rotational               0.889              2.981             27.634
 Vibrational             27.376             18.253             12.420
 Vibration     1          0.609              1.933              3.111
 Vibration     2          0.644              1.820              2.012
 Vibration     3          0.735              1.552              1.118
 Vibration     4          0.748              1.517              1.047
 Vibration     5          0.808              1.362              0.797
 Vibration     6          0.835              1.298              0.714
 Vibration     7          0.853              1.255              0.664
 Vibration     8          0.891              1.170              0.573
 Vibration     9          0.930              1.088              0.497
 Vibration    10          0.936              1.075              0.486
 Vibration    11          0.955              1.039              0.455

 Normal termination of Gaussian 09 at Sun Jun 19 03:31:07 2016.
