 Gaussian 09, Revision E.01,
 Gaussian 09:  EM64L-G09RevE.01 30-Nov-2015

 ------------------------------
 #p b3lyp/6-311++G(3df,2p) freq
 ------------------------------

 ---------
 b3lyp opt
 ---------
 Symbolic Z-matrix:
 Charge =  0 Multiplicity = 3

                         Standard orientation:
 ---------------------------------------------------------------------
 Center     Atomic      Atomic             Coordinates (Angstroms)
 Number     Number       Type             X           Y           Z
 ---------------------------------------------------------------------
      1          6           0        0.629563   -1.622131    0.000000
      2          6           0        1.798342   -0.960797   -0.000000
      3          6           0        1.720664    0.303162   -0.000000
      4          6           0        1.255228    1.560701   -0.000000
      5          6           0       -0.000000    1.718399   -0.000000
      6          6           0       -1.316854    1.495354   -0.000000
      7          6           0       -1.737856    0.291128    0.000000
      8          6           0       -1.723287   -1.021495    0.000000
      9          6           0       -0.625800   -1.764322    0.000000
 ---------------------------------------------------------------------

 SCF Done:  E(UB3LYP) =  -342.595800950     A.U. after   24 cycles

 The electronic state is 3-A".
 Alpha  occ. eigenvalues --  -10.27553 -10.27354 -10.27050 -10.26262 -10.26151
 Alpha  occ. eigenvalues --  -10.24343 -10.23484 -10.23001 -10.22499  -0.91801
 Alpha  occ. eigenvalues --   -0.87212  -0.86890  -0.78599  -0.75890  -0.65286
 Alpha  occ. eigenvalues --   -0.64099  -0.56664  -0.55603  -0.45805  -0.45458
 Alpha  occ. eigenvalues --   -0.40071  -0.39913  -0.39207  -0.38838  -0.27942
 Alpha  occ. eigenvalues --   -0.26404  -0.25810  -0.25047
 Alpha virt. eigenvalues --   -0.08665  -0.07815  -0.07040  -0.05106  -0.03988
 Alpha virt. eigenvalues --   -0.03171   0.00407   0.02692   0.02887   0.04063
 Alpha virt. eigenvalues --    0.05283   0.05965   0.06221   0.06923   0.07236

  Beta  occ. eigenvalues --  -10.27135 -10.26972 -10.26499 -10.26332 -10.24902
  Beta  occ. eigenvalues --  -10.23775 -10.23437 -10.22835 -10.22450  -0.90484
  Beta  occ. eigenvalues --   -0.85923  -0.85382  -0.77611  -0.73928  -0.64384
  Beta  occ. eigenvalues --   -0.63207  -0.55854  -0.55023  -0.43885  -0.43448
  Beta  occ. eigenvalues --   -0.37850  -0.37561  -0.37025  -0.36387  -0.26295
  Beta  occ. eigenvalues --   -0.25705
  Beta virt. eigenvalues --   -0.18216  -0.16998  -0.06690  -0.06057  -0.05865
  Beta virt. eigenvalues --   -0.03288  -0.01612  -0.01079   0.00604   0.02817
  Beta virt. eigenvalues --    0.03027   0.04178   0.05366   0.06162   0.06382

 Mulliken charges and spin densities:
               1          2
     1  C    0.219239   0.617281
     2  C   -0.520474   0.053379
     3  C    0.425231   0.221601
     4  C   -0.269693   0.106374
     5  C    0.379285   0.027850
     6  C   -0.479170   0.335686
     7  C    0.432316  -0.107310
     8  C   -0.288876   0.784710
     9  C    0.102140  -0.039571
 Sum of Mulliken charges =  -0.00000   2.00000

 Dipole moment (field-independent basis, Debye):
    X=             -0.4747    Y=             -0.1276    Z=              0.0000  Tot=              0.4916
 Quadrupole moment (field-independent basis, Debye-Ang):
   XX=            -52.0674   YY=            -51.7040   ZZ=            -50.6053
   XY=              0.1126   XZ=              0.0000   YZ=              0.0000

  Exact polarizability: 137.402  -4.504 128.095  -0.000   0.001  53.032
 Approx polarizability: 325.250 -11.440 299.209  -0.000  -0.000  77.878

                      1                      2                      3
                     A'                     A'                     A"
 Frequencies --    134.0252               178.5807               235.3281
 Red. masses --     12.0000                12.0000                12.0000
 Frc consts  --      0.1270                 0.2255                 0.3915
 IR Inten    --      4.8615                 2.4233                 0.0840

                      4                      5                      6
                     A"                     A'                     A"
 Frequencies --    265.1263               298.3010               336.8670
 Red. masses --     12.0000                12.0000                12.0000
 Frc consts  --      0.4970                 0.6291                 0.8023
 IR Inten    --      0.0095                47.4798                 5.2730

                      7                      8                      9
                     A"                     A"                     ?A
 Frequencies --    390.4150               403.3319               444.5439
 Red. masses --     12.0000                12.0000                12.0000
 Frc consts  --      1.0777                 1.1502                 1.3972
 IR Inten    --      0.0635                 0.2736                 3.9887

                     10                     11                     12
                     ?A                     A'                     A'
 Frequencies --    456.7161               507.6381               541.1102
 Red. masses --     12.0000                12.0000                12.0000
 Frc consts  --      1.4748                 1.8220                 2.0702
 IR Inten    --     27.0681                93.0124                24.2782

                     13                     14                     15
                     A'                     A'                     A'
 Frequencies --    861.2847               922.7681              1075.7637
 Red. masses --     12.0000                12.0000                12.0000
 Frc consts  --      5.2448                 6.0203                 8.1821
 IR Inten    --     21.2906                23.5616                47.6176

                     16                     17                     18
                     A'                     A'                     A'
 Frequencies --   1139.3398              1368.3889              1540.3860
 Red. masses --     12.0000                12.0000                12.0000
 Frc consts  --      9.1778                13.2389                16.7761
 IR Inten    --     56.8692                 5.9536               101.6188

                     19                     20                     21
                     A'                     A'                     A'
 Frequencies --   1664.1419              1860.9433              1892.0297
 Red. masses --     12.0000                12.0000                12.0000
 Frc consts  --     19.5800                24.4849                25.3097
 IR Inten    --    128.1534               208.3014               288.6491

 - Thermochemistry -
 -------------------
 Temperature   298.150 Kelvin.  Pressure   1.00000 Atm.
 Atom     1 has atomic number  6 and mass  12.00000

 Molecular mass:   108.00000 amu.
 Principal axes and moments of inertia in atomic units:
                           1         2         3
     Eigenvalues --   663.94416 698.534801362.47896
           X            0.98845  -0.15158   0.00000
           Y            0.15158   0.98845   0.00000
           Z            0.00000  -0.00000   1.00000
 This molecule is an asymmetric top.
 Rotational symmetry number  1.
 Warning -- assumption of classical behavior for rotation
           may cause significant error
 Rotational temperatures (Kelvin)      0.13045     0.12399     0.06357
 Rotational constants (GHZ):           2.71821     2.58361     1.32460
 Zero-point vibrational energy      98793.8 (Joules/Mol)
                                   23.61228 (Kcal/Mol)
 Warning -- explicit consideration of  12 degrees of freedom as
           vibrations may cause significant error
 Vibrational temperatures:    192.83   256.94   338.58   381.46   429.19
          (Kelvin)            484.68   561.72   580.30   639.60   657.11
                              730.38   778.54  1239.19  1327.66  1547.78
                             1639.25  1968.80  2216.27  2394.33  2677.48
                             2722.21

 Zero-point correction=                           0.037629 (Hartree/Particle)
 Thermal correction to Energy=                    0.045242
 Thermal correction to Enthalpy=                  0.046187
 Thermal correction to Gibbs Free Energy=         0.005035
 Sum of electronic and zero-point Energies=           -342.558172
 Sum of electronic and thermal Energies=              -342.550558
 Sum of electronic and thermal Enthalpies=            -342.549614
 Sum of electronic and thermal Free Energies=         -342.590766

                     E (Thermal)             CV                S
                      KCal/Mol        Cal/Mol-Kelvin    Cal/Mol-Kelvin
 Total                   28.390             26.454             86.611
 Electronic               0.000              0.000              2.183
 Translational            0.889              2.981             39.947
 Rotational               0.889              2.981             27.938
 Vibrational             26.613             20.492             16.542
 Vibration     1          0.613              1.919              2.887
 Vibration     2          0.629              1.869              2.343
 Vibration     3          0.655              1.787              1.838
 Vibration     4          0.671              1.737              1.628
 Vibration     5          0.691              1.677              1.426
 Vibration     6          0.718              1.602              1.227
 Vibration     7          0.758              1.491              0.999
 Vibration     8          0.769              1.463              0.950
 Vibration     9          0.804              1.373              0.812
 Vibration    10          0.815              1.346              0.776
 Vibration    11          0.863              1.233              0.639
 Vibration    12          0.896              1.159              0.563

 Normal termination of Gaussian 09 at Thu Jul  7 22:30:48 2016.
