 Gaussian 09, Revision C.01,
 Gaussian 09:  AM64L-G09RevC.01 23-Sep-2011

 ---------------------------------------------
 #p b3lyp/6-311++G(3df,2p) freq symmetry=Loose
 ---------------------------------------------

 (Enter /home/nestor/.gaussian09/l101.exe)
 ---------
 b3lyp opt
 ---------
 Charge =  0 Multiplicity = 1

                         Standard orientation:
 ---------------------------------------------------------------------
 Center     Atomic      Atomic             Coordinates (Angstroms)
 Number     Number       Type             X           Y           Z
 ---------------------------------------------------------------------
      1          6           0       -1.398628   -1.242430    0.000000
      2          6           0        0.000000    0.968556    0.000000
      3          6           0        1.166745    0.117520    0.000000
      4          6           0       -0.439561   -2.159441    0.000000
      5          6           0        1.318361   -1.120566    0.000000
      6          6           0       -0.146111    2.304067    0.000000
      7          6           0        0.817115   -2.380430    0.000000
      8          6           0       -0.316051    3.557702    0.000000
      9          6           0       -1.001870   -0.044978    0.000000
 ---------------------------------------------------------------------

 SCF Done:  E(RB3LYP) =  -342.555982444     A.U. after   22 cycles

 The electronic state is 1-A'.
 Alpha  occ. eigenvalues --  -10.32408 -10.32371 -10.31306 -10.28936 -10.28207
 Alpha  occ. eigenvalues --  -10.28011 -10.25721 -10.19328 -10.17117  -0.97823
 Alpha  occ. eigenvalues --   -0.89450  -0.86508  -0.78842  -0.72470  -0.69257
 Alpha  occ. eigenvalues --   -0.62071  -0.58409  -0.56897  -0.49007  -0.46915
 Alpha  occ. eigenvalues --   -0.40468  -0.38264  -0.35994  -0.31305  -0.28999
 Alpha  occ. eigenvalues --   -0.28119  -0.27445
 Alpha virt. eigenvalues --   -0.15790  -0.15180  -0.13589  -0.12291  -0.06973
 Alpha virt. eigenvalues --   -0.00923   0.01506   0.01908   0.02318   0.02642
 Alpha virt. eigenvalues --    0.02710   0.04417   0.05803   0.06305   0.06538

 Mulliken atomic charges:
              1
     1  C   -0.157895
     2  C    0.136596
     3  C   -0.315389
     4  C    0.351544
     5  C    0.061000
     6  C    0.750702
     7  C   -0.365816
     8  C   -0.572867
     9  C    0.112123
 Sum of Mulliken atomic charges =   0.00000

 Dipole moment (field-independent basis, Debye):
    X=             -0.3741    Y=             -6.6686    Z=              0.0000  Tot=              6.6791
 Quadrupole moment (field-independent basis, Debye-Ang):
   XX=            -50.5758   YY=            -72.2247   ZZ=            -49.6069
   XY=              3.1619   XZ=              0.0000   YZ=              0.0000

  Exact polarizability:  92.779 -12.728 196.695   0.000   0.000  53.273
 Approx polarizability: 211.113 -50.504 479.625   0.000   0.000  82.080

                     1                      2                      3
                    A"                     A'                     A"
 Frequencies --    92.7597               127.3985               225.6270
 Red. masses --    12.0000                12.0000                12.0000
 Frc consts  --     0.0608                 0.1148                 0.3599
 IR Inten    --     9.1052                 4.2115                 2.0038

                     4                      5                      6
                    A'                     A"                     A'
 Frequencies --   332.0328               376.3589               383.6618
 Red. masses --    12.0000                12.0000                12.0000
 Frc consts  --     0.7795                 1.0015                 1.0407
 IR Inten    --    18.8347                 2.5732                26.5964

                     7                      8                      9
                    A"                     A'                     A"
 Frequencies --   416.1623               442.8996               494.2691
 Red. masses --    12.0000                12.0000                12.0000
 Frc consts  --     1.2245                 1.3869                 1.7273
 IR Inten    --     0.4752                 4.2545                 0.0031

                    10                     11                     12
                    A'                     A'                     A"
 Frequencies --   524.0231               588.6073               651.4787
 Red. masses --    12.0000                12.0000                12.0000
 Frc consts  --     1.9415                 2.4495                 3.0008
 IR Inten    --     6.2965                32.5631                 0.6538

                    13                     14                     15
                    A'                     A'                     A'
 Frequencies --   723.4274               966.9161              1150.5739
 Red. masses --    12.0000                12.0000                12.0000
 Frc consts  --     3.7002                 6.6101                 9.3597
 IR Inten    --    10.1533                36.4292               133.6394

                    16                     17                     18
                    A'                     A'                     A'
 Frequencies --  1304.9965              1366.3328              1729.2727
 Red. masses --    12.0000                12.0000                12.0000
 Frc consts  --    12.0407                13.1991                21.1426
 IR Inten    --    54.3205                31.7625               236.8060

                    19                     20                     21
                    A'                     A'                     A'
 Frequencies --  1878.4336              1980.5371              2056.6617
 Red. masses --    12.0000                12.0000                12.0000
 Frc consts  --    24.9473                27.7330                29.9059
 IR Inten    --   178.3604               454.9449              1273.4721

 - Thermochemistry -
 -------------------
 Temperature   298.150 Kelvin.  Pressure   1.00000 Atm.
 Atom     1 has atomic number  6 and mass  12.00000

 Molecular mass:   108.00000 amu.
 Principal axes and moments of inertia in atomic units:
                           1         2         3
     Eigenvalues --   294.834871380.290231675.12510
           X           -0.07978   0.99681   0.00000
           Y            0.99681   0.07978   0.00000
           Z            0.00000   0.00000   1.00000
 This molecule is an asymmetric top.
 Rotational symmetry number  1.
 Rotational temperatures (Kelvin)      0.29377     0.06275     0.05171
 Rotational constants (GHZ):           6.12119     1.30751     1.07738
 Zero-point vibrational energy     106542.0 (Joules/Mol)
                                   25.46415 (Kcal/Mol)
 Warning -- explicit consideration of  11 degrees of freedom as
           vibrations may cause significant error
 Vibrational temperatures:    133.46   183.30   324.63   477.72   541.50
          (Kelvin)            552.00   598.76   637.23   711.14   753.95
                              846.87   937.33  1040.85  1391.17  1655.42
                             1877.60  1965.85  2488.03  2702.64  2849.55
                             2959.07

 Zero-point correction=                           0.040580 (Hartree/Particle)
 Thermal correction to Energy=                    0.047895
 Thermal correction to Enthalpy=                  0.048839
 Thermal correction to Gibbs Free Energy=         0.008872
 Sum of electronic and zero-point Energies=           -342.515403
 Sum of electronic and thermal Energies=              -342.508088
 Sum of electronic and thermal Enthalpies=            -342.507143
 Sum of electronic and thermal Free Energies=         -342.547110

                     E (Thermal)             CV                S
                      KCal/Mol        Cal/Mol-Kelvin    Cal/Mol-Kelvin
 Total                   30.054             25.311             84.117
 Electronic               0.000              0.000              0.000
 Translational            0.889              2.981             39.947
 Rotational               0.889              2.981             28.013
 Vibrational             28.277             19.349             16.157
 Vibration     1          0.602              1.954              3.601
 Vibration     2          0.611              1.926              2.985
 Vibration     3          0.650              1.802              1.913
 Vibration     4          0.714              1.612              1.250
 Vibration     5          0.747              1.520              1.054
 Vibration     6          0.753              1.505              1.025
 Vibration     7          0.779              1.435              0.905
 Vibration     8          0.803              1.377              0.818
 Vibration     9          0.850              1.263              0.673
 Vibration    10          0.879              1.197              0.601
 Vibration    11          0.946              1.056              0.470

 Optimization completed.
    -- Stationary point found.
 Normal termination of Gaussian 09 at Thu Jul  7 09:03:06 2016.
