 Gaussian 09, Revision E.01,
 Gaussian 09:  EM64L-G09RevE.01 30-Nov-2015

 ------------------------------
 #p b3lyp/6-311++G(3df,2p) freq
 ------------------------------

 ---------
 b3lyp opt
 ---------
 Symbolic Z-matrix:
 Charge =  0 Multiplicity = 1

                         Standard orientation:
 ---------------------------------------------------------------------
 Center     Atomic      Atomic             Coordinates (Angstroms)
 Number     Number       Type             X           Y           Z
 ---------------------------------------------------------------------
      1          6           0       -1.093762    0.383273    0.681498
      2          6           0        0.310041    0.925694    1.014857
      3          6           0        0.310041   -1.551513   -0.620439
      4          6           0        0.310041   -1.551513    0.620439
      5          6           0        1.223227    1.264933   -0.000000
      6          6           0       -0.137935   -0.389921    1.354263
      7          6           0       -0.137935   -0.389921   -1.354263
      8          6           0        0.310041    0.925694   -1.014857
      9          6           0       -1.093762    0.383273   -0.681498
 ---------------------------------------------------------------------

 SCF Done:  E(RB3LYP) =  -342.429671582     A.U. after   16 cycles

 The electronic state is 1-A'.
 Alpha  occ. eigenvalues --  -10.30485 -10.30482 -10.27943 -10.27941 -10.26576
 Alpha  occ. eigenvalues --  -10.26511 -10.25608 -10.25437 -10.21138  -1.04147
 Alpha  occ. eigenvalues --   -0.91468  -0.85746  -0.78959  -0.68797  -0.66464
 Alpha  occ. eigenvalues --   -0.58907  -0.57211  -0.49524  -0.47894  -0.43859
 Alpha  occ. eigenvalues --   -0.43218  -0.35227  -0.34744  -0.33621  -0.33131
 Alpha  occ. eigenvalues --   -0.28416  -0.24497
 Alpha virt. eigenvalues --   -0.15445  -0.14656  -0.14447  -0.08167  -0.07594
 Alpha virt. eigenvalues --   -0.01307   0.00575   0.02728   0.02935   0.03404
 Alpha virt. eigenvalues --    0.04963   0.05575   0.05964   0.05979   0.07421

 Mulliken charges:
               1
     1  C    0.056732
     2  C    0.242794
     3  C    0.038261
     4  C    0.038261
     5  C   -0.598120
     6  C   -0.038727
     7  C   -0.038727
     8  C    0.242794
     9  C    0.056732
 Sum of Mulliken charges =  -0.00000

 Dipole moment (field-independent basis, Debye):
    X=             -2.2341    Y=             -1.8202    Z=              0.0000  Tot=              2.8817
 Quadrupole moment (field-independent basis, Debye-Ang):
   XX=            -54.8399   YY=            -52.2186   ZZ=            -48.7266
   XY=             -2.6160   XZ=             -0.0000   YZ=             -0.0000

  Exact polarizability:  76.993   2.249  94.888  -0.000   0.000  93.349
 Approx polarizability: 161.593  -0.485 215.558   0.000   0.000 271.607

                      1                      2                      3
                     A"                     A"                     A'
 Frequencies --    311.2723               349.9361               397.9869
 Red. masses --     12.0000                12.0000                12.0000
 Frc consts  --      0.6850                 0.8658                 1.1199
 IR Inten    --     10.9018                 4.6426                 2.9248

                      4                      5                      6
                     A"                     A"                     A'
 Frequencies --    459.8427               524.1874               612.3259
 Red. masses --     12.0000                12.0000                12.0000
 Frc consts  --      1.4950                 1.9427                 2.6509
 IR Inten    --     56.6734                15.4549                 2.4316

                      7                      8                      9
                     A'                     A'                     A"
 Frequencies --    615.7851               633.6664               665.5438
 Red. masses --     12.0000                12.0000                12.0000
 Frc consts  --      2.6810                 2.8389                 3.1317
 IR Inten    --      9.5420                 0.7039                 0.2404

                     10                     11                     12
                     A"                     A'                     A"
 Frequencies --    713.1110               737.6095               880.6780
 Red. masses --     12.0000                12.0000                12.0000
 Frc consts  --      3.5954                 3.8467                 5.4836
 IR Inten    --      0.9907                18.1730                 1.9376

                     13                     14                     15
                     A'                     A'                     A"
 Frequencies --    889.7295               930.6065               968.6253
 Red. masses --     12.0000                12.0000                12.0000
 Frc consts  --      5.5969                 6.1230                 6.6335
 IR Inten    --     26.3989               163.1330                40.3270

                     16                     17                     18
                     A'                     A"                     A'
 Frequencies --   1123.5569              1161.9549              1271.1706
 Red. masses --     12.0000                12.0000                12.0000
 Frc consts  --      8.9253                 9.5457                11.4245
 IR Inten    --     52.9612                 0.1868                33.6064

                     19                     20                     21
                     A"                     A'                     A'
 Frequencies --   1329.7793              1406.1890              1931.6523
 Red. masses --     12.0000                12.0000                12.0000
 Frc consts  --     12.5023                13.9804                26.3809
 IR Inten    --     66.3075                17.5757                 4.1585

 - Thermochemistry -
 -------------------
 Temperature   298.150 Kelvin.  Pressure   1.00000 Atm.
 Atom     1 has atomic number  6 and mass  12.00000

 Molecular mass:   108.00000 amu.
 Principal axes and moments of inertia in atomic units:
                           1         2         3
     Eigenvalues --   501.24810 558.69759 693.95862
           X            0.09570   0.00000   0.99541
           Y            0.99541   0.00000  -0.09570
           Z           -0.00000   1.00000  -0.00000
 This molecule is an asymmetric top.
 Rotational symmetry number  1.
 Warning -- assumption of classical behavior for rotation
           may cause significant error
 Rotational temperatures (Kelvin)      0.17280     0.15503     0.12481
 Rotational constants (GHZ):           3.60049     3.23026     2.60065
 Zero-point vibrational energy     107156.7 (Joules/Mol)
                                   25.61108 (Kcal/Mol)
 Warning -- explicit consideration of   7 degrees of freedom as
           vibrations may cause significant error
 Vibrational temperatures:    447.85   503.48   572.61   661.61   754.19
          (Kelvin)            881.00   885.98   911.70   957.57  1026.01
                             1061.25  1267.10  1280.12  1338.93  1393.63
                             1616.55  1671.79  1828.93  1913.25  2023.19
                             2779.21

 Zero-point correction=                           0.040814 (Hartree/Particle)
 Thermal correction to Energy=                    0.046245
 Thermal correction to Enthalpy=                  0.047189
 Thermal correction to Gibbs Free Energy=         0.011825
 Sum of electronic and zero-point Energies=           -342.388858
 Sum of electronic and thermal Energies=              -342.383427
 Sum of electronic and thermal Enthalpies=            -342.382483
 Sum of electronic and thermal Free Energies=         -342.417847

                     E (Thermal)             CV                S
                      KCal/Mol        Cal/Mol-Kelvin    Cal/Mol-Kelvin
 Total                   29.019             21.446             74.430
 Electronic               0.000              0.000              0.000
 Translational            0.889              2.981             39.947
 Rotational               0.889              2.981             26.766
 Vibrational             27.242             15.484              7.717
 Vibration     1          0.700              1.652              1.356
 Vibration     2          0.727              1.575              1.166
 Vibration     3          0.764              1.474              0.970
 Vibration     4          0.818              1.339              0.767
 Vibration     5          0.879              1.196              0.600
 Vibration     6          0.972              1.006              0.429
 Vibration     7          0.975              0.999              0.423

 Optimization completed.
    -- Stationary point found.
 Normal termination of Gaussian 09 at Thu Jul  7 20:41:13 2016.
