 Gaussian 09, Revision E.01,
 Gaussian 09:  EM64L-G09RevE.01 30-Nov-2015

 ---------------------------------------------
 #p b3lyp/6-311++G(3df,2p) freq symmetry=Loose
 ---------------------------------------------

 ---------
 b3lyp opt
 ---------
 Symbolic Z-matrix:
 Charge =  0 Multiplicity = 1

                         Standard orientation:
 ---------------------------------------------------------------------
 Center     Atomic      Atomic             Coordinates (Angstroms)
 Number     Number       Type             X           Y           Z
 ---------------------------------------------------------------------
      1          6           0       -0.558830    0.096042    0.397566
      2          6           0        0.137948    1.315084   -0.123210
      3          6           0        0.825642    0.062162    0.102382
      4          6           0       -1.659479   -0.225060    1.270775
      5          6           0        1.969443   -0.575644    0.021278
      6          6           0        3.069436   -1.222051   -0.045425
      7          6           0       -1.844213   -0.718745   -0.015977
      8          6           0        0.123682    2.571087   -0.450569
      9          6           0       -2.063628   -1.302873   -1.156821
 ---------------------------------------------------------------------

 SCF Done:  E(RB3LYP) =  -342.385131082     A.U. after   18 cycles

 The electronic state is 1-A.
 Alpha  occ. eigenvalues --  -10.35413 -10.34609 -10.31445 -10.30901 -10.30165
 Alpha  occ. eigenvalues --  -10.27621 -10.27082 -10.25296 -10.22665  -1.02779
 Alpha  occ. eigenvalues --   -0.94451  -0.83256  -0.79883  -0.78994  -0.70521
 Alpha  occ. eigenvalues --   -0.56416  -0.53504  -0.52440  -0.46808  -0.42186
 Alpha  occ. eigenvalues --   -0.38551  -0.36205  -0.35715  -0.34861  -0.32230
 Alpha  occ. eigenvalues --   -0.31572  -0.31469
 Alpha virt. eigenvalues --   -0.21246  -0.20196  -0.16217  -0.12970  -0.03868
 Alpha virt. eigenvalues --   -0.02385  -0.01218   0.00091   0.02270   0.02899
 Alpha virt. eigenvalues --    0.03464   0.04931   0.05359   0.05441   0.05711

 Mulliken charges:
               1
     1  C    0.460856
     2  C    0.633801
     3  C   -0.589664
     4  C   -0.828336
     5  C    0.879623
     6  C   -0.442686
     7  C    0.873513
     8  C   -0.370662
     9  C   -0.616446
 Sum of Mulliken charges =  -0.00000

 Dipole moment (field-independent basis, Debye):
    X=             -1.9512    Y=              0.9646    Z=              0.7172  Tot=              2.2918
 Quadrupole moment (field-independent basis, Debye-Ang):
   XX=            -63.3888   YY=            -59.2638   ZZ=            -55.3861
   XY=              3.8524   XZ=              0.2223   YZ=             -0.8717

  Exact polarizability: 160.486  -5.127 127.075   6.543   3.872  81.932
 Approx polarizability: 346.198 -14.664 312.017  36.492  30.618 177.285

                      1                      2                      3
                      A                      A                      A
 Frequencies --     56.0456                82.0150               117.5307
 Red. masses --     12.0000                12.0000                12.0000
 Frc consts  --      0.0222                 0.0476                 0.0977
 IR Inten    --      3.1153                 3.9275                 5.9556

                      4                      5                      6
                      A                      A                      A
 Frequencies --    128.0453               164.1632               231.3094
 Red. masses --     12.0000                12.0000                12.0000
 Frc consts  --      0.1159                 0.1905                 0.3783
 IR Inten    --      7.6456                10.8057                 2.8612

                      7                      8                      9
                      A                      A                      A
 Frequencies --    289.8986               299.1560               408.6009
 Red. masses --     12.0000                12.0000                12.0000
 Frc consts  --      0.5942                 0.6327                 1.1804
 IR Inten    --      3.9823                 1.6879                 3.6258

                     10                     11                     12
                      A                      A                      A
 Frequencies --    500.7287               528.9530               551.7647
 Red. masses --     12.0000                12.0000                12.0000
 Frc consts  --      1.7727                 1.9782                 2.1525
 IR Inten    --     73.4613                22.8386                 0.5595

                     13                     14                     15
                      A                      A                      A
 Frequencies --    623.3379               687.3794               812.9292
 Red. masses --     12.0000                12.0000                12.0000
 Frc consts  --      2.7471                 3.3406                 4.6724
 IR Inten    --     12.8602                84.0261               132.0765

                     16                     17                     18
                      A                      A                      A
 Frequencies --    928.4461              1174.8524              1466.7310
 Red. masses --     12.0000                12.0000                12.0000
 Frc consts  --      6.0946                 9.7588                15.2101
 IR Inten    --     24.1585                61.4982               241.8546

                     19                     20                     21
                      A                      A                      A
 Frequencies --   1772.4762              1781.2692              2050.8358
 Red. masses --     12.0000                12.0000                12.0000
 Frc consts  --     22.2122                22.4332                29.7367
 IR Inten    --    502.5148               696.5457              1293.1414

 - Thermochemistry -
 -------------------
 Temperature   298.150 Kelvin.  Pressure   1.00000 Atm.
 Atom     1 has atomic number  6 and mass  12.00000

 Molecular mass:   108.00000 amu.
 Principal axes and moments of inertia in atomic units:
                           1         2         3
     Eigenvalues --   676.436641203.503331593.45988
           X            1.00000  -0.00000   0.00000
           Y            0.00000   1.00000   0.00000
           Z           -0.00000  -0.00000   1.00000
 This molecule is an asymmetric top.
 Rotational symmetry number  1.
 Warning -- assumption of classical behavior for rotation
           may cause significant error
 Rotational temperatures (Kelvin)      0.12804     0.07197     0.05436
 Rotational constants (GHZ):           2.66801     1.49957     1.13259
 Zero-point vibrational energy      87665.1 (Joules/Mol)
                                   20.95247 (Kcal/Mol)
 Warning -- explicit consideration of  12 degrees of freedom as
           vibrations may cause significant error
 Vibrational temperatures:     80.64   118.00   169.10   184.23   236.19
          (Kelvin)            332.80   417.10   430.42   587.88   720.44
                              761.04   793.87   896.84   988.98  1169.62
                             1335.83  1690.35  2110.30  2550.19  2562.85
                             2950.69

 Zero-point correction=                           0.033390 (Hartree/Particle)
 Thermal correction to Energy=                    0.042518
 Thermal correction to Enthalpy=                  0.043462
 Thermal correction to Gibbs Free Energy=        -0.001322
 Sum of electronic and zero-point Energies=           -342.351741
 Sum of electronic and thermal Energies=              -342.342613
 Sum of electronic and thermal Enthalpies=            -342.341669
 Sum of electronic and thermal Free Energies=         -342.386453

                     E (Thermal)             CV                S
                      KCal/Mol        Cal/Mol-Kelvin    Cal/Mol-Kelvin
 Total                   26.680             29.127             94.255
 Electronic               0.000              0.000              0.000
 Translational            0.889              2.981             39.947
 Rotational               0.889              2.981             28.652
 Vibrational             24.903             23.165             25.656
 Vibration     1          0.596              1.975              4.592
 Vibration     2          0.600              1.961              3.842
 Vibration     3          0.608              1.935              3.141
 Vibration     4          0.611              1.925              2.975
 Vibration     5          0.623              1.886              2.501
 Vibration     6          0.653              1.793              1.869
 Vibration     7          0.686              1.693              1.475
 Vibration     8          0.692              1.675              1.422
 Vibration     9          0.773              1.452              0.932
 Vibration    10          0.856              1.248              0.656
 Vibration    11          0.884              1.186              0.590
 Vibration    12          0.907              1.136              0.541

 Normal termination of Gaussian 09 at Sun Jun 19 02:32:37 2016.
