 Gaussian 09, Revision E.01,
 Gaussian 09:  EM64L-G09RevE.01 30-Nov-2015

 ------------------------------
 #p b3lyp/6-311++G(3df,2p) freq
 ------------------------------

 ---------
 b3lyp opt
 ---------
 Symbolic Z-matrix:
 Charge =  0 Multiplicity = 1

                         Standard orientation:
 ---------------------------------------------------------------------
 Center     Atomic      Atomic             Coordinates (Angstroms)
 Number     Number       Type             X           Y           Z
 ---------------------------------------------------------------------
      1          6           0       -0.000000   -1.504316    1.728477
      2          6           0        0.000000    1.108606    0.459625
      3          6           0       -0.000000    0.000000    1.366735
      4          6           0        0.000000    0.744479   -0.968686
      5          6           0       -0.000000   -1.676782   -1.902783
      6          6           0        0.000000    1.676782   -1.902783
      7          6           0       -0.000000   -0.744479   -0.968686
      8          6           0       -0.000000   -1.108606    0.459625
      9          6           0        0.000000    1.504316    1.728477
 ---------------------------------------------------------------------

 SCF Done:  E(RB3LYP) =  -342.423945485     A.U. after   15 cycles

 The electronic state is 1-A1.
 Alpha  occ. eigenvalues --  -10.32015 -10.31538 -10.31536 -10.29918 -10.29916
 Alpha  occ. eigenvalues --  -10.28845 -10.28818 -10.26408 -10.26407  -1.03385
 Alpha  occ. eigenvalues --   -0.91855  -0.91293  -0.83400  -0.73487  -0.61469
 Alpha  occ. eigenvalues --   -0.60217  -0.56415  -0.50914  -0.46395  -0.44333
 Alpha  occ. eigenvalues --   -0.40496  -0.38865  -0.37101  -0.37094  -0.34015
 Alpha  occ. eigenvalues --   -0.30456  -0.27635
 Alpha virt. eigenvalues --   -0.20050  -0.17011  -0.13535  -0.06300  -0.06226
 Alpha virt. eigenvalues --   -0.02501  -0.02248  -0.02098   0.02618   0.02813
 Alpha virt. eigenvalues --    0.03334   0.03687   0.05100   0.05387   0.05502

 Mulliken charges:
               1
     1  C   -0.490609
     2  C    0.503338
     3  C   -0.239443
     4  C    0.671517
     5  C   -0.564524
     6  C   -0.564524
     7  C    0.671517
     8  C    0.503338
     9  C   -0.490609
 Sum of Mulliken charges =  -0.00000

 Dipole moment (field-independent basis, Debye):
    X=             -0.0000    Y=             -0.0000    Z=             -2.4148  Tot=              2.4148
 Quadrupole moment (field-independent basis, Debye-Ang):
   XX=            -50.5226   YY=            -60.3707   ZZ=            -64.0964
   XY=             -0.0000   XZ=             -0.0000   YZ=              0.0000

  Exact polarizability:  54.663   0.000 123.984  -0.000  -0.000 117.393
 Approx polarizability:  89.099   0.000 256.310   0.000  -0.000 215.937

                      1                      2                      3
                     A2                     A1                     B2
 Frequencies --     89.7444               166.6479               186.7577
 Red. masses --     12.0000                12.0000                12.0000
 Frc consts  --      0.0569                 0.1964                 0.2466
 IR Inten    --      0.0000                 6.6698                55.9237

                      4                      5                      6
                     B1                     A2                     B1
 Frequencies --    202.8060               304.9785               305.2779
 Red. masses --     12.0000                12.0000                12.0000
 Frc consts  --      0.2908                 0.6576                 0.6589
 IR Inten    --     20.8962                 0.0000                 2.9302

                      7                      8                      9
                     A1                     B2                     B2
 Frequencies --    466.0535               489.8669               588.1476
 Red. masses --     12.0000                12.0000                12.0000
 Frc consts  --      1.5357                 1.6966                 2.4457
 IR Inten    --      4.6115                 4.9140                 4.6861

                     10                     11                     12
                     B1                     A1                     A2
 Frequencies --    616.2581               626.6908               634.5195
 Red. masses --     12.0000                12.0000                12.0000
 Frc consts  --      2.6851                 2.7768                 2.8466
 IR Inten    --      0.0006                15.6244                 0.0000

                     13                     14                     15
                     A1                     B2                     B2
 Frequencies --    694.2578               740.2557               904.9427
 Red. masses --     12.0000                12.0000                12.0000
 Frc consts  --      3.4078                 3.8743                 5.7899
 IR Inten    --      3.2437                26.5881                 0.0179

                     16                     17                     18
                     A1                     A1                     A1
 Frequencies --    960.2188              1123.1793              1643.2479
 Red. masses --     12.0000                12.0000                12.0000
 Frc consts  --      6.5189                 8.9193                19.0914
 IR Inten    --     16.8682                45.3232                22.5728

                     19                     20                     21
                     B2                     A1                     B2
 Frequencies --   1652.6910              1694.4732              1700.2753
 Red. masses --     12.0000                12.0000                12.0000
 Frc consts  --     19.3114                20.3002                20.4395
 IR Inten    --     74.5702                63.1385                 1.1919

 - Thermochemistry -
 -------------------
 Temperature   298.150 Kelvin.  Pressure   1.00000 Atm.
 Atom     1 has atomic number  6 and mass  12.00000

 Molecular mass:   108.00000 amu.
 Principal axes and moments of inertia in atomic units:
                           1         2         3
     Eigenvalues --   587.75338 744.935981332.68936
           X            0.00000   0.00000   1.00000
           Y            0.00000   1.00000  -0.00000
           Z            1.00000  -0.00000  -0.00000
 This molecule is an asymmetric top.
 Rotational symmetry number  2.
 Warning -- assumption of classical behavior for rotation
           may cause significant error
 Rotational temperatures (Kelvin)      0.14736     0.11627     0.06499
 Rotational constants (GHZ):           3.07058     2.42268     1.35421
 Zero-point vibrational energy      94452.9 (Joules/Mol)
                                   22.57478 (Kcal/Mol)
 Warning -- explicit consideration of  10 degrees of freedom as
           vibrations may cause significant error
 Vibrational temperatures:    129.12   239.77   268.70   291.79   438.80
          (Kelvin)            439.23   670.55   704.81   846.21   886.66
                              901.67   912.93   998.88  1065.06  1302.01
                             1381.54  1616.00  2364.26  2377.85  2437.97
                             2446.31

 Zero-point correction=                           0.035975 (Hartree/Particle)
 Thermal correction to Energy=                    0.043571
 Thermal correction to Enthalpy=                  0.044515
 Thermal correction to Gibbs Free Energy=         0.004729
 Sum of electronic and zero-point Energies=           -342.387970
 Sum of electronic and thermal Energies=              -342.380374
 Sum of electronic and thermal Enthalpies=            -342.379430
 Sum of electronic and thermal Free Energies=         -342.419217

                     E (Thermal)             CV                S
                      KCal/Mol        Cal/Mol-Kelvin    Cal/Mol-Kelvin
 Total                   27.341             26.345             83.738
 Electronic               0.000              0.000              0.000
 Translational            0.889              2.981             39.947
 Rotational               0.889              2.981             26.481
 Vibrational             25.564             20.383             17.310
 Vibration     1          0.602              1.956              3.666
 Vibration     2          0.624              1.883              2.473
 Vibration     3          0.632              1.858              2.260
 Vibration     4          0.639              1.836              2.107
 Vibration     5          0.696              1.664              1.389
 Vibration     6          0.696              1.664              1.388
 Vibration     7          0.823              1.325              0.749
 Vibration     8          0.846              1.273              0.684
 Vibration     9          0.945              1.057              0.470
 Vibration    10          0.976              0.998              0.423

 Optimization completed.
    -- Stationary point found.
 Normal termination of Gaussian 09 at Thu Jul  7 20:31:59 2016.
