 Gaussian 09, Revision E.01,
 Gaussian 09:  EM64L-G09RevE.01 30-Nov-2015

 ---------------------------------------------
 #p b3lyp/6-311++G(3df,2p) freq symmetry=Loose
 ---------------------------------------------

 ---------
 b3lyp opt
 ---------
 Symbolic Z-matrix:
 Charge =  0 Multiplicity = 1

                         Standard orientation:
 ---------------------------------------------------------------------
 Center     Atomic      Atomic             Coordinates (Angstroms)
 Number     Number       Type             X           Y           Z
 ---------------------------------------------------------------------
      1          6           0        0.000000    0.000000    5.106476
      2          6           0        0.000000    0.000000    3.825772
      3          6           0        0.000000    0.000000    2.539861
      4          6           0        0.000000    0.000000    1.273074
      5          6           0        0.000000    0.000000    0.000000
      6          6           0        0.000000    0.000000   -1.273074
      7          6           0        0.000000    0.000000   -2.539861
      8          6           0        0.000000    0.000000   -3.825772
      9          6           0        0.000000    0.000000   -5.106476
 ---------------------------------------------------------------------

 SCF Done:  E(RB3LYP) =  -342.632964872     A.U. after   17 cycles

 The electronic state is 1-SGG.
 Alpha  occ. eigenvalues --  -10.31050 -10.30881 -10.30879 -10.26561 -10.26554
 Alpha  occ. eigenvalues --  -10.25629 -10.25628 -10.22120 -10.22119  -0.90667
 Alpha  occ. eigenvalues --   -0.87976  -0.84371  -0.80332  -0.76276  -0.71310
 Alpha  occ. eigenvalues --   -0.66969  -0.64406  -0.46288  -0.46288  -0.42164
 Alpha  occ. eigenvalues --   -0.42164  -0.36359  -0.36359  -0.32395  -0.32392
 Alpha  occ. eigenvalues --   -0.29255  -0.29255
 Alpha virt. eigenvalues --   -0.19325  -0.19325  -0.09020  -0.09020  -0.01726
 Alpha virt. eigenvalues --    0.00944   0.00944   0.00993   0.03186   0.03186
 Alpha virt. eigenvalues --    0.03932   0.05209   0.05209   0.05786   0.07299

 Mulliken charges:
               1
     1  C   -0.836816
     2  C    1.630696
     3  C   -0.260259
     4  C   -0.291772
     5  C   -0.483699
     6  C   -0.291772
     7  C   -0.260259
     8  C    1.630696
     9  C   -0.836816
 Sum of Mulliken charges =  -0.00000

 Dipole moment (field-independent basis, Debye):
    X=             -0.0000    Y=             -0.0000    Z=              0.0000  Tot=              0.0000
 Quadrupole moment (field-independent basis, Debye-Ang):
   XX=            -49.6729   YY=            -49.6729   ZZ=            -96.9979
   XY=             -0.0000   XZ=              0.0000   YZ=              0.0000

  Exact polarizability:  57.199   0.000  57.199  -0.000   0.000 501.178
 Approx polarizability:  83.569  -0.000  83.569  -0.000  -0.0002009.948

                      1                      2                      3
                     PIU                    PIU                    PIG
 Frequencies --     48.8633                48.8633               121.1222
 Red. masses --     12.0000                12.0000                12.0000
 Frc consts  --      0.0169                 0.0169                 0.1037
 IR Inten    --      7.7855                 7.7855                 0.0000

                      4                      5                      6
                     PIG                    PIU                    PIU
 Frequencies --    121.1222               204.6205               204.6205
 Red. masses --     12.0000                12.0000                12.0000
 Frc consts  --      0.1037                 0.2960                 0.2960
 IR Inten    --      0.0000                 9.2373                 9.2373

                      7                      8                      9
                     PIG                    PIG                    SGG
 Frequencies --    278.9851               278.9851               462.8074
 Red. masses --     12.0000                12.0000                12.0000
 Frc consts  --      0.5503                 0.5503                 1.5144
 IR Inten    --      0.0000                 0.0000                 0.0000

                     10                     11                     12
                     PIU                    PIU                    PIG
 Frequencies --    505.1771               505.1771               591.5081
 Red. masses --     12.0000                12.0000                12.0000
 Frc consts  --      1.8043                 1.8043                 2.4737
 IR Inten    --      0.0144                 0.0144                 0.0000

                     13                     14                     15
                     PIG                    PIU                    PIU
 Frequencies --    591.5081               649.2336               649.2336
 Red. masses --     12.0000                12.0000                12.0000
 Frc consts  --      2.4737                 2.9801                 2.9801
 IR Inten    --      0.0000                 6.2986                 6.2986

                     16                     17                     18
                     SGU                    SGG                    SGU
 Frequencies --    892.6463              1289.2777              1664.5883
 Red. masses --     12.0000                12.0000                12.0000
 Frc consts  --      5.6337                11.7523                19.5905
 IR Inten    --      0.0030                 0.0000               397.0354

                     19                     20                     21
                     SGG                    SGU                    SGU
 Frequencies --   1965.2835              2115.9715              2198.7004
 Red. masses --     12.0000                12.0000                12.0000
 Frc consts  --     27.3075                31.6556                34.1793
 IR Inten    --      0.0000              8139.0566              3640.2808

                     22
                     SGG
 Frequencies --   2263.0685
 Red. masses --     12.0000
 Frc consts  --     36.2099
 IR Inten    --      0.0000

 - Thermochemistry -
 -------------------
 Temperature   298.150 Kelvin.  Pressure   1.00000 Atm.
 Atom     1 has atomic number  6 and mass  12.00000

 Molecular mass:   108.00000 amu.
 Principal axes and moments of inertia in atomic units:
                           1         2         3
     Eigenvalues --     0.000004181.080434181.08043
           X           -0.00000   1.00000  -0.00000
           Y            0.00000   0.00000   1.00000
           Z            1.00000   0.00000  -0.00000
 This molecule is a prolate symmetric top.
 Rotational symmetry number  2.
 Warning -- assumption of classical behavior for rotation
           may cause significant error
 Rotational temperature (Kelvin)      0.02072
 Rotational constant (GHZ):           0.431645
 Zero-point vibrational energy     105578.6 (Joules/Mol)
                                   25.23389 (Kcal/Mol)
 Warning -- explicit consideration of  13 degrees of freedom as
           vibrations may cause significant error
 Vibrational temperatures:     70.30    70.30   174.27   174.27   294.40
          (Kelvin)            294.40   401.40   401.40   665.88   726.84
                              726.84   851.05   851.05   934.10   934.10
                             1284.32  1854.98  2394.97  2827.60  3044.41
                             3163.44  3256.05

 Zero-point correction=                           0.040213 (Hartree/Particle)
 Thermal correction to Energy=                    0.049003
 Thermal correction to Enthalpy=                  0.049947
 Thermal correction to Gibbs Free Energy=         0.008781
 Sum of electronic and zero-point Energies=           -342.592752
 Sum of electronic and thermal Energies=              -342.583962
 Sum of electronic and thermal Enthalpies=            -342.583018
 Sum of electronic and thermal Free Energies=         -342.624183

                     E (Thermal)             CV                S
                      KCal/Mol        Cal/Mol-Kelvin    Cal/Mol-Kelvin
 Total                   30.750             28.383             86.640
 Electronic               0.000              0.000              0.000
 Translational            0.889              2.981             39.947
 Rotational               0.592              1.987             19.636
 Vibrational             29.268             23.415             27.056
 Vibration     1          0.595              1.978              4.863
 Vibration     2          0.595              1.978              4.863
 Vibration     3          0.609              1.932              3.082
 Vibration     4          0.609              1.932              3.082
 Vibration     5          0.640              1.833              2.091
 Vibration     6          0.640              1.833              2.091
 Vibration     7          0.679              1.712              1.540
 Vibration     8          0.679              1.712              1.540
 Vibration     9          0.820              1.333              0.758
 Vibration    10          0.860              1.239              0.645
 Vibration    11          0.860              1.239              0.645
 Vibration    12          0.949              1.050              0.464
 Vibration    13          0.949              1.050              0.464

 Optimization completed.
    -- Stationary point found.
 Normal termination of Gaussian 09 at Sun Jun 19 02:55:15 2016.
