 Gaussian 09, Revision E.01,
 Gaussian 09:  EM64L-G09RevE.01 30-Nov-2015

 ---------------------------------------------
 #p b3lyp/6-311++G(3df,2p) freq symmetry=Loose
 ---------------------------------------------

 ---------
 b3lyp opt
 ---------
 Symbolic Z-matrix:
 Charge =  0 Multiplicity = 1

                         Standard orientation:
 ---------------------------------------------------------------------
 Center     Atomic      Atomic             Coordinates (Angstroms)
 Number     Number       Type             X           Y           Z
 ---------------------------------------------------------------------
      1          6           0        3.201641   -0.000148    0.001269
      2          6           0       -0.560952    0.772996   -0.003499
      3          6           0       -4.326387   -0.000172    0.006345
      4          6           0       -3.060407   -0.000003    0.001207
      5          6           0        0.627462    0.000270   -0.002702
      6          6           0        1.926687   -0.000446   -0.003055
      7          6           0       -1.740100    0.000118   -0.002096
      8          6           0       -0.560863   -0.772793   -0.003500
      9          6           0        4.492920    0.000178    0.006029
 ---------------------------------------------------------------------

 SCF Done:  E(RB3LYP) =  -342.503679371     A.U. after   19 cycles

 The electronic state is 1-A.
 Alpha  occ. eigenvalues --  -10.35467 -10.35443 -10.34133 -10.33085 -10.31522
 Alpha  occ. eigenvalues --  -10.27425 -10.24150 -10.21447 -10.18992  -1.09101
 Alpha  occ. eigenvalues --   -0.89743  -0.84445  -0.79757  -0.73964  -0.68735
 Alpha  occ. eigenvalues --   -0.64179  -0.63302  -0.53217  -0.52778  -0.42655
 Alpha  occ. eigenvalues --   -0.39742  -0.38847  -0.35172  -0.33893  -0.30241
 Alpha  occ. eigenvalues --   -0.29204  -0.27758
 Alpha virt. eigenvalues --   -0.20255  -0.15752  -0.15323  -0.10104  -0.04418
 Alpha virt. eigenvalues --   -0.01223   0.00173   0.01580   0.01957   0.02244
 Alpha virt. eigenvalues --    0.04490   0.04830   0.05320   0.05701   0.06384

 Mulliken charges:
               1
     1  C    1.310382
     2  C    0.133478
     3  C   -0.486615
     4  C    0.387834
     5  C    0.118799
     6  C   -0.831634
     7  C   -0.125789
     8  C    0.132509
     9  C   -0.638964
 Sum of Mulliken charges =  -0.00000

 Dipole moment (field-independent basis, Debye):
    X=              2.9328    Y=              0.0001    Z=             -0.0232  Tot=              2.9329
 Quadrupole moment (field-independent basis, Debye-Ang):
   XX=            -97.0308   YY=            -50.1910   ZZ=            -50.0653
   XY=             -0.0050   XZ=              0.0226   YZ=             -0.0000

  Exact polarizability: 354.229   0.007  67.516  -0.031  -0.000  56.252
 Approx polarizability: 995.182   0.030 132.570  -0.197   0.000  85.507

                      1                      2                      3
                      A                      A                      A
 Frequencies --     67.3711                75.5233               142.9695
 Red. masses --     12.0000                12.0000                12.0000
 Frc consts  --      0.0321                 0.0403                 0.1445
 IR Inten    --     14.1369                16.8247                 0.0000

                      4                      5                      6
                      A                      A                      A
 Frequencies --    153.6498               242.9412               251.5444
 Red. masses --     12.0000                12.0000                12.0000
 Frc consts  --      0.1669                 0.4173                 0.4474
 IR Inten    --      0.3214                 1.8170                 5.0912

                      7                      8                      9
                      A                      A                      A
 Frequencies --    400.8878               457.3986               470.8425
 Red. masses --     12.0000                12.0000                12.0000
 Frc consts  --      1.1363                 1.4792                 1.5674
 IR Inten    --      0.8732                 0.1475                 0.0716

                     10                     11                     12
                      A                      A                      A
 Frequencies --    510.8782               533.1915               600.0020
 Red. masses --     12.0000                12.0000                12.0000
 Frc consts  --      1.8453                 2.0100                 2.5453
 IR Inten    --      0.5109                 0.0083                14.7698

                     13                     14                     15
                      A                      A                      A
 Frequencies --    732.0127               844.8866               881.1026
 Red. masses --     12.0000                12.0000                12.0000
 Frc consts  --      3.7885                 5.0469                 5.4889
 IR Inten    --     29.9187                 2.7573                 3.0220

                     16                     17                     18
                      A                      A                      A
 Frequencies --    939.2925              1332.5578              1603.5998
 Red. masses --     12.0000                12.0000                12.0000
 Frc consts  --      6.2378                12.5546                18.1812
 IR Inten    --      0.1123                 9.7469               137.3224

                     19                     20                     21
                      A                      A                      A
 Frequencies --   1812.9775              2080.5314              2139.6889
 Red. masses --     12.0000                12.0000                12.0000
 Frc consts  --     23.2389                30.6041                32.3693
 IR Inten    --    201.1728              3373.2008               754.6282

 - Thermochemistry -
 -------------------
 Temperature   298.150 Kelvin.  Pressure   1.00000 Atm.
 Atom     1 has atomic number  6 and mass  12.00000

 Molecular mass:   108.00000 amu.
 Principal axes and moments of inertia in atomic units:
                           1         2         3
     Eigenvalues --    51.202962840.440192891.63243
           X            1.00000   0.00000   0.00000
           Y            0.00000   1.00000  -0.00000
           Z           -0.00000   0.00000   1.00000
 This molecule is an asymmetric top.
 Rotational symmetry number  1.
 Rotational temperatures (Kelvin)      1.69158     0.03049     0.02995
 Rotational constants (GHZ):          35.24681     0.63537     0.62413
 Zero-point vibrational energy      97339.2 (Joules/Mol)
                                   23.26464 (Kcal/Mol)
 Warning -- explicit consideration of  12 degrees of freedom as
           vibrations may cause significant error
 Vibrational temperatures:     96.93   108.66   205.70   221.07   349.54
          (Kelvin)            361.92   576.79   658.09   677.44   735.04
                              767.14   863.27  1053.20  1215.60  1267.71
                             1351.43  1917.25  2307.22  2608.47  2993.42
                             3078.53

 Zero-point correction=                           0.037075 (Hartree/Particle)
 Thermal correction to Energy=                    0.045438
 Thermal correction to Enthalpy=                  0.046382
 Thermal correction to Gibbs Free Energy=         0.003865
 Sum of electronic and zero-point Energies=           -342.466605
 Sum of electronic and thermal Energies=              -342.458241
 Sum of electronic and thermal Enthalpies=            -342.457297
 Sum of electronic and thermal Free Energies=         -342.499814

                     E (Thermal)             CV                S
                      KCal/Mol        Cal/Mol-Kelvin    Cal/Mol-Kelvin
 Total                   28.513             27.350             89.484
 Electronic               0.000              0.000              0.000
 Translational            0.889              2.981             39.947
 Rotational               0.889              2.981             27.533
 Vibrational             26.735             21.389             22.004
 Vibration     1          0.598              1.970              4.229
 Vibration     2          0.599              1.965              4.004
 Vibration     3          0.616              1.910              2.764
 Vibration     4          0.619              1.899              2.627
 Vibration     5          0.659              1.774              1.781
 Vibration     6          0.664              1.760              1.720
 Vibration     7          0.767              1.468              0.959
 Vibration     8          0.816              1.345              0.774
 Vibration     9          0.828              1.315              0.735
 Vibration    10          0.866              1.226              0.631
 Vibration    11          0.888              1.177              0.580
 Vibration    12          0.958              1.032              0.450

 Normal termination of Gaussian 09 at Sun Jun 19 03:20:27 2016.
