 Gaussian 09, Revision E.01,
 Gaussian 09:  EM64L-G09RevE.01 30-Nov-2015

 ---------------------------------------------
 #p b3lyp/6-311++G(3df,2p) freq symmetry=Loose
 ---------------------------------------------

 ---------
 b3lyp opt
 ---------
 Symbolic Z-matrix:
 Charge =  0 Multiplicity = 3

                         Standard orientation:
 ---------------------------------------------------------------------
 Center     Atomic      Atomic             Coordinates (Angstroms)
 Number     Number       Type             X           Y           Z
 ---------------------------------------------------------------------
      1          6           0        0.000000    0.000000    5.131292
      2          6           0        0.000000    0.000000    3.835730
      3          6           0        0.000000    0.000000    2.549751
      4          6           0        0.000000    0.000000    1.276408
      5          6           0        0.000000    0.000000    0.000000
      6          6           0        0.000000    0.000000   -1.276408
      7          6           0        0.000000    0.000000   -2.549751
      8          6           0        0.000000    0.000000   -3.835730
      9          6           0        0.000000    0.000000   -5.131292
 ---------------------------------------------------------------------

 SCF Done:  E(UB3LYP) =  -342.582435660     A.U. after   18 cycles

 Unable to determine electronic state:  an orbital has unidentified symmetry.
 Alpha  occ. eigenvalues --  -10.28998 -10.28996 -10.28728 -10.28482 -10.28443
 Alpha  occ. eigenvalues --  -10.25787 -10.25786 -10.23872 -10.23871  -0.90772
 Alpha  occ. eigenvalues --   -0.88232  -0.84658  -0.81153  -0.76940  -0.71692
 Alpha  occ. eigenvalues --   -0.67201  -0.64342  -0.46648  -0.46588  -0.42768
 Alpha  occ. eigenvalues --   -0.42762  -0.37333  -0.37231  -0.33088  -0.33084
 Alpha  occ. eigenvalues --   -0.31249  -0.30926  -0.24021
 Alpha virt. eigenvalues --   -0.19465  -0.10523  -0.10333  -0.01703  -0.00340
 Alpha virt. eigenvalues --   -0.00290   0.00929   0.03003   0.03280   0.03820
 Alpha virt. eigenvalues --    0.04934   0.05235   0.05734   0.07285   0.07845

  Beta  occ. eigenvalues --  -10.28713 -10.28710 -10.28506 -10.28286 -10.28244
  Beta  occ. eigenvalues --  -10.25039 -10.25039 -10.23727 -10.23726  -0.89768
  Beta  occ. eigenvalues --   -0.87137  -0.83600  -0.79503  -0.75051  -0.70410
  Beta  occ. eigenvalues --   -0.66271  -0.63766  -0.45203  -0.45175  -0.41114
  Beta  occ. eigenvalues --   -0.40956  -0.35343  -0.34917  -0.31674  -0.31672
  Beta  occ. eigenvalues --   -0.28782
  Beta virt. eigenvalues --   -0.24266  -0.17187  -0.16828  -0.08057  -0.07852
  Beta virt. eigenvalues --   -0.01626   0.01044   0.01493   0.01515   0.03233
  Beta virt. eigenvalues --    0.03408   0.04012   0.05218   0.05308   0.05851

 Mulliken charges and spin densities:
               1          2
     1  C   -0.809114   0.426913
     2  C    1.559293   0.176262
     3  C   -0.158342   0.284562
     4  C   -0.346956   0.022710
     5  C   -0.489763   0.179107
     6  C   -0.346956   0.022710
     7  C   -0.158342   0.284562
     8  C    1.559293   0.176262
     9  C   -0.809114   0.426913
 Sum of Mulliken charges =  -0.00000   2.00000

 Dipole moment (field-independent basis, Debye):
    X=             -0.0000    Y=             -0.0000    Z=             -0.0000  Tot=              0.0000
 Quadrupole moment (field-independent basis, Debye-Ang):
   XX=            -47.9725   YY=            -51.4489   ZZ=            -97.4523
   XY=             -0.0000   XZ=              0.0000   YZ=              0.0000

  Exact polarizability:  60.372   0.000  58.217  -0.000  -0.000 491.807
 Approx polarizability:  84.948  -0.000  82.687  -0.000  -0.0001333.856

                      1                      2                      3
                     ?A                     ?A                     ?B
 Frequencies --     43.1256                47.8107                88.8917
 Red. masses --     12.0000                12.0000                12.0000
 Frc consts  --      0.0131                 0.0162                 0.0559
 IR Inten    --     13.4575                 6.6243                 0.0000

                      4                      5                      6
                     ?B                     ?A                     ?A
 Frequencies --    128.9994               135.7201               217.8348
 Red. masses --     12.0000                12.0000                12.0000
 Frc consts  --      0.1177                 0.1302                 0.3355
 IR Inten    --      0.0000                33.3829                 6.0378

                      7                      8                      9
                     ?B                     ?B                     ?A
 Frequencies --    237.8669               341.7270               423.4947
 Red. masses --     12.0000                12.0000                12.0000
 Frc consts  --      0.4000                 0.8256                 1.2680
 IR Inten    --      0.0000                 0.0000                 5.9830

                     10                     11                     12
                     ?A                     SGG                    ?B
 Frequencies --    427.4907               458.1447               498.5644
 Red. masses --     12.0000                12.0000                12.0000
 Frc consts  --      1.2921                 1.4840                 1.7574
 IR Inten    --      0.2711                 0.0000                 0.0000

                     13                     14                     15
                     ?A                     ?B                     ?A
 Frequencies --    547.7527               579.7919               673.2371
 Red. masses --     12.0000                12.0000                12.0000
 Frc consts  --      2.1213                 2.3767                 3.2046
 IR Inten    --      0.0033                 0.0000                 0.3421

                     16                     17                     18
                     SGU                    SGG                    SGU
 Frequencies --    870.0503              1253.0040              1510.5399
 Red. masses --     12.0000                12.0000                12.0000
 Frc consts  --      5.3520                11.1003                16.1323
 IR Inten    --     16.2320                 0.0000               322.1757

                     19                     20                     21
                     SGU                    SGG                    SGU
 Frequencies --   1594.5193              1872.7658              2033.9219
 Red. masses --     12.0000                12.0000                12.0000
 Frc consts  --     17.9759                24.7970                29.2483
 IR Inten    --    358.3925                 0.0000              1428.7881

                     22
                     SGG
 Frequencies --   2080.4421
 Red. masses --     12.0000
 Frc consts  --     30.6015
 IR Inten    --      0.0000

 - Thermochemistry -
 -------------------
 Temperature   298.150 Kelvin.  Pressure   1.00000 Atm.
 Atom     1 has atomic number  6 and mass  12.00000

 Molecular mass:   108.00000 amu.
 Principal axes and moments of inertia in atomic units:
                           1         2         3
     Eigenvalues --     0.000004214.436174214.43617
           X           -0.00000   1.00000  -0.00000
           Y            0.00000   0.00000   1.00000
           Z            1.00000   0.00000  -0.00000
 This molecule is a prolate symmetric top.
 Rotational symmetry number  2.
 Warning -- assumption of classical behavior for rotation
           may cause significant error
 Rotational temperature (Kelvin)      0.02055
 Rotational constant (GHZ):           0.428228
 Zero-point vibrational energy      96094.2 (Joules/Mol)
                                   22.96706 (Kcal/Mol)
 Warning -- explicit consideration of  14 degrees of freedom as
           vibrations may cause significant error
 Vibrational temperatures:     62.05    68.79   127.90   185.60   195.27
          (Kelvin)            313.42   342.24   491.67   609.31   615.06
                              659.17   717.32   788.09   834.19   968.64
                             1251.81  1802.79  2173.33  2294.15  2694.49
                             2926.36  2993.29

 Zero-point correction=                           0.036600 (Hartree/Particle)
 Thermal correction to Energy=                    0.045786
 Thermal correction to Enthalpy=                  0.046730
 Thermal correction to Gibbs Free Energy=         0.003457
 Sum of electronic and zero-point Energies=           -342.545835
 Sum of electronic and thermal Energies=              -342.536650
 Sum of electronic and thermal Enthalpies=            -342.535706
 Sum of electronic and thermal Free Energies=         -342.578979

                     E (Thermal)             CV                S
                      KCal/Mol        Cal/Mol-Kelvin    Cal/Mol-Kelvin
 Total                   28.731             29.320             91.076
 Electronic               0.000              0.000              2.183
 Translational            0.889              2.981             39.947
 Rotational               0.592              1.987             19.652
 Vibrational             27.250             24.352             29.293
 Vibration     1          0.595              1.980              5.110
 Vibration     2          0.595              1.978              4.906
 Vibration     3          0.602              1.957              3.684
 Vibration     4          0.611              1.924              2.961
 Vibration     5          0.614              1.918              2.863
 Vibration     6          0.646              1.814              1.977
 Vibration     7          0.656              1.783              1.819
 Vibration     8          0.721              1.592              1.204
 Vibration     9          0.786              1.419              0.880
 Vibration    10          0.789              1.410              0.867
 Vibration    11          0.816              1.343              0.772
 Vibration    12          0.854              1.253              0.662
 Vibration    13          0.903              1.145              0.549
 Vibration    14          0.936              1.075              0.486

 Normal termination of Gaussian 09 at Sun Jun 19 03:54:06 2016.
