 Gaussian 09, Revision C.01,
 Gaussian 09:  AM64L-G09RevC.01 23-Sep-2011

 ---------------------------------------------
 #p b3lyp/6-311++G(3df,2p) freq symmetry=Loose
 ---------------------------------------------

 (Enter /home/nestor/.gaussian09/l101.exe)
 ---------
 b3lyp opt
 ---------
 Charge =  0 Multiplicity = 1

                         Standard orientation:
 ---------------------------------------------------------------------
 Center     Atomic      Atomic             Coordinates (Angstroms)
 Number     Number       Type             X           Y           Z
 ---------------------------------------------------------------------
      1          6           0       -1.564458    2.617470   -1.172154
      2          6           0       -0.318133   -2.603776    0.770006
      3          6           0        0.000000    1.288950    0.429846
      4          6           0       -0.664219    2.500912   -0.239875
      5          6           0        0.664219   -2.500912   -0.239875
      6          6           0        1.564458   -2.617470   -1.172154
      7          6           0        0.000000   -1.288950    0.429846
      8          6           0        0.000000    0.000000    0.424355
      9          6           0        0.318133    2.603776    0.770006
 ---------------------------------------------------------------------

 SCF Done:  E(RB3LYP) =  -342.419250930     A.U. after   14 cycles

 The electronic state is 1-A.
 Alpha  occ. eigenvalues --  -10.31113 -10.31110 -10.29801 -10.29801 -10.29177
 Alpha  occ. eigenvalues --  -10.28208 -10.28208 -10.26064 -10.26064  -0.98428
 Alpha  occ. eigenvalues --   -0.97591  -0.84610  -0.78258  -0.77759  -0.72120
 Alpha  occ. eigenvalues --   -0.51206  -0.51147  -0.49117  -0.47820  -0.45649
 Alpha  occ. eigenvalues --   -0.45586  -0.34985  -0.34968  -0.33659  -0.33647
 Alpha  occ. eigenvalues --   -0.29463  -0.29407
 Alpha virt. eigenvalues --   -0.20154  -0.20071  -0.12632  -0.12478  -0.01368
 Alpha virt. eigenvalues --   -0.00953  -0.00625   0.01257   0.01302   0.02651
 Alpha virt. eigenvalues --    0.03443   0.04145   0.04883   0.05733   0.06006

 Mulliken atomic charges:
              1
     1  C   -0.901651
     2  C   -0.519194
     3  C    0.734675
     4  C    0.761857
     5  C    0.761857
     6  C   -0.901651
     7  C    0.734675
     8  C   -0.151375
     9  C   -0.519194
 Sum of Mulliken atomic charges =   0.00000

 Dipole moment (field-independent basis, Debye):
    X=              0.0000    Y=              0.0000    Z=              1.2127  Tot=              1.2127
 Quadrupole moment (field-independent basis, Debye-Ang):
   XX=            -56.9073   YY=            -60.8441   ZZ=            -56.4228
   XY=              2.5572   XZ=              0.0000   YZ=              0.0000

  Exact polarizability: 100.694 -48.997 227.166   0.000   0.000  91.375
 Approx polarizability: 272.005-232.112 693.443   0.000   0.000 213.367

                     1                      2                      3
                     A                      A                      B
 Frequencies --    67.2315                94.2557                95.4110
 Red. masses --    12.0000                12.0000                12.0000
 Frc consts  --     0.0320                 0.0628                 0.0644
 IR Inten    --     2.2813                 0.1937                 2.7476

                     4                      5                      6
                     A                      B                      B
 Frequencies --   203.6953               206.9626               278.4080
 Red. masses --    12.0000                12.0000                12.0000
 Frc consts  --     0.2934                 0.3028                 0.5480
 IR Inten    --     1.3599                14.9954                 9.5650

                     7                      8                      9
                     A                      B                      A
 Frequencies --   321.9209               377.4939               383.8481
 Red. masses --    12.0000                12.0000                12.0000
 Frc consts  --     0.7327                 1.0075                 1.0417
 IR Inten    --     8.1714                 6.5496                 2.4410

                    10                     11                     12
                     A                      B                      B
 Frequencies --   468.9274               520.7995               543.9019
 Red. masses --    12.0000                12.0000                12.0000
 Frc consts  --     1.5547                 1.9177                 2.0916
 IR Inten    --     0.3981               148.0832                28.8028

                    13                     14                     15
                     A                      A                      B
 Frequencies --   546.9484               745.2428               859.4594
 Red. masses --    12.0000                12.0000                12.0000
 Frc consts  --     2.1151                 3.9267                 5.2225
 IR Inten    --     2.7377                12.4590               296.3743

                    16                     17                     18
                     A                      B                      A
 Frequencies --   946.0237              1157.6985              1559.7767
 Red. masses --    12.0000                12.0000                12.0000
 Frc consts  --     6.3275                 9.4759                17.2011
 IR Inten    --     2.3321               291.1198                59.2381

                    19                     20                     21
                     B                      A                      B
 Frequencies --  1712.9563              1790.8801              1957.8397
 Red. masses --    12.0000                12.0000                12.0000
 Frc consts  --    20.7455                22.6759                27.1010
 IR Inten    --  1651.7274               199.2739                26.0904

 - Thermochemistry -
 -------------------
 Temperature   298.150 Kelvin.  Pressure   1.00000 Atm.
 Atom     1 has atomic number  6 and mass  12.00000

 Molecular mass:   108.00000 amu.
 Principal axes and moments of inertia in atomic units:
                           1         2         3
     Eigenvalues --   348.115252102.929592148.92312
           X           -0.24169   0.00000   0.97035
           Y            0.97035   0.00000   0.24169
           Z            0.00000   1.00000   0.00000
 This molecule is an asymmetric top.
 Rotational symmetry number  2.
 Rotational temperatures (Kelvin)      0.24881     0.04119     0.04031
 Rotational constants (GHZ):           5.18432     0.85820     0.83984
 Zero-point vibrational energy      88761.0 (Joules/Mol)
                                   21.21439 (Kcal/Mol)
 Warning -- explicit consideration of  13 degrees of freedom as
           vibrations may cause significant error
 Vibrational temperatures:     96.73   135.61   137.27   293.07   297.77
          (Kelvin)            400.57   463.17   543.13   552.27   674.68
                              749.31   782.55   786.94  1072.24  1236.57
                             1361.12  1665.67  2244.17  2464.56  2576.67
                             2816.89

 Zero-point correction=                           0.033807 (Hartree/Particle)
 Thermal correction to Energy=                    0.042606
 Thermal correction to Enthalpy=                  0.043550
 Thermal correction to Gibbs Free Energy=         0.000356
 Sum of electronic and zero-point Energies=           -342.385444
 Sum of electronic and thermal Energies=              -342.376645
 Sum of electronic and thermal Enthalpies=            -342.375701
 Sum of electronic and thermal Free Energies=         -342.418895

                     E (Thermal)             CV                S
                      KCal/Mol        Cal/Mol-Kelvin    Cal/Mol-Kelvin
 Total                   26.736             28.805             90.910
 Electronic               0.000              0.000              0.000
 Translational            0.889              2.981             39.947
 Rotational               0.889              2.981             27.466
 Vibrational             24.958             22.843             23.497
 Vibration     1          0.598              1.970              4.233
 Vibration     2          0.603              1.953              3.570
 Vibration     3          0.603              1.952              3.546
 Vibration     4          0.639              1.835              2.099
 Vibration     5          0.641              1.830              2.070
 Vibration     6          0.679              1.713              1.543
 Vibration     7          0.707              1.632              1.300
 Vibration     8          0.748              1.518              1.049
 Vibration     9          0.753              1.505              1.024
 Vibration    10          0.826              1.319              0.741
 Vibration    11          0.876              1.204              0.608
 Vibration    12          0.899              1.153              0.557
 Vibration    13          0.902              1.146              0.551

 Normal termination of Gaussian 09 at Thu Jul  7 05:09:34 2016.
