 Gaussian 09, Revision E.01,
 Gaussian 09:  EM64L-G09RevE.01 30-Nov-2015

 ---------------------------------------------
 #p b3lyp/6-311++G(3df,2p) freq symmetry=Loose
 ---------------------------------------------

 ---------
 b3lyp opt
 ---------
 Symbolic Z-matrix:
 Charge =  0 Multiplicity = 3

                         Standard orientation:
 ---------------------------------------------------------------------
 Center     Atomic      Atomic             Coordinates (Angstroms)
 Number     Number       Type             X           Y           Z
 ---------------------------------------------------------------------
      1          6           0        1.367191   -2.344629    0.000000
      2          6           0        2.010012   -3.479958    0.000000
      3          6           0        0.396238    3.647305    0.000000
      4          6           0       -1.503948    0.298938    0.000000
      5          6           0       -2.646254   -0.344781    0.000000
      6          6           0        0.759563   -1.222865    0.000000
      7          6           0        0.010812   -0.163401    0.000000
      8          6           0       -0.393613    1.171017    0.000000
      9          6           0        0.000000    2.438374   -0.000000
 ---------------------------------------------------------------------

 SCF Done:  E(UB3LYP) =  -342.445918562     A.U. after   26 cycles

 The electronic state is 3-A".
 Alpha  occ. eigenvalues --  -10.34741 -10.34123 -10.31309 -10.30102 -10.29561
 Alpha  occ. eigenvalues --  -10.28786 -10.26657 -10.23394 -10.21299  -1.01052
 Alpha  occ. eigenvalues --   -0.89488  -0.82945  -0.82380  -0.78834  -0.71151
 Alpha  occ. eigenvalues --   -0.68319  -0.55353  -0.51324  -0.48454  -0.42764
 Alpha  occ. eigenvalues --   -0.40328  -0.36871  -0.35665  -0.34817  -0.32905
 Alpha  occ. eigenvalues --   -0.31504  -0.30785  -0.27709
 Alpha virt. eigenvalues --   -0.20451  -0.16632  -0.10376  -0.03899  -0.02377
 Alpha virt. eigenvalues --   -0.01883   0.00383   0.01493   0.02566   0.02964
 Alpha virt. eigenvalues --    0.04590   0.04925   0.05620   0.05748   0.06531

  Beta  occ. eigenvalues --  -10.34255 -10.34017 -10.30903 -10.29373 -10.29177
  Beta  occ. eigenvalues --  -10.27809 -10.26487 -10.23439 -10.21403  -1.00336
  Beta  occ. eigenvalues --   -0.88093  -0.82128  -0.79516  -0.77097  -0.69960
  Beta  occ. eigenvalues --   -0.68075  -0.54492  -0.49311  -0.46739  -0.40658
  Beta  occ. eigenvalues --   -0.38146  -0.35096  -0.33827  -0.33383  -0.30938
  Beta  occ. eigenvalues --   -0.30877
  Beta virt. eigenvalues --   -0.24852  -0.19426  -0.18407  -0.12409  -0.08044
  Beta virt. eigenvalues --   -0.02182  -0.01998  -0.01481   0.01555   0.01721
  Beta virt. eigenvalues --    0.02921   0.03701   0.04816   0.05383   0.05726

 Mulliken charges and spin densities:
               1          2
     1  C    1.317074   0.271985
     2  C   -0.646455   0.514019
     3  C   -0.488115  -0.015950
     4  C    0.286256   0.168510
     5  C   -0.624779   0.544813
     6  C   -0.316359   0.330634
     7  C   -0.059071   0.139709
     8  C   -0.477443   0.135158
     9  C    1.008891  -0.088878
 Sum of Mulliken charges =  -0.00000   2.00000

 Dipole moment (field-independent basis, Debye):
    X=             -0.4806    Y=             -1.8202    Z=              0.0000  Tot=              1.8826
 Quadrupole moment (field-independent basis, Debye-Ang):
   XX=            -60.3659   YY=            -79.4553   ZZ=            -48.6827
   XY=             -0.2235   XZ=              0.0000   YZ=             -0.0000

  Exact polarizability: 159.267 -43.961 238.962   0.000  -0.000  61.053
 Approx polarizability: 407.527-114.870 492.070  -0.000   0.000  91.243

                      1                      2                      3
                     A'                     A"                     A'
 Frequencies --     68.9872                85.8250               109.5750
 Red. masses --     12.0000                12.0000                12.0000
 Frc consts  --      0.0336                 0.0521                 0.0849
 IR Inten    --      5.7034                24.3374                 3.4002

                      4                      5                      6
                     A"                     A'                     A"
 Frequencies --    138.0585               190.2496               220.0678
 Red. masses --     12.0000                12.0000                12.0000
 Frc consts  --      0.1348                 0.2559                 0.3424
 IR Inten    --      1.0233                 5.5146                 0.2211

                      7                      8                      9
                     A'                     A"                     A'
 Frequencies --    253.5251               257.9327               311.3314
 Red. masses --     12.0000                12.0000                12.0000
 Frc consts  --      0.4544                 0.4704                 0.6853
 IR Inten    --     74.1316                15.6723                15.4607

                     10                     11                     12
                     A'                     A"                     A'
 Frequencies --    418.5608               477.7711               548.5388
 Red. masses --     12.0000                12.0000                12.0000
 Frc consts  --      1.2386                 1.6139                 2.1274
 IR Inten    --      2.1761                 0.1989                 9.8346

                     13                     14                     15
                     A"                     A'                     A'
 Frequencies --    568.0749               606.4568               805.8339
 Red. masses --     12.0000                12.0000                12.0000
 Frc consts  --      2.2816                 2.6003                 4.5912
 IR Inten    --      0.0945                 1.3760                 2.1763

                     16                     17                     18
                     A'                     A'                     A'
 Frequencies --   1055.0030              1363.1222              1616.0035
 Red. masses --     12.0000                12.0000                12.0000
 Frc consts  --      7.8693                13.1371                18.4636
 IR Inten    --      4.8718               115.1572               251.7594

                     19                     20                     21
                     A'                     A'                     A'
 Frequencies --   1769.8060              1990.3434              2048.9452
 Red. masses --     12.0000                12.0000                12.0000
 Frc consts  --     22.1454                28.0083                29.6819
 IR Inten    --    246.5785               714.9977              1096.3145

 - Thermochemistry -
 -------------------
 Temperature   298.150 Kelvin.  Pressure   1.00000 Atm.
 Atom     1 has atomic number  6 and mass  12.00000

 Molecular mass:   108.00000 amu.
 Principal axes and moments of inertia in atomic units:
                           1         2         3
     Eigenvalues --   541.278931859.350112400.62904
           X           -0.33402   0.94256   0.00000
           Y            0.94256   0.33402   0.00000
           Z           -0.00000  -0.00000   1.00000
 This molecule is an asymmetric top.
 Rotational symmetry number  1.
 Warning -- assumption of classical behavior for rotation
           may cause significant error
 Rotational temperatures (Kelvin)      0.16002     0.04658     0.03608
 Rotational constants (GHZ):           3.33422     0.97063     0.75178
 Zero-point vibrational energy      89145.8 (Joules/Mol)
                                   21.30635 (Kcal/Mol)
 Warning -- explicit consideration of  14 degrees of freedom as
           vibrations may cause significant error
 Vibrational temperatures:     99.26   123.48   157.65   198.64   273.73
          (Kelvin)            316.63   364.77   371.11   447.94   602.21
                              687.41   789.22   817.33   872.55  1159.41
                             1517.91  1961.23  2325.07  2546.35  2863.66
                             2947.97

 Zero-point correction=                           0.033954 (Hartree/Particle)
 Thermal correction to Energy=                    0.043373
 Thermal correction to Enthalpy=                  0.044318
 Thermal correction to Gibbs Free Energy=        -0.002142
 Sum of electronic and zero-point Energies=           -342.411965
 Sum of electronic and thermal Energies=              -342.402545
 Sum of electronic and thermal Enthalpies=            -342.401601
 Sum of electronic and thermal Free Energies=         -342.448061

                     E (Thermal)             CV                S
                      KCal/Mol        Cal/Mol-Kelvin    Cal/Mol-Kelvin
 Total                   27.217             29.741             97.782
 Electronic               0.000              0.000              2.183
 Translational            0.889              2.981             39.947
 Rotational               0.889              2.981             29.270
 Vibrational             25.440             23.780             26.382
 Vibration     1          0.598              1.969              4.182
 Vibration     2          0.601              1.959              3.753
 Vibration     3          0.606              1.942              3.276
 Vibration     4          0.614              1.915              2.831
 Vibration     5          0.634              1.853              2.225
 Vibration     6          0.647              1.811              1.959
 Vibration     7          0.665              1.757              1.706
 Vibration     8          0.667              1.749              1.676
 Vibration     9          0.700              1.652              1.355
 Vibration    10          0.781              1.430              0.897
 Vibration    11          0.834              1.299              0.716
 Vibration    12          0.904              1.143              0.547
 Vibration    13          0.924              1.100              0.508
 Vibration    14          0.965              1.018              0.439

 Normal termination of Gaussian 09 at Sun Jun 19 04:14:49 2016.
