 Gaussian 09, Revision E.01,
 Gaussian 09:  EM64L-G09RevE.01 30-Nov-2015

 ------------------------------
 #p b3lyp/6-311++G(3df,2p) freq
 ------------------------------

 ---------
 b3lyp opt
 ---------
 Symbolic Z-matrix:
 Charge =  0 Multiplicity = 3

                         Standard orientation:
 ---------------------------------------------------------------------
 Center     Atomic      Atomic             Coordinates (Angstroms)
 Number     Number       Type             X           Y           Z
 ---------------------------------------------------------------------
      1          6           0       -1.261966   -0.650814    0.000000
      2          6           0        2.065943   -0.673817    0.000000
      3          6           0        0.759113   -0.696232    0.000000
      4          6           0       -0.343974   -1.725081    0.000000
      5          6           0       -0.237828   -3.058747    0.000000
      6          6           0       -0.228988    2.913268   -0.000000
      7          6           0       -0.237828    1.718053    0.748579
      8          6           0       -0.237828    1.718053   -0.748579
      9          6           0       -0.276644    0.455317   -0.000000
 ---------------------------------------------------------------------

 SCF Done:  E(UB3LYP) =  -342.341015036     A.U. after   28 cycles

 The electronic state is 3-A".
 Alpha  occ. eigenvalues --  -10.34467 -10.31293 -10.30396 -10.29932 -10.29901
 Alpha  occ. eigenvalues --  -10.29510 -10.27928 -10.27556 -10.26296  -1.05056
 Alpha  occ. eigenvalues --   -0.97328  -0.82237  -0.81355  -0.74052  -0.61711
 Alpha  occ. eigenvalues --   -0.59146  -0.56743  -0.53573  -0.48547  -0.41427
 Alpha  occ. eigenvalues --   -0.41233  -0.37852  -0.37340  -0.35996  -0.33664
 Alpha  occ. eigenvalues --   -0.32640  -0.29047  -0.28328
 Alpha virt. eigenvalues --   -0.18961  -0.16136  -0.11003  -0.08049  -0.05994
 Alpha virt. eigenvalues --   -0.05992   0.00842   0.01833   0.02547   0.03074
 Alpha virt. eigenvalues --    0.04704   0.04888   0.05105   0.05712   0.05905

  Beta  occ. eigenvalues --  -10.34380 -10.29834 -10.29803 -10.29576 -10.29552
  Beta  occ. eigenvalues --  -10.28876 -10.27798 -10.27690 -10.26222  -1.04691
  Beta  occ. eigenvalues --   -0.95985  -0.81130  -0.80210  -0.72803  -0.58542
  Beta  occ. eigenvalues --   -0.58378  -0.55369  -0.52803  -0.47343  -0.40126
  Beta  occ. eigenvalues --   -0.40023  -0.37055  -0.35578  -0.34702  -0.32102
  Beta  occ. eigenvalues --   -0.28870
  Beta virt. eigenvalues --   -0.19629  -0.17634  -0.16630  -0.14635  -0.10813
  Beta virt. eigenvalues --   -0.06250  -0.05404  -0.04412   0.01365   0.01898
  Beta virt. eigenvalues --    0.02889   0.03311   0.04795   0.05243   0.05493

 Mulliken charges and spin densities:
               1          2
     1  C   -0.162683   1.534608
     2  C   -0.487485  -0.067461
     3  C    0.652871   0.118138
     4  C    0.708237  -0.157524
     5  C   -0.713898   0.613821
     6  C   -0.378243   0.051248
     7  C   -0.358912   0.036268
     8  C   -0.358912   0.036268
     9  C    1.099026  -0.165367
 Sum of Mulliken charges =  -0.00000   2.00000

 Dipole moment (field-independent basis, Debye):
    X=             -1.5116    Y=             -1.5840    Z=              0.0000  Tot=              2.1895
 Quadrupole moment (field-independent basis, Debye-Ang):
   XX=            -53.5310   YY=            -68.2926   ZZ=            -53.3885
   XY=              1.5873   XZ=              0.0000   YZ=             -0.0000

  Exact polarizability:  90.419  -2.308 141.451  -0.000  -0.000  66.764
 Approx polarizability: 169.815  -5.170 226.812  -0.000  -0.000 132.252

                      1                      2                      3
                     A"                     A'                     A'
 Frequencies --     89.8217               116.7026               163.4345
 Red. masses --     12.0000                12.0000                12.0000
 Frc consts  --      0.0570                 0.0963                 0.1889
 IR Inten    --      3.4218                 8.6490                18.3738

                      4                      5                      6
                     A"                     A'                     A"
 Frequencies --    209.8611               289.6346               350.5891
 Red. masses --     12.0000                12.0000                12.0000
 Frc consts  --      0.3114                 0.5931                 0.8690
 IR Inten    --      3.2733                 5.0006                 5.1909

                      7                      8                      9
                     A"                     A'                     A"
 Frequencies --    404.9754               458.5012               465.0154
 Red. masses --     12.0000                12.0000                12.0000
 Frc consts  --      1.1595                 1.4863                 1.5289
 IR Inten    --      0.2535                 3.3951                28.5536

                     10                     11                     12
                     A'                     A"                     A'
 Frequencies --    521.9558               684.5329               690.3497
 Red. masses --     12.0000                12.0000                12.0000
 Frc consts  --      1.9262                 3.3130                 3.3695
 IR Inten    --      4.3932                30.7738                 7.7003

                     13                     14                     15
                     A'                     A'                     A"
 Frequencies --    792.2825               923.1750               974.6808
 Red. masses --     12.0000                12.0000                12.0000
 Frc consts  --      4.4380                 6.0256                 6.7167
 IR Inten    --      5.9176                11.2561                 9.5188

                     16                     17                     18
                     A'                     A'                     A'
 Frequencies --   1019.1314              1064.7555              1303.3649
 Red. masses --     12.0000                12.0000                12.0000
 Frc consts  --      7.3433                 8.0155                12.0106
 IR Inten    --     16.4814                 7.8031                34.6801

                     19                     20                     21
                     A'                     A'                     A'
 Frequencies --   1443.0116              1468.1095              1697.9451
 Red. masses --     12.0000                12.0000                12.0000
 Frc consts  --     14.7221                15.2387                20.3835
 IR Inten    --     54.2997               331.1411               147.9405

 - Thermochemistry -
 -------------------
 Temperature   298.150 Kelvin.  Pressure   1.00000 Atm.
 Atom     1 has atomic number  6 and mass  12.00000

 Molecular mass:   108.00000 amu.
 Principal axes and moments of inertia in atomic units:
                           1         2         3
     Eigenvalues --   337.896731264.257431506.10033
           X           -0.06437   0.99793   0.00000
           Y            0.99793   0.06437   0.00000
           Z            0.00000   0.00000   1.00000
 This molecule is an asymmetric top.
 Rotational symmetry number  1.
 Rotational temperatures (Kelvin)      0.25633     0.06851     0.05751
 Rotational constants (GHZ):           5.34110     1.42751     1.19829
 Zero-point vibrational energy      90508.4 (Joules/Mol)
                                   21.63204 (Kcal/Mol)
 Warning -- explicit consideration of  10 degrees of freedom as
           vibrations may cause significant error
 Vibrational temperatures:    129.23   167.91   235.15   301.94   416.72
          (Kelvin)            504.42   582.67   659.68   669.05   750.98
                              984.89   993.26  1139.92  1328.24  1402.35
                             1466.30  1531.94  1875.25  2076.17  2112.28
                             2442.96

 Zero-point correction=                           0.034473 (Hartree/Particle)
 Thermal correction to Energy=                    0.042238
 Thermal correction to Enthalpy=                  0.043182
 Thermal correction to Gibbs Free Energy=         0.001144
 Sum of electronic and zero-point Energies=           -342.306542
 Sum of electronic and thermal Energies=              -342.298777
 Sum of electronic and thermal Enthalpies=            -342.297833
 Sum of electronic and thermal Free Energies=         -342.339871

                     E (Thermal)             CV                S
                      KCal/Mol        Cal/Mol-Kelvin    Cal/Mol-Kelvin
 Total                   26.504             26.436             88.477
 Electronic               0.000              0.000              2.183
 Translational            0.889              2.981             39.947
 Rotational               0.889              2.981             27.955
 Vibrational             24.727             20.475             18.391
 Vibration     1          0.602              1.956              3.664
 Vibration     2          0.608              1.936              3.154
 Vibration     3          0.623              1.887              2.510
 Vibration     4          0.642              1.826              2.045
 Vibration     5          0.686              1.693              1.476
 Vibration     6          0.727              1.574              1.164
 Vibration     7          0.770              1.459              0.945
 Vibration     8          0.817              1.342              0.770
 Vibration     9          0.822              1.328              0.752
 Vibration    10          0.877              1.201              0.605

 Normal termination of Gaussian 09 at Thu Jul  7 22:46:19 2016.
