 Gaussian 09, Revision E.01,
 Gaussian 09:  EM64L-G09RevE.01 30-Nov-2015

 ---------------------------------------------
 #p b3lyp/6-311++G(3df,2p) freq symmetry=Loose
 ---------------------------------------------

 ---------
 b3lyp opt
 ---------
 Symbolic Z-matrix:
 Charge =  0 Multiplicity = 1

                         Standard orientation:
 ---------------------------------------------------------------------
 Center     Atomic      Atomic             Coordinates (Angstroms)
 Number     Number       Type             X           Y           Z
 ---------------------------------------------------------------------
      1          6           0       -0.569362    1.658982    0.099580
      2          6           0        0.698803    1.859218   -0.054792
      3          6           0        1.495571    0.830552    0.011990
      4          6           0        1.983729   -0.375245    0.024087
      5          6           0        1.106086   -1.326263   -0.056708
      6          6           0       -0.036208   -1.944722    0.093391
      7          6           0       -1.173797   -1.383045   -0.148081
      8          6           0       -1.843133   -0.283941    0.154099
      9          6           0       -1.661690    0.964464   -0.123566
 ---------------------------------------------------------------------

 SCF Done:  E(RB3LYP) =  -342.603363571     A.U. after   16 cycles

 The electronic state is 1-A.
 Alpha  occ. eigenvalues --  -10.27169 -10.27096 -10.26921 -10.26440 -10.25840
 Alpha  occ. eigenvalues --  -10.24685 -10.23863 -10.22953 -10.22601  -0.91672
 Alpha  occ. eigenvalues --   -0.86818  -0.86691  -0.78273  -0.74652  -0.64511
 Alpha  occ. eigenvalues --   -0.64169  -0.55807  -0.55194  -0.44934  -0.44575
 Alpha  occ. eigenvalues --   -0.38969  -0.38932  -0.37945  -0.37869  -0.27382
 Alpha  occ. eigenvalues --   -0.26073  -0.24842
 Alpha virt. eigenvalues --   -0.17248  -0.06872  -0.06784  -0.05932  -0.05119
 Alpha virt. eigenvalues --   -0.03950  -0.03569  -0.00639   0.02627   0.02923
 Alpha virt. eigenvalues --    0.04137   0.04762   0.05943   0.05974   0.06644

 Mulliken charges:
               1
     1  C    0.244692
     2  C   -0.132768
     3  C    0.303650
     4  C   -0.270911
     5  C    0.332633
     6  C   -0.114007
     7  C   -0.029213
     8  C   -0.151441
     9  C   -0.182634
 Sum of Mulliken charges =  -0.00000

 Dipole moment (field-independent basis, Debye):
    X=             -0.6760    Y=             -0.1480    Z=              0.0003  Tot=              0.6920
 Quadrupole moment (field-independent basis, Debye-Ang):
   XX=            -50.8507   YY=            -50.6014   ZZ=            -51.7098
   XY=             -0.0118   XZ=             -0.1286   YZ=              0.5605

  Exact polarizability: 127.535  -0.424 127.948  -0.493   2.191  54.137
 Approx polarizability: 321.804  -3.309 330.865  -0.199   0.989  83.510

                      1                      2                      3
                      A                      A                      A
 Frequencies --     39.4856               118.2259               188.7449
 Red. masses --     12.0000                12.0000                12.0000
 Frc consts  --      0.0110                 0.0988                 0.2519
 IR Inten    --     32.7776                 0.6038                 1.4718

                      4                      5                      6
                      A                      A                      A
 Frequencies --    268.5217               327.6627               399.8432
 Red. masses --     12.0000                12.0000                12.0000
 Frc consts  --      0.5098                 0.7591                 1.1303
 IR Inten    --      0.0447                 0.0650                 5.1202

                      7                      8                      9
                      A                      A                      A
 Frequencies --    410.3209               453.0033               508.7769
 Red. masses --     12.0000                12.0000                12.0000
 Frc consts  --      1.1904                 1.4509                 1.8301
 IR Inten    --     12.9118                21.8610                 2.7002

                     10                     11                     12
                      A                      A                      A
 Frequencies --    523.4643               552.0653               619.9499
 Red. masses --     12.0000                12.0000                12.0000
 Frc consts  --      1.9373                 2.1548                 2.7173
 IR Inten    --      5.2618                78.5047                46.7219

                     13                     14                     15
                      A                      A                      A
 Frequencies --    916.0246              1103.2692              1111.6699
 Red. masses --     12.0000                12.0000                12.0000
 Frc consts  --      5.9326                 8.6059                 8.7374
 IR Inten    --      0.0450                39.4124                42.1409

                     16                     17                     18
                      A                      A                      A
 Frequencies --   1260.8042              1405.3820              1531.8076
 Red. masses --     12.0000                12.0000                12.0000
 Frc consts  --     11.2390                13.9643                16.5897
 IR Inten    --    271.3203                 1.9850                14.8126

                     19                     20                     21
                      A                      A                      A
 Frequencies --   1639.3891              1814.0325              1839.8537
 Red. masses --     12.0000                12.0000                12.0000
 Frc consts  --     19.0018                23.2660                23.9330
 IR Inten    --      6.8807               197.3522               207.1509

 - Thermochemistry -
 -------------------
 Temperature   298.150 Kelvin.  Pressure   1.00000 Atm.
 Atom     1 has atomic number  6 and mass  12.00000

 Molecular mass:   108.00000 amu.
 Principal axes and moments of inertia in atomic units:
                           1         2         3
     Eigenvalues --   668.10081 678.437801339.12311
           X            1.00000   0.00000   0.00002
           Y           -0.00000   1.00000   0.00002
           Z           -0.00002  -0.00002   1.00000
 This molecule is an asymmetric top.
 Rotational symmetry number  1.
 Warning -- assumption of classical behavior for rotation
           may cause significant error
 Rotational temperatures (Kelvin)      0.12964     0.12767     0.06468
 Rotational constants (GHZ):           2.70130     2.66014     1.34770
 Zero-point vibrational energy     101875.8 (Joules/Mol)
                                   24.34889 (Kcal/Mol)
 Warning -- explicit consideration of  12 degrees of freedom as
           vibrations may cause significant error
 Vibrational temperatures:     56.81   170.10   271.56   386.34   471.43
          (Kelvin)            575.28   590.36   651.77   732.02   753.15
                              794.30   891.97  1317.95  1587.36  1599.44
                             1814.01  2022.03  2203.93  2358.71  2609.98
                             2647.14

 Zero-point correction=                           0.038802 (Hartree/Particle)
 Thermal correction to Energy=                    0.046381
 Thermal correction to Enthalpy=                  0.047325
 Thermal correction to Gibbs Free Energy=         0.006192
 Sum of electronic and zero-point Energies=           -342.564561
 Sum of electronic and thermal Energies=              -342.556983
 Sum of electronic and thermal Enthalpies=            -342.556039
 Sum of electronic and thermal Free Energies=         -342.597171

                     E (Thermal)             CV                S
                      KCal/Mol        Cal/Mol-Kelvin    Cal/Mol-Kelvin
 Total                   29.104             25.366             86.571
 Electronic               0.000              0.000              0.000
 Translational            0.889              2.981             39.947
 Rotational               0.889              2.981             27.898
 Vibrational             27.327             19.405             18.726
 Vibration     1          0.594              1.981              5.285
 Vibration     2          0.608              1.934              3.129
 Vibration     3          0.633              1.855              2.240
 Vibration     4          0.673              1.731              1.606
 Vibration     5          0.711              1.620              1.272
 Vibration     6          0.766              1.470              0.963
 Vibration     7          0.774              1.448              0.925
 Vibration     8          0.812              1.354              0.787
 Vibration     9          0.864              1.231              0.637
 Vibration    10          0.878              1.198              0.602
 Vibration    11          0.907              1.135              0.540
 Vibration    12          0.980              0.990              0.417

 Normal termination of Gaussian 09 at Sun Jun 19 03:30:21 2016.
