 Gaussian 09, Revision E.01,
 Gaussian 09:  EM64L-G09RevE.01 30-Nov-2015

 ---------------------------------------------
 #p b3lyp/6-311++G(3df,2p) freq symmetry=Loose
 ---------------------------------------------

 ---------
 b3lyp opt
 ---------
 Symbolic Z-matrix:
 Charge =  1 Multiplicity = 1

                         Standard orientation:
 ---------------------------------------------------------------------
 Center     Atomic      Atomic             Coordinates (Angstroms)
 Number     Number       Type             X           Y           Z
 ---------------------------------------------------------------------
      1          6           0        0.000000    0.000000   -0.691937
      2          9           0        0.000000    0.000000    0.461292
 ---------------------------------------------------------------------

 SCF Done:  E(RB3LYP) =  -137.486235926     A.U. after    8 cycles

 The electronic state is 1-SG.
 Alpha  occ. eigenvalues --  -25.25222 -10.80714  -1.82734  -1.13155  -0.99725
 Alpha  occ. eigenvalues --   -0.99725  -0.79757
 Alpha virt. eigenvalues --   -0.47393  -0.47393  -0.20129  -0.13432  -0.12590
 Alpha virt. eigenvalues --   -0.12590  -0.04452   0.01381   0.01381   0.01433
 Alpha virt. eigenvalues --    0.04005   0.04005   0.08623   0.19032   0.19032

 Mulliken charges:
               1
     1  C    0.584736
     2  F    0.415264
 Sum of Mulliken charges =   1.00000

 Dipole moment (field-independent basis, Debye):
    X=              0.0000    Y=              0.0000    Z=             -0.9524  Tot=              0.9524
 Quadrupole moment (field-independent basis, Debye-Ang):
   XX=             -7.7438   YY=             -7.7438   ZZ=             -7.4642
   XY=              0.0000   XZ=              0.0000   YZ=              0.0000

  Exact polarizability:   7.852   0.000   7.852  -0.000  -0.000   9.307
 Approx polarizability:  11.191  -0.000  11.191  -0.000  -0.000  14.783

                      1
                     SG
 Frequencies --   1801.9738
 Red. masses --     13.9958
 Frc consts  --     26.7760
 IR Inten    --    203.3024

 - Thermochemistry -
 -------------------
 Temperature   298.150 Kelvin.  Pressure   1.00000 Atm.
 Atom     1 has atomic number  6 and mass  12.00000

 Molecular mass:    30.99840 amu.
 Principal axes and moments of inertia in atomic units:
                           1         2         3
     Eigenvalues --     0.00000  34.92914  34.92914
           X            0.00000  -0.00000   1.00000
           Y            0.00000   1.00000   0.00000
           Z            1.00000   0.00000   0.00000
 This molecule is a prolate symmetric top.
 Rotational symmetry number  1.
 Rotational temperature (Kelvin)      2.47970
 Rotational constant (GHZ):          51.668644
 Zero-point vibrational energy      10778.2 (Joules/Mol)
                                    2.57605 (Kcal/Mol)
 Vibrational temperatures:   2592.64
          (Kelvin)

 Zero-point correction=                           0.004105 (Hartree/Particle)
 Thermal correction to Energy=                    0.006467
 Thermal correction to Enthalpy=                  0.007411
 Thermal correction to Gibbs Free Energy=        -0.015269
 Sum of electronic and zero-point Energies=           -137.482131
 Sum of electronic and thermal Energies=              -137.479769
 Sum of electronic and thermal Enthalpies=            -137.478825
 Sum of electronic and thermal Free Energies=         -137.501505

                     E (Thermal)             CV                S
                      KCal/Mol        Cal/Mol-Kelvin    Cal/Mol-Kelvin
 Total                    4.058              4.993             47.735
 Electronic               0.000              0.000              0.000
 Translational            0.889              2.981             36.227
 Rotational               0.592              1.987             11.505
 Vibrational              2.577              0.025              0.003

 Optimization completed.
    -- Stationary point found.
 Normal termination of Gaussian 09 at Sun Jun 19 04:34:17 2016.
