 Gaussian 09, Revision E.01,
 Gaussian 09:  EM64L-G09RevE.01 30-Nov-2015

 ---------------------------------------------
 #p b3lyp/6-311++G(3df,2p) freq symmetry=Loose
 ---------------------------------------------

 ---------
 b3lyp opt
 ---------
 Symbolic Z-matrix:
 Charge =  0 Multiplicity = 2

                         Standard orientation:
 ---------------------------------------------------------------------
 Center     Atomic      Atomic             Coordinates (Angstroms)
 Number     Number       Type             X           Y           Z
 ---------------------------------------------------------------------
      1          6           0        0.000000    0.000000   -0.763333
      2          9           0        0.000000    0.000000    0.508888
 ---------------------------------------------------------------------

 SCF Done:  E(UB3LYP) =  -137.833659453     A.U. after   10 cycles

 Unable to determine electronic state:  an orbital has unidentified symmetry.
 Alpha  occ. eigenvalues --  -24.79210 -10.32296  -1.33879  -0.70685  -0.56507
 Alpha  occ. eigenvalues --   -0.55336  -0.42288  -0.22255
 Alpha virt. eigenvalues --   -0.11512   0.01959   0.05293   0.06331   0.06896
 Alpha virt. eigenvalues --    0.19465   0.21595   0.23466   0.23675   0.31280
 Alpha virt. eigenvalues --    0.31703   0.32096   0.44531   0.45103   0.52668

  Beta  occ. eigenvalues --  -24.78771 -10.30780  -1.32914  -0.68797  -0.55017
  Beta  occ. eigenvalues --   -0.53206  -0.38658
  Beta virt. eigenvalues --   -0.09995  -0.05860   0.02091   0.05620   0.07046
  Beta virt. eigenvalues --    0.07869   0.20038   0.22288   0.23405   0.23808
  Beta virt. eigenvalues --    0.32286   0.33334   0.33392   0.45220   0.46773

 Mulliken charges and spin densities:
               1          2
     1  C    0.001227   0.970190
     2  F   -0.001227   0.029810
 Sum of Mulliken charges =  -0.00000   1.00000

 Dipole moment (field-independent basis, Debye):
    X=              0.0000    Y=              0.0000    Z=              0.7536  Tot=              0.7536
 Quadrupole moment (field-independent basis, Debye-Ang):
   XX=             -9.7811   YY=            -11.5404   ZZ=            -12.4124
   XY=              0.0000   XZ=              0.0000   YZ=              0.0000

  Exact polarizability:  12.230   0.000  14.273   0.000   0.000  15.135
 Approx polarizability:  17.479  -0.000  15.174  -0.000  -0.000  20.123

                      1
                     SG
 Frequencies --   1299.2136
 Red. masses --     13.9958
 Frc consts  --     13.9191
 IR Inten    --    194.9996

 - Thermochemistry -
 -------------------
 Temperature   298.150 Kelvin.  Pressure   1.00000 Atm.
 Atom     1 has atomic number  6 and mass  12.00000

 Molecular mass:    30.99840 amu.
 Principal axes and moments of inertia in atomic units:
                           1         2         3
     Eigenvalues --     0.00000  42.50910  42.50910
           X            0.00000  -0.00000   1.00000
           Y            0.00000   1.00000   0.00000
           Z            1.00000   0.00000   0.00000
 This molecule is a prolate symmetric top.
 Rotational symmetry number  1.
 Rotational temperature (Kelvin)      2.03754
 Rotational constant (GHZ):          42.455411
 Zero-point vibrational energy       7771.0 (Joules/Mol)
                                    1.85732 (Kcal/Mol)
 Vibrational temperatures:   1869.28
          (Kelvin)

 Zero-point correction=                           0.002960 (Hartree/Particle)
 Thermal correction to Energy=                    0.005332
 Thermal correction to Enthalpy=                  0.006276
 Thermal correction to Gibbs Free Energy=        -0.017256
 Sum of electronic and zero-point Energies=           -137.830700
 Sum of electronic and thermal Energies=              -137.828328
 Sum of electronic and thermal Enthalpies=            -137.827384
 Sum of electronic and thermal Free Energies=         -137.850916

                     E (Thermal)             CV                S
                      KCal/Mol        Cal/Mol-Kelvin    Cal/Mol-Kelvin
 Total                    3.346              5.116             49.527
 Electronic               0.000              0.000              1.377
 Translational            0.889              2.981             36.227
 Rotational               0.592              1.987             11.895
 Vibrational              1.864              0.148              0.027

 Optimization completed.
    -- Stationary point found.
 Normal termination of Gaussian 09 at Sun Jun 19 04:34:20 2016.
