 Gaussian 09, Revision E.01,
 Gaussian 09:  EM64L-G09RevE.01 30-Nov-2015

 ---------------------------------------------
 #p b3lyp/6-311++G(3df,2p) freq symmetry=Loose
 ---------------------------------------------

 ---------
 b3lyp opt
 ---------
 Symbolic Z-matrix:
 Charge =  1 Multiplicity = 3

                         Standard orientation:
 ---------------------------------------------------------------------
 Center     Atomic      Atomic             Coordinates (Angstroms)
 Number     Number       Type             X           Y           Z
 ---------------------------------------------------------------------
      1          6           0        0.000000    0.000000   -0.726583
      2          9           0        0.000000    0.000000    0.484388
 ---------------------------------------------------------------------

 SCF Done:  E(UB3LYP) =  -137.318895848     A.U. after   11 cycles

 Unable to determine electronic state:  partially filled degenerate orbitals.
 Alpha  occ. eigenvalues --  -25.18953 -10.81256  -1.74321  -1.09015  -0.94866
 Alpha  occ. eigenvalues --   -0.92978  -0.89233  -0.62795
 Alpha virt. eigenvalues --   -0.51096  -0.21077  -0.15599  -0.12571  -0.12340
 Alpha virt. eigenvalues --   -0.06848   0.00785   0.02427   0.02511   0.03697
 Alpha virt. eigenvalues --    0.03901   0.08950   0.16400   0.17042   0.22877

  Beta  occ. eigenvalues --  -25.18217 -10.77043  -1.72462  -1.04683  -0.92479
  Beta  occ. eigenvalues --   -0.90068
  Beta virt. eigenvalues --   -0.63528  -0.44057  -0.39413  -0.18440  -0.13733
  Beta virt. eigenvalues --   -0.11889  -0.11221  -0.03199   0.01672   0.02454
  Beta virt. eigenvalues --    0.02942   0.05684   0.05742   0.09748   0.18594

 Mulliken charges and spin densities:
               1          2
     1  C    0.767933   1.936778
     2  F    0.232067   0.063222
 Sum of Mulliken charges =   1.00000   2.00000

 Dipole moment (field-independent basis, Debye):
    X=              0.0000    Y=              0.0000    Z=             -2.6187  Tot=              2.6187
 Quadrupole moment (field-independent basis, Debye-Ang):
   XX=             -7.3548   YY=             -8.6432   ZZ=             -5.0839
   XY=              0.0000   XZ=              0.0000   YZ=              0.0000

  Exact polarizability:   6.870   0.000   6.554   0.000   0.000  10.060
 Approx polarizability:   8.558  -0.000   7.166  -0.000  -0.000  15.753

                      1
                     SG
 Frequencies --   1618.6292
 Red. masses --     13.9958
 Frc consts  --     21.6045
 IR Inten    --    106.7540

 - Thermochemistry -
 -------------------
 Temperature   298.150 Kelvin.  Pressure   1.00000 Atm.
 Atom     1 has atomic number  6 and mass  12.00000

 Molecular mass:    30.99840 amu.
 Principal axes and moments of inertia in atomic units:
                           1         2         3
     Eigenvalues --     0.00000  38.51450  38.51450
           X            0.00000  -0.00000   1.00000
           Y            0.00000   1.00000   0.00000
           Z            1.00000   0.00000   0.00000
 This molecule is a prolate symmetric top.
 Rotational symmetry number  1.
 Rotational temperature (Kelvin)      2.24886
 Rotational constant (GHZ):          46.858749
 Zero-point vibrational energy       9681.6 (Joules/Mol)
                                    2.31395 (Kcal/Mol)
 Vibrational temperatures:   2328.84
          (Kelvin)

 Zero-point correction=                           0.003688 (Hartree/Particle)
 Thermal correction to Energy=                    0.006051
 Thermal correction to Enthalpy=                  0.006995
 Thermal correction to Gibbs Free Energy=        -0.016817
 Sum of electronic and zero-point Energies=           -137.315208
 Sum of electronic and thermal Energies=              -137.312845
 Sum of electronic and thermal Enthalpies=            -137.311901
 Sum of electronic and thermal Free Energies=         -137.335712

                     E (Thermal)             CV                S
                      KCal/Mol        Cal/Mol-Kelvin    Cal/Mol-Kelvin
 Total                    3.797              5.017             50.116
 Electronic               0.000              0.000              2.183
 Translational            0.889              2.981             36.227
 Rotational               0.592              1.987             11.699
 Vibrational              2.316              0.049              0.007

 Optimization completed.
    -- Stationary point found.
 Normal termination of Gaussian 09 at Sun Jun 19 04:39:12 2016.
