 Gaussian 09, Revision E.01,
 Gaussian 09:  EM64L-G09RevE.01 30-Nov-2015

 ---------------------------------------------
 #p b3lyp/6-311++G(3df,2p) freq symmetry=Loose
 ---------------------------------------------

 ---------
 b3lyp opt
 ---------
 Symbolic Z-matrix:
 Charge =  0 Multiplicity = 4

                         Standard orientation:
 ---------------------------------------------------------------------
 Center     Atomic      Atomic             Coordinates (Angstroms)
 Number     Number       Type             X           Y           Z
 ---------------------------------------------------------------------
      1          6           0        0.000000    0.000000   -0.794456
      2          9           0        0.000000    0.000000    0.529637
 ---------------------------------------------------------------------

 SCF Done:  E(UB3LYP) =  -137.698386120     A.U. after   10 cycles

 The electronic state is 4-SG.
 Alpha  occ. eigenvalues --  -24.75636 -10.32563  -1.28853  -0.68958  -0.52487
 Alpha  occ. eigenvalues --   -0.52487  -0.49397  -0.25037  -0.25037
 Alpha virt. eigenvalues --    0.02027   0.03897   0.06308   0.06308   0.16061
 Alpha virt. eigenvalues --    0.21767   0.24717   0.24717   0.31254   0.31254
 Alpha virt. eigenvalues --    0.31615   0.42243   0.42243   0.51108   0.51496

  Beta  occ. eigenvalues --  -24.74424 -10.27548  -1.26008  -0.62040  -0.48522
  Beta  occ. eigenvalues --   -0.48522
  Beta virt. eigenvalues --   -0.24276  -0.03632  -0.03632   0.03378   0.05886
  Beta virt. eigenvalues --    0.08784   0.08784   0.21557   0.22988   0.24918
  Beta virt. eigenvalues --    0.24918   0.33355   0.34823   0.34827   0.46365

 Mulliken charges and spin densities:
               1          2
     1  C    0.115021   2.848647
     2  F   -0.115021   0.151353
 Sum of Mulliken charges =  -0.00000   3.00000

 Dipole moment (field-independent basis, Debye):
    X=              0.0000    Y=              0.0000    Z=             -0.6239  Tot=              0.6239
 Quadrupole moment (field-independent basis, Debye-Ang):
   XX=            -10.9623   YY=            -10.9623   ZZ=            -10.0608
   XY=              0.0000   XZ=              0.0000   YZ=              0.0000

  Exact polarizability:  11.853   0.000  11.853   0.000   0.000  15.187
 Approx polarizability:  12.748  -0.000  12.748  -0.000  -0.000  18.718

                      1
                     SG
 Frequencies --   1229.1128
 Red. masses --     13.9958
 Frc consts  --     12.4575
 IR Inten    --     68.2433

 - Thermochemistry -
 -------------------
 Temperature   298.150 Kelvin.  Pressure   1.00000 Atm.
 Atom     1 has atomic number  6 and mass  12.00000

 Molecular mass:    30.99840 amu.
 Principal axes and moments of inertia in atomic units:
                           1         2         3
     Eigenvalues --     0.00000  46.04619  46.04619
           X            0.00000  -0.00000   1.00000
           Y            0.00000   1.00000   0.00000
           Z            1.00000   0.00000   0.00000
 This molecule is a prolate symmetric top.
 Rotational symmetry number  1.
 Rotational temperature (Kelvin)      1.88102
 Rotational constant (GHZ):          39.194145
 Zero-point vibrational energy       7351.7 (Joules/Mol)
                                    1.75710 (Kcal/Mol)
 Vibrational temperatures:   1768.42
          (Kelvin)

 Zero-point correction=                           0.002800 (Hartree/Particle)
 Thermal correction to Energy=                    0.005175
 Thermal correction to Enthalpy=                  0.006120
 Thermal correction to Gibbs Free Energy=        -0.018146
 Sum of electronic and zero-point Energies=           -137.695586
 Sum of electronic and thermal Energies=              -137.693211
 Sum of electronic and thermal Enthalpies=            -137.692266
 Sum of electronic and thermal Free Energies=         -137.716533

                     E (Thermal)             CV                S
                      KCal/Mol        Cal/Mol-Kelvin    Cal/Mol-Kelvin
 Total                    3.248              5.155             51.072
 Electronic               0.000              0.000              2.755
 Translational            0.889              2.981             36.227
 Rotational               0.592              1.987             12.054
 Vibrational              1.766              0.187              0.037

 Optimization completed.
    -- Stationary point found.
 Normal termination of Gaussian 09 at Sun Jun 19 04:34:20 2016.
