 Gaussian 09, Revision E.01,
 Gaussian 09:  EM64L-G09RevE.01 30-Nov-2015

 ---------------------------------------------
 #p b3lyp/6-311++G(3df,2p) freq symmetry=Loose
 ---------------------------------------------

 ---------
 b3lyp opt
 ---------
 Symbolic Z-matrix:
 Charge =  0 Multiplicity = 3

                         Standard orientation:
 ---------------------------------------------------------------------
 Center     Atomic      Atomic             Coordinates (Angstroms)
 Number     Number       Type             X           Y           Z
 ---------------------------------------------------------------------
      1          6           0        0.000000    0.000000    0.496101
      2          9           0       -0.000000   -1.136401   -0.165367
      3          9           0        0.000000    1.136401   -0.165367
 ---------------------------------------------------------------------

 SCF Done:  E(UB3LYP) =  -237.706820614     A.U. after   10 cycles

 The electronic state is 3-B1.
 Alpha  occ. eigenvalues --  -24.75734 -24.75734 -10.36369  -1.32079  -1.27572
 Alpha  occ. eigenvalues --   -0.71352  -0.61645  -0.56396  -0.55939  -0.49538
 Alpha  occ. eigenvalues --   -0.47631  -0.36227  -0.21960
 Alpha virt. eigenvalues --    0.01711   0.04207   0.04901   0.05714   0.14433
 Alpha virt. eigenvalues --    0.19696   0.20547   0.20680   0.22959   0.24649
 Alpha virt. eigenvalues --    0.25762   0.29462   0.31419   0.35208   0.36367

  Beta  occ. eigenvalues --  -24.74905 -24.74905 -10.33139  -1.30040  -1.25761
  Beta  occ. eigenvalues --   -0.67511  -0.59344  -0.52512  -0.52266  -0.46900
  Beta  occ. eigenvalues --   -0.46518
  Beta virt. eigenvalues --   -0.16703  -0.02846   0.02805   0.04482   0.06006
  Beta virt. eigenvalues --    0.07184   0.17830   0.20650   0.21286   0.22974
  Beta virt. eigenvalues --    0.23431   0.25062   0.26196   0.30498   0.31462

 Mulliken charges and spin densities:
               1          2
     1  C    0.404253   1.793305
     2  F   -0.202127   0.103347
     3  F   -0.202127   0.103347
 Sum of Mulliken charges =  -0.00000   2.00000

 Dipole moment (field-independent basis, Debye):
    X=             -0.0000    Y=              0.0000    Z=              0.3473  Tot=              0.3473
 Quadrupole moment (field-independent basis, Debye-Ang):
   XX=            -15.4073   YY=            -16.4589   ZZ=            -15.0420
   XY=             -0.0000   XZ=             -0.0000   YZ=             -0.0000

  Exact polarizability:  13.015   0.000  18.102   0.000   0.000  14.572
 Approx polarizability:  15.209   0.000  23.237  -0.000   0.000  17.869

                      1                      2                      3
                     A1                     A1                     B2
 Frequencies --    510.9276              1136.0053              1297.3264
 Red. masses --     16.8422                14.4453                13.4751
 Frc consts  --      2.5904                10.9834                13.3623
 IR Inten    --      5.9581                52.8152               297.1683

 - Thermochemistry -
 -------------------
 Temperature   298.150 Kelvin.  Pressure   1.00000 Atm.
 Atom     1 has atomic number  6 and mass  12.00000

 Molecular mass:    49.99681 amu.
 Principal axes and moments of inertia in atomic units:
                           1         2         3
     Eigenvalues --    14.24959 175.22975 189.47934
           X            0.00000   0.00000   1.00000
           Y            1.00000   0.00000  -0.00000
           Z           -0.00000   1.00000  -0.00000
 This molecule is an asymmetric top.
 Rotational symmetry number  2.
 Rotational temperatures (Kelvin)      6.07834     0.49429     0.45711
 Rotational constants (GHZ):         126.65215    10.29929     9.52474
 Zero-point vibrational energy      17610.6 (Joules/Mol)
                                    4.20903 (Kcal/Mol)
 Warning -- explicit consideration of   1 degrees of freedom as
           vibrations may cause significant error
 Vibrational temperatures:    735.11  1634.46  1866.56
          (Kelvin)

 Zero-point correction=                           0.006708 (Hartree/Particle)
 Thermal correction to Energy=                    0.009789
 Thermal correction to Enthalpy=                  0.010733
 Thermal correction to Gibbs Free Energy=        -0.017754
 Sum of electronic and zero-point Energies=           -237.700113
 Sum of electronic and thermal Energies=              -237.697031
 Sum of electronic and thermal Enthalpies=            -237.696087
 Sum of electronic and thermal Free Energies=         -237.724575

                     E (Thermal)             CV                S
                      KCal/Mol        Cal/Mol-Kelvin    Cal/Mol-Kelvin
 Total                    6.143              7.587             59.957
 Electronic               0.000              0.000              2.183
 Translational            0.889              2.981             37.652
 Rotational               0.889              2.981             19.409
 Vibrational              4.365              1.626              0.713
 Vibration     1          0.866              1.226              0.631

 Optimization completed.
    -- Stationary point found.
 Normal termination of Gaussian 09 at Sun Jun 19 03:35:59 2016.
