 Gaussian 09, Revision E.01,
 Gaussian 09:  EM64L-G09RevE.01 30-Nov-2015

 ---------------------------------------------
 #p b3lyp/6-311++G(3df,2p) freq symmetry=Loose
 ---------------------------------------------

 ---------
 b3lyp opt
 ---------
 Symbolic Z-matrix:
 Charge =  1 Multiplicity = 4

                         Standard orientation:
 ---------------------------------------------------------------------
 Center     Atomic      Atomic             Coordinates (Angstroms)
 Number     Number       Type             X           Y           Z
 ---------------------------------------------------------------------
      1          6           0       -0.000000   -0.000000    0.678068
      2          9           0       -0.000000    1.008716   -0.226023
      3          9           0       -0.000000   -1.008716   -0.226023
 ---------------------------------------------------------------------

 SCF Done:  E(UB3LYP) =  -237.126097430     A.U. after   12 cycles

 The electronic state is 4-A2.
 Alpha  occ. eigenvalues --  -25.19360 -25.19358 -10.73659  -1.73079  -1.65628
 Alpha  occ. eigenvalues --   -1.09592  -0.97571  -0.97456  -0.93522  -0.88646
 Alpha  occ. eigenvalues --   -0.86939  -0.75809  -0.58539
 Alpha virt. eigenvalues --   -0.27371  -0.21308  -0.15714  -0.12106  -0.10588
 Alpha virt. eigenvalues --   -0.10582  -0.00562  -0.00252   0.00768   0.01450
 Alpha virt. eigenvalues --    0.02334   0.07585   0.09930   0.14403   0.15538

  Beta  occ. eigenvalues --  -25.16904 -25.16904 -10.69872  -1.67462  -1.59524
  Beta  occ. eigenvalues --   -1.03545  -0.93797  -0.88790  -0.84752  -0.83200
  Beta virt. eigenvalues --   -0.68760  -0.52512  -0.35769  -0.21409  -0.17521
  Beta virt. eigenvalues --   -0.13175  -0.11000  -0.09126  -0.08130  -0.00243
  Beta virt. eigenvalues --    0.00820   0.01693   0.01696   0.03009   0.08078

 Mulliken charges and spin densities:
               1          2
     1  C    0.685067   1.808862
     2  F    0.157467   0.595569
     3  F    0.157467   0.595569
 Sum of Mulliken charges =   1.00000   3.00000

 Dipole moment (field-independent basis, Debye):
    X=             -0.0000    Y=             -0.0000    Z=              1.3062  Tot=              1.3062
 Quadrupole moment (field-independent basis, Debye-Ang):
   XX=            -13.4071   YY=             -9.3124   ZZ=            -11.1881
   XY=              0.0000   XZ=              0.0000   YZ=              0.0000

  Exact polarizability:   8.985  -0.000  26.678  -0.000  -0.000  11.985
 Approx polarizability:  10.555   0.000  55.230   0.000   0.000  16.116

                      1                      2                      3
                     A1                     B2                     A1
 Frequencies --    426.7468               672.2422              1143.9684
 Red. masses --     17.3638                13.8515                14.0825
 Frc consts  --      1.8631                 3.6881                10.8582
 IR Inten    --     11.0534                76.4136                72.6167

 - Thermochemistry -
 -------------------
 Temperature   298.150 Kelvin.  Pressure   1.00000 Atm.
 Atom     1 has atomic number  6 and mass  12.00000

 Molecular mass:    49.99681 amu.
 Principal axes and moments of inertia in atomic units:
                           1         2         3
     Eigenvalues --    26.61998 138.06458 164.68456
           X            0.00000   0.00000   1.00000
           Y            1.00000   0.00000  -0.00000
           Z           -0.00000   1.00000  -0.00000
 This molecule is an asymmetric top.
 Rotational symmetry number  2.
 Rotational temperatures (Kelvin)      3.25371     0.62734     0.52594
 Rotational constants (GHZ):          67.79649    13.07172    10.95878
 Zero-point vibrational energy      13415.9 (Joules/Mol)
                                    3.20647 (Kcal/Mol)
 Warning -- explicit consideration of   1 degrees of freedom as
           vibrations may cause significant error
 Vibrational temperatures:    613.99   967.21  1645.91
          (Kelvin)

 Zero-point correction=                           0.005110 (Hartree/Particle)
 Thermal correction to Energy=                    0.008372
 Thermal correction to Enthalpy=                  0.009316
 Thermal correction to Gibbs Free Energy=        -0.019820
 Sum of electronic and zero-point Energies=           -237.120988
 Sum of electronic and thermal Energies=              -237.117726
 Sum of electronic and thermal Enthalpies=            -237.116781
 Sum of electronic and thermal Free Energies=         -237.145918

                     E (Thermal)             CV                S
                      KCal/Mol        Cal/Mol-Kelvin    Cal/Mol-Kelvin
 Total                    5.253              8.501             61.322
 Electronic               0.000              0.000              2.755
 Translational            0.889              2.981             37.652
 Rotational               0.889              2.981             19.654
 Vibrational              3.476              2.540              1.262
 Vibration     1          0.788              1.412              0.869

 Optimization completed.
    -- Stationary point found.
 Normal termination of Gaussian 09 at Sat Jul  2 15:15:34 2016.
