 Gaussian 09, Revision E.01,
 Gaussian 09:  EM64L-G09RevE.01 30-Nov-2015

 ---------------------------------------------
 #p b3lyp/6-311++G(3df,2p) freq symmetry=Loose
 ---------------------------------------------

 ---------
 b3lyp opt
 ---------
 Symbolic Z-matrix:
 Charge =  1 Multiplicity = 2

                         Standard orientation:
 ---------------------------------------------------------------------
 Center     Atomic      Atomic             Coordinates (Angstroms)
 Number     Number       Type             X           Y           Z
 ---------------------------------------------------------------------
      1          6           0        0.000000    0.000000    0.423162
      2          9           0        0.000000   -1.078303   -0.141055
      3          9           0        0.000000    1.078303   -0.141055
 ---------------------------------------------------------------------

 SCF Done:  E(UB3LYP) =  -237.374973634     A.U. after   11 cycles

 The electronic state is 2-A1.
 Alpha  occ. eigenvalues --  -25.15245 -25.15244 -10.81380  -1.74614  -1.68956
 Alpha  occ. eigenvalues --   -1.07941  -1.00940  -0.95638  -0.94891  -0.85625
 Alpha  occ. eigenvalues --   -0.84843  -0.69177
 Alpha virt. eigenvalues --   -0.44509  -0.21009  -0.14840  -0.13398  -0.12822
 Alpha virt. eigenvalues --   -0.09367  -0.01968  -0.00913   0.00186   0.01180
 Alpha virt. eigenvalues --    0.03206   0.03583   0.07556   0.11317   0.11351

  Beta  occ. eigenvalues --  -25.14766 -25.14766 -10.79552  -1.73466  -1.67805
  Beta  occ. eigenvalues --   -1.06311  -0.99268  -0.94118  -0.91719  -0.85519
  Beta  occ. eigenvalues --   -0.83515
  Beta virt. eigenvalues --   -0.50410  -0.40893  -0.19888  -0.14183  -0.12669
  Beta virt. eigenvalues --   -0.12617  -0.08511  -0.00740  -0.00022   0.01107
  Beta virt. eigenvalues --    0.01255   0.03672   0.03865   0.07858   0.11463

 Mulliken charges and spin densities:
               1          2
     1  C    0.832130   0.882341
     2  F    0.083935   0.058829
     3  F    0.083935   0.058829
 Sum of Mulliken charges =   1.00000   1.00000

 Dipole moment (field-independent basis, Debye):
    X=              0.0000    Y=             -0.0000    Z=              1.0336  Tot=              1.0336
 Quadrupole moment (field-independent basis, Debye-Ang):
   XX=            -11.9832   YY=            -10.6671   ZZ=            -12.1837
   XY=              0.0000   XZ=              0.0000   YZ=             -0.0000

  Exact polarizability:   8.805   0.000  14.813  -0.000  -0.000   9.737
 Approx polarizability:  11.408   0.000  23.015  -0.000   0.000  12.962

                      1                      2                      3
                     A1                     A1                     B2
 Frequencies --    642.9662              1365.7968              1677.5042
 Red. masses --     16.4319                14.7614                13.4180
 Frc consts  --      4.0023                16.2237                22.2466
 IR Inten    --     25.4186                61.9464               418.1384

 - Thermochemistry -
 -------------------
 Temperature   298.150 Kelvin.  Pressure   1.00000 Atm.
 Atom     1 has atomic number  6 and mass  12.00000

 Molecular mass:    49.99681 amu.
 Principal axes and moments of inertia in atomic units:
                           1         2         3
     Eigenvalues --    10.36753 157.77079 168.13832
           X            0.00000   0.00000   1.00000
           Y            1.00000   0.00000  -0.00000
           Z            0.00000   1.00000   0.00000
 This molecule is an asymmetric top.
 Rotational symmetry number  2.
 Rotational temperatures (Kelvin)      8.35433     0.54899     0.51513
 Rotational constants (GHZ):         174.07626    11.43901    10.73367
 Zero-point vibrational energy      22048.8 (Joules/Mol)
                                    5.26978 (Kcal/Mol)
 Vibrational temperatures:    925.08  1965.07  2413.55
          (Kelvin)

 Zero-point correction=                           0.008398 (Hartree/Particle)
 Thermal correction to Energy=                    0.011379
 Thermal correction to Enthalpy=                  0.012323
 Thermal correction to Gibbs Free Energy=        -0.015380
 Sum of electronic and zero-point Energies=           -237.366576
 Sum of electronic and thermal Energies=              -237.363594
 Sum of electronic and thermal Enthalpies=            -237.362650
 Sum of electronic and thermal Free Energies=         -237.390354

                     E (Thermal)             CV                S
                      KCal/Mol        Cal/Mol-Kelvin    Cal/Mol-Kelvin
 Total                    7.141              7.062             58.307
 Electronic               0.000              0.000              1.377
 Translational            0.889              2.981             37.652
 Rotational               0.889              2.981             18.870
 Vibrational              5.363              1.101              0.408

 Optimization completed.
    -- Stationary point found.
 Normal termination of Gaussian 09 at Sun Jun 19 03:36:00 2016.
