 Gaussian 09, Revision E.01,
 Gaussian 09:  EM64L-G09RevE.01 30-Nov-2015

 ---------------------------------------------
 #p b3lyp/6-311++G(3df,2p) freq symmetry=Loose
 ---------------------------------------------

 ---------
 b3lyp opt
 ---------
 Symbolic Z-matrix:
 Charge =  0 Multiplicity = 1

                         Standard orientation:
 ---------------------------------------------------------------------
 Center     Atomic      Atomic             Coordinates (Angstroms)
 Number     Number       Type             X           Y           Z
 ---------------------------------------------------------------------
      1          6           0        0.000000   -0.000000    0.595218
      2          9           0       -0.000000   -1.030694   -0.198418
      3          9           0        0.000000    1.030694   -0.198418
 ---------------------------------------------------------------------

 SCF Done:  E(RB3LYP) =  -237.790561936     A.U. after    9 cycles

 The electronic state is 1-A1.
 Alpha  occ. eigenvalues --  -24.76834 -24.76833 -10.38446  -1.35368  -1.27794
 Alpha  occ. eigenvalues --   -0.72223  -0.61960  -0.57227  -0.56514  -0.49631
 Alpha  occ. eigenvalues --   -0.46938  -0.31974
 Alpha virt. eigenvalues --   -0.10050   0.02016   0.03956   0.05640   0.05875
 Alpha virt. eigenvalues --    0.18336   0.18908   0.20004   0.21390   0.22668
 Alpha virt. eigenvalues --    0.23818   0.24250   0.29469   0.31158   0.35872

 Mulliken charges:
               1
     1  C    0.280274
     2  F   -0.140137
     3  F   -0.140137
 Sum of Mulliken charges =  -0.00000

 Dipole moment (field-independent basis, Debye):
    X=             -0.0000    Y=             -0.0000    Z=             -0.5881  Tot=              0.5881
 Quadrupole moment (field-independent basis, Debye-Ang):
   XX=            -14.5603   YY=            -16.0632   ZZ=            -17.4962
   XY=             -0.0000   XZ=              0.0000   YZ=              0.0000

  Exact polarizability:  14.580   0.000  19.128   0.000   0.000  15.744
 Approx polarizability:  20.774   0.000  27.005  -0.000   0.000  19.253

                      1                      2                      3
                     A1                     B2                     A1
 Frequencies --    671.4080              1103.8977              1225.8671
 Red. masses --     17.7747                13.6875                13.8233
 Frc consts  --      4.7209                 9.8273                12.2391
 IR Inten    --      2.9007               378.0945               111.6937

 - Thermochemistry -
 -------------------
 Temperature   298.150 Kelvin.  Pressure   1.00000 Atm.
 Atom     1 has atomic number  6 and mass  12.00000

 Molecular mass:    49.99681 amu.
 Principal axes and moments of inertia in atomic units:
                           1         2         3
     Eigenvalues --    20.51284 144.14658 164.65942
           X            0.00000  -0.00000   1.00000
           Y            1.00000   0.00000  -0.00000
           Z           -0.00000   1.00000   0.00000
 This molecule is an asymmetric top.
 Rotational symmetry number  2.
 Rotational temperatures (Kelvin)      4.22242     0.60087     0.52602
 Rotational constants (GHZ):          87.98106    12.52018    10.96045
 Zero-point vibrational energy      17951.0 (Joules/Mol)
                                    4.29039 (Kcal/Mol)
 Vibrational temperatures:    966.01  1588.26  1763.75
          (Kelvin)

 Zero-point correction=                           0.006837 (Hartree/Particle)
 Thermal correction to Energy=                    0.009834
 Thermal correction to Enthalpy=                  0.010778
 Thermal correction to Gibbs Free Energy=        -0.016556
 Sum of electronic and zero-point Energies=           -237.783725
 Sum of electronic and thermal Energies=              -237.780728
 Sum of electronic and thermal Enthalpies=            -237.779784
 Sum of electronic and thermal Free Energies=         -237.807118

                     E (Thermal)             CV                S
                      KCal/Mol        Cal/Mol-Kelvin    Cal/Mol-Kelvin
 Total                    6.171              7.312             57.530
 Electronic               0.000              0.000              0.000
 Translational            0.889              2.981             37.652
 Rotational               0.889              2.981             19.437
 Vibrational              4.394              1.350              0.440

 Optimization completed.
    -- Stationary point found.
 Normal termination of Gaussian 09 at Sun Jun 19 03:35:55 2016.
