 Gaussian 09, Revision E.01,
 Gaussian 09:  EM64L-G09RevE.01 30-Nov-2015

 ---------------------------------------------
 #p b3lyp/6-311++G(3df,2p) freq symmetry=Loose
 ---------------------------------------------

 ---------
 b3lyp opt
 ---------
 Symbolic Z-matrix:
 Charge =  1 Multiplicity = 1

                         Standard orientation:
 ---------------------------------------------------------------------
 Center     Atomic      Atomic             Coordinates (Angstroms)
 Number     Number       Type             X           Y           Z
 ---------------------------------------------------------------------
      1          6           0        0.000000    0.000000    0.000000
      2          9           0        0.000000    1.233798    0.000000
      3          9           0       -1.068501   -0.616899    0.000000
      4          9           0        1.068501   -0.616899    0.000000
 ---------------------------------------------------------------------

 SCF Done:  E(RB3LYP) =  -337.356994543     A.U. after    8 cycles

 The electronic state is 1-A1'.
 Alpha  occ. eigenvalues --  -25.11294 -25.11293 -25.11293 -10.84529  -1.74209
 Alpha  occ. eigenvalues --   -1.65321  -1.65321  -1.06177  -0.99574  -0.99574
 Alpha  occ. eigenvalues --   -0.95769  -0.84257  -0.84257  -0.82791  -0.82791
 Alpha  occ. eigenvalues --   -0.79038
 Alpha virt. eigenvalues --   -0.39912  -0.26119  -0.13093  -0.12832  -0.12832
 Alpha virt. eigenvalues --   -0.11114  -0.03323  -0.03323   0.00108   0.01517
 Alpha virt. eigenvalues --    0.01517   0.02404   0.02404   0.07321   0.09715

 Mulliken charges:
               1
     1  C    1.221479
     2  F   -0.073826
     3  F   -0.073826
     4  F   -0.073826
 Sum of Mulliken charges =   1.00000

 Dipole moment (field-independent basis, Debye):
    X=             -0.0000    Y=             -0.0000    Z=             -0.0000  Tot=              0.0000
 Quadrupole moment (field-independent basis, Debye-Ang):
   XX=            -15.9297   YY=            -15.9297   ZZ=            -16.3191
   XY=              0.0000   XZ=             -0.0000   YZ=             -0.0000

  Exact polarizability:  15.317  -0.000  15.318  -0.000  -0.000   9.553
 Approx polarizability:  22.103  -0.000  22.103   0.000  -0.000  12.662

                      1                      2                      3
                     E'                     E'                     A2"
 Frequencies --    587.7755               587.7893               801.0052
 Red. masses --     18.0742                18.0742                12.8215
 Frc consts  --      3.6790                 3.6792                 4.8468
 IR Inten    --     11.9395                11.9435                65.2684

                      4                      5                      6
                     A1'                    E'                     E'
 Frequencies --   1050.9402              1660.4541              1660.4654
 Red. masses --     18.9984                13.2797                13.2797
 Frc consts  --     12.3630                21.5721                21.5724
 IR Inten    --      0.0000               430.3256               430.2090

 - Thermochemistry -
 -------------------
 Temperature   298.150 Kelvin.  Pressure   1.00000 Atm.
 Atom     1 has atomic number  6 and mass  12.00000

 Molecular mass:    68.99521 amu.
 Principal axes and moments of inertia in atomic units:
                           1         2         3
     Eigenvalues --   154.91538 154.91538 309.83076
           X            0.69338   0.72058   0.00000
           Y            0.72058  -0.69338   0.00000
           Z            0.00000   0.00000   1.00000
 This molecule is an oblate symmetric top.
 Rotational symmetry number  6.
 Rotational temperatures (Kelvin)      0.55910     0.55910     0.27955
 Rotational constants (GHZ):          11.64985    11.64985     5.82493
 Zero-point vibrational energy      37972.0 (Joules/Mol)
                                    9.07554 (Kcal/Mol)
 Warning -- explicit consideration of   2 degrees of freedom as
           vibrations may cause significant error
 Vibrational temperatures:    845.68   845.70  1152.47  1512.07  2389.02
          (Kelvin)           2389.04

 Zero-point correction=                           0.014463 (Hartree/Particle)
 Thermal correction to Energy=                    0.017742
 Thermal correction to Enthalpy=                  0.018687
 Thermal correction to Gibbs Free Energy=        -0.009732
 Sum of electronic and zero-point Energies=           -337.342532
 Sum of electronic and thermal Energies=              -337.339252
 Sum of electronic and thermal Enthalpies=            -337.338308
 Sum of electronic and thermal Free Energies=         -337.366726

                     E (Thermal)             CV                S
                      KCal/Mol        Cal/Mol-Kelvin    Cal/Mol-Kelvin
 Total                   11.133              9.136             59.811
 Electronic               0.000              0.000              0.000
 Translational            0.889              2.981             38.612
 Rotational               0.889              2.981             19.963
 Vibrational              9.356              3.174              1.237
 Vibration     1          0.945              1.058              0.471
 Vibration     2          0.945              1.058              0.471

 Optimization completed.
    -- Stationary point found.
 Normal termination of Gaussian 09 at Sat Jul  2 15:16:39 2016.
