 Gaussian 09, Revision E.01,
 Gaussian 09:  EM64L-G09RevE.01 30-Nov-2015

 ---------------------------------------------
 #p b3lyp/6-311++G(3df,2p) freq symmetry=Loose
 ---------------------------------------------

 ---------
 b3lyp opt
 ---------
 Symbolic Z-matrix:
 Charge =  0 Multiplicity = 2

                         Standard orientation:
 ---------------------------------------------------------------------
 Center     Atomic      Atomic             Coordinates (Angstroms)
 Number     Number       Type             X           Y           Z
 ---------------------------------------------------------------------
      1          6           0        0.000000    0.000000    0.324169
      2          9           0       -0.000000    1.257369   -0.072035
      3          9           0       -1.088913   -0.628684   -0.072035
      4          9           0        1.088913   -0.628684   -0.072035
 ---------------------------------------------------------------------

 SCF Done:  E(UB3LYP) =  -337.693198569     A.U. after   10 cycles

 The electronic state is 2-A1.
 Alpha  occ. eigenvalues --  -24.75351 -24.75351 -24.75350 -10.44104  -1.35834
 Alpha  occ. eigenvalues --   -1.27439  -1.27439  -0.73383  -0.63471  -0.63471
 Alpha  occ. eigenvalues --   -0.59961  -0.51096  -0.51096  -0.47939  -0.47939
 Alpha  occ. eigenvalues --   -0.45337  -0.28570
 Alpha virt. eigenvalues --    0.01558   0.04500   0.04500   0.04972   0.16500
 Alpha virt. eigenvalues --    0.16500   0.16750   0.20692   0.20692   0.21721
 Alpha virt. eigenvalues --    0.21721   0.22242   0.26408   0.30910   0.31136

  Beta  occ. eigenvalues --  -24.74985 -24.74985 -24.74983 -10.42478  -1.34901
  Beta  occ. eigenvalues --   -1.26617  -1.26617  -0.71822  -0.62597  -0.62597
  Beta  occ. eigenvalues --   -0.56371  -0.50168  -0.50168  -0.47034  -0.47034
  Beta  occ. eigenvalues --   -0.45033
  Beta virt. eigenvalues --   -0.11450   0.02357   0.04631   0.04631   0.05551
  Beta virt. eigenvalues --    0.17757   0.18132   0.18132   0.21170   0.21170
  Beta virt. eigenvalues --    0.22240   0.22240   0.22598   0.26672   0.30861

 Mulliken charges and spin densities:
               1          2
     1  C    0.909456   0.867161
     2  F   -0.303152   0.044280
     3  F   -0.303152   0.044280
     4  F   -0.303152   0.044280
 Sum of Mulliken charges =  -0.00000   1.00000

 Dipole moment (field-independent basis, Debye):
    X=             -0.0000    Y=              0.0000    Z=              0.3001  Tot=              0.3001
 Quadrupole moment (field-independent basis, Debye-Ang):
   XX=            -21.1471   YY=            -21.1471   ZZ=            -19.8104
   XY=              0.0000   XZ=             -0.0000   YZ=             -0.0000

  Exact polarizability:  18.867   0.000  18.870   0.000  -0.003  15.177
 Approx polarizability:  24.118  -0.000  24.118   0.000   0.000  18.582

                      1                      2                      3
                      E                      E                     A1
 Frequencies --    504.1045               504.1120               698.1906
 Red. masses --     18.2814                18.2815                16.2933
 Frc consts  --      2.7372                 2.7373                 4.6796
 IR Inten    --      1.2053                 1.2063                11.8876

                      4                      5                      6
                     A1                      E                      E
 Frequencies --   1076.8757              1236.3238              1236.3308
 Red. masses --     14.4393                13.3185                13.3185
 Frc consts  --      9.8657                11.9942                11.9943
 IR Inten    --     36.6158               356.8153               356.7486

 - Thermochemistry -
 -------------------
 Temperature   298.150 Kelvin.  Pressure   1.00000 Atm.
 Atom     1 has atomic number  6 and mass  12.00000

 Molecular mass:    68.99521 amu.
 Principal axes and moments of inertia in atomic units:
                           1         2         3
     Eigenvalues --   166.44778 166.44778 321.78166
           X           -0.38361   0.92350   0.00000
           Y            0.92350   0.38361   0.00000
           Z           -0.00000   0.00000   1.00000
 This molecule is an oblate symmetric top.
 Rotational symmetry number  3.
 Rotational temperatures (Kelvin)      0.52037     0.52037     0.26917
 Rotational constants (GHZ):          10.84269    10.84269     5.60859
 Zero-point vibrational energy      31437.5 (Joules/Mol)
                                    7.51374 (Kcal/Mol)
 Warning -- explicit consideration of   2 degrees of freedom as
           vibrations may cause significant error
 Vibrational temperatures:    725.29   725.30  1004.54  1549.38  1778.79
          (Kelvin)           1778.80

 Zero-point correction=                           0.011974 (Hartree/Particle)
 Thermal correction to Energy=                    0.015418
 Thermal correction to Enthalpy=                  0.016362
 Thermal correction to Gibbs Free Energy=        -0.013691
 Sum of electronic and zero-point Energies=           -337.681225
 Sum of electronic and thermal Energies=              -337.677780
 Sum of electronic and thermal Enthalpies=            -337.676836
 Sum of electronic and thermal Free Energies=         -337.706890

                     E (Thermal)             CV                S
                      KCal/Mol        Cal/Mol-Kelvin    Cal/Mol-Kelvin
 Total                    9.675              9.941             63.254
 Electronic               0.000              0.000              1.377
 Translational            0.889              2.981             38.612
 Rotational               0.889              2.981             21.521
 Vibrational              7.898              3.979              1.744
 Vibration     1          0.859              1.241              0.648
 Vibration     2          0.859              1.241              0.648

 Optimization completed.
    -- Stationary point found.
 Normal termination of Gaussian 09 at Sun Jun 19 04:35:14 2016.
