 Gaussian 09, Revision E.01,
 Gaussian 09:  EM64L-G09RevE.01 30-Nov-2015

 ---------------------------------------------
 #p b3lyp/6-311++G(3df,2p) freq symmetry=Loose
 ---------------------------------------------

 ---------
 b3lyp opt
 ---------
 Symbolic Z-matrix:
 Charge =  0 Multiplicity = 1

                         Standard orientation:
 ---------------------------------------------------------------------
 Center     Atomic      Atomic             Coordinates (Angstroms)
 Number     Number       Type             X           Y           Z
 ---------------------------------------------------------------------
      1          6           0        0.000000    0.000000    0.000000
      2          9           0        0.764511    0.764511    0.764511
      3          9           0       -0.764511   -0.764511    0.764511
      4          9           0        0.764511   -0.764511   -0.764511
      5          9           0       -0.764511    0.764511   -0.764511
 ---------------------------------------------------------------------

 SCF Done:  E(RB3LYP) =  -437.656155392     A.U. after    8 cycles

 The electronic state is 1-A1.
 Alpha  occ. eigenvalues --  -24.75293 -24.75293 -24.75293 -24.75291 -10.52509
 Alpha  occ. eigenvalues --   -1.39295  -1.27878  -1.27878  -1.27878  -0.75022
 Alpha  occ. eigenvalues --   -0.65834  -0.65834  -0.65834  -0.52465  -0.52465
 Alpha  occ. eigenvalues --   -0.49891  -0.49891  -0.49891  -0.45535  -0.45535
 Alpha  occ. eigenvalues --   -0.45535
 Alpha virt. eigenvalues --    0.00745   0.04866   0.04866   0.04866   0.14846
 Alpha virt. eigenvalues --    0.14846   0.14846   0.17989   0.19469   0.19469
 Alpha virt. eigenvalues --    0.22105   0.22105   0.22105   0.23547   0.29972

 Mulliken charges:
               1
     1  C    1.654974
     2  F   -0.413743
     3  F   -0.413743
     4  F   -0.413743
     5  F   -0.413743
 Sum of Mulliken charges =   0.00000

 Dipole moment (field-independent basis, Debye):
    X=              0.0000    Y=             -0.0000    Z=              0.0000  Tot=              0.0000
 Quadrupole moment (field-independent basis, Debye-Ang):
   XX=            -25.7323   YY=            -25.7323   ZZ=            -25.7323
   XY=              0.0000   XZ=             -0.0000   YZ=             -0.0000

  Exact polarizability:  18.950  -0.000  18.950   0.000  -0.000  18.950
 Approx polarizability:  24.259   0.000  24.259   0.000   0.000  24.259

                      1                      2                      3
                      E                      E                     T2
 Frequencies --    427.4255               427.4255               621.1963
 Red. masses --     18.9984                18.9984                18.2220
 Frc consts  --      2.0450                 2.0450                 4.1429
 IR Inten    --      0.0000                 0.0000                 3.0895

                      4                      5                      6
                     T2                     T2                     A1
 Frequencies --    621.1963               621.1963               902.2349
 Red. masses --     18.2220                18.2220                18.9984
 Frc consts  --      4.1429                 4.1429                 9.1118
 IR Inten    --      3.0895                 3.0895                 0.0000

                      7                      8                      9
                     T2                     T2                     T2
 Frequencies --   1242.9772              1242.9772              1242.9772
 Red. masses --     13.0031                13.0031                13.0031
 Frc consts  --     11.8365                11.8365                11.8365
 IR Inten    --    409.8028               409.8028               409.8028

 - Thermochemistry -
 -------------------
 Temperature   298.150 Kelvin.  Pressure   1.00000 Atm.
 Atom     1 has atomic number  6 and mass  12.00000

 Molecular mass:    87.99361 amu.
 Principal axes and moments of inertia in atomic units:
                           1         2         3
     Eigenvalues --   317.22834 317.22834 317.22834
           X            0.18802   0.87790  -0.44040
           Y           -0.34470   0.47885   0.80739
           Z            0.91969   0.00000   0.39264
 This molecule is a spherical top.
 Rotational symmetry number 12.
 Rotational temperatures (Kelvin)      0.27303     0.27303     0.27303
 Rotational constants (GHZ):           5.68909     5.68909     5.68909
 Zero-point vibrational energy      43960.4 (Joules/Mol)
                                   10.50679 (Kcal/Mol)
 Warning -- explicit consideration of   2 degrees of freedom as
           vibrations may cause significant error
 Vibrational temperatures:    614.97   614.97   893.76   893.76   893.76
          (Kelvin)           1298.11  1788.36  1788.36  1788.36

 Zero-point correction=                           0.016744 (Hartree/Particle)
 Thermal correction to Energy=                    0.020685
 Thermal correction to Enthalpy=                  0.021629
 Thermal correction to Gibbs Free Energy=        -0.008109
 Sum of electronic and zero-point Energies=           -437.639412
 Sum of electronic and thermal Energies=              -437.635470
 Sum of electronic and thermal Enthalpies=            -437.634526
 Sum of electronic and thermal Free Energies=         -437.664265

                     E (Thermal)             CV                S
                      KCal/Mol        Cal/Mol-Kelvin    Cal/Mol-Kelvin
 Total                   12.980             12.777             62.590
 Electronic               0.000              0.000              0.000
 Translational            0.889              2.981             39.337
 Rotational               0.889              2.981             20.033
 Vibrational             11.203              6.815              3.220
 Vibration     1          0.789              1.411              0.867
 Vibration     2          0.789              1.411              0.867

 Optimization completed.
    -- Stationary point found.
 Normal termination of Gaussian 09 at Sat Jul  2 15:21:31 2016.
