 Gaussian 09, Revision E.01,
 Gaussian 09:  EM64L-G09RevE.01 30-Nov-2015

 ---------------------------------------------
 #p b3lyp/6-311++G(3df,2p) freq symmetry=Loose
 ---------------------------------------------

 ---------
 b3lyp opt
 ---------
 Symbolic Z-matrix:
 Charge =  1 Multiplicity = 2

                         Standard orientation:
 ---------------------------------------------------------------------
 Center     Atomic      Atomic             Coordinates (Angstroms)
 Number     Number       Type             X           Y           Z
 ---------------------------------------------------------------------
      1          6           0        0.000000    0.000000    0.000000
      2          9           0        0.764511    0.764511    0.764511
      3          9           0       -0.764511   -0.764511    0.764511
      4          9           0        0.764511   -0.764511   -0.764511
      5          9           0       -0.764511    0.764511   -0.764511
 ---------------------------------------------------------------------

 SCF Done:  E(UB3LYP) =  -437.086081661     A.U. after   10 cycles

 Unable to determine electronic state:  an orbital has unidentified symmetry.
 Alpha  occ. eigenvalues --  -25.10665 -25.10665 -25.10665 -25.10663 -10.84440
 Alpha  occ. eigenvalues --   -1.72509  -1.61388  -1.61388  -1.61358  -1.06804
 Alpha  occ. eigenvalues --   -0.98083  -0.98083  -0.97622  -0.86817  -0.84407
 Alpha  occ. eigenvalues --   -0.83308  -0.83308  -0.81859  -0.80458  -0.78311
 Alpha  occ. eigenvalues --   -0.78311
 Alpha virt. eigenvalues --   -0.20044  -0.16253  -0.16253  -0.15935  -0.11286
 Alpha virt. eigenvalues --   -0.11286  -0.11266  -0.11191  -0.00606  -0.00284
 Alpha virt. eigenvalues --    0.00761   0.00761   0.00884   0.03024   0.10574

  Beta  occ. eigenvalues --  -25.09762 -25.09761 -25.09761 -25.09760 -10.84520
  Beta  occ. eigenvalues --   -1.70906  -1.59224  -1.59224  -1.59210  -1.05855
  Beta  occ. eigenvalues --   -0.96897  -0.96503  -0.96503  -0.83626  -0.81054
  Beta  occ. eigenvalues --   -0.80521  -0.79719  -0.79719  -0.75606  -0.75606
  Beta virt. eigenvalues --   -0.68626  -0.19714  -0.15671  -0.15395  -0.15395
  Beta virt. eigenvalues --   -0.11206  -0.11206  -0.11130  -0.10886  -0.00196
  Beta virt. eigenvalues --   -0.00110   0.01001   0.01112   0.01112   0.03075

 Mulliken charges and spin densities:
               1          2
     1  C    1.686348  -0.066272
     2  F   -0.171587   0.266568
     3  F   -0.171587   0.266568
     4  F   -0.171587   0.266568
     5  F   -0.171587   0.266568
 Sum of Mulliken charges =   1.00000   1.00000

 Dipole moment (field-independent basis, Debye):
    X=              0.0000    Y=             -0.0000    Z=              0.0000  Tot=              0.0000
 Quadrupole moment (field-independent basis, Debye-Ang):
   XX=            -20.5868   YY=            -20.3723   ZZ=            -20.3723
   XY=             -0.0000   XZ=             -0.0000   YZ=             -0.0000

  Exact polarizability:  28.601   0.000  43.390   0.000   0.000  43.390
 Approx polarizability:  54.169   0.000  62.310   0.000  -0.000  62.310

 ******    2 imaginary frequencies (negative Signs) ******

                      1                      2                      3
                     ?A                     ?A                     T2
 Frequencies --   -836.3136              -836.3136               320.6185
 Red. masses --     12.7110                12.7110                18.9984
 Frc consts  --      5.2380                 5.2380                 1.1507
 IR Inten    --    755.1677               755.1675                 0.0000

                      4                      5                      6
                     T2                     ?A                     ?A
 Frequencies --    387.0467               553.4465               654.7739
 Red. masses --     18.9984                15.7209                18.8284
 Frc consts  --      1.6768                 2.8371                 4.7561
 IR Inten    --      0.0000                 0.0129                35.9547

                      7                      8                      9
                     ?A                     ?A                     T2
 Frequencies --    654.7739               760.7954               881.9147
 Red. masses --     18.8284                14.6684                18.9984
 Frc consts  --      4.7561                 5.0023                 8.7060
 IR Inten    --     35.9547                15.4480                 0.0000

 - Thermochemistry -
 -------------------
 Temperature   298.150 Kelvin.  Pressure   1.00000 Atm.
 Atom     1 has atomic number  6 and mass  12.00000

 Molecular mass:    87.99361 amu.
 Principal axes and moments of inertia in atomic units:
                           1         2         3
     Eigenvalues --   317.22834 317.22834 317.22834
           X            0.18802   0.87790  -0.44040
           Y           -0.34470   0.47885   0.80739
           Z            0.91969   0.00000   0.39264
 This molecule is a spherical top.
 Rotational symmetry number 12.
 Rotational temperatures (Kelvin)      0.27303     0.27303     0.27303
 Rotational constants (GHZ):           5.68909     5.68909     5.68909
    2 imaginary frequencies ignored.
 Zero-point vibrational energy      25201.5 (Joules/Mol)
                                    6.02331 (Kcal/Mol)
 Warning -- explicit consideration of   3 degrees of freedom as
           vibrations may cause significant error
 Vibrational temperatures:    461.30   556.87   796.29   942.07   942.07
          (Kelvin)           1094.61  1268.88

 Zero-point correction=                           0.009599 (Hartree/Particle)
 Thermal correction to Energy=                    0.013749
 Thermal correction to Enthalpy=                  0.014693
 Thermal correction to Gibbs Free Energy=        -0.016059
 Sum of electronic and zero-point Energies=           -437.076483
 Sum of electronic and thermal Energies=              -437.072333
 Sum of electronic and thermal Enthalpies=            -437.071389
 Sum of electronic and thermal Free Energies=         -437.102141

                     E (Thermal)             CV                S
                      KCal/Mol        Cal/Mol-Kelvin    Cal/Mol-Kelvin
 Total                    8.627             13.305             64.724
 Electronic               0.000              0.000              1.377
 Translational            0.889              2.981             39.337
 Rotational               0.889              2.981             20.033
 Vibrational              6.850              7.343              3.976
 Vibration     1          0.706              1.634              1.307
 Vibration     2          0.755              1.498              1.012
 Vibration     3          0.909              1.132              0.537

 Normal termination of Gaussian 09 at Sat Jul  2 15:26:47 2016.
