 Gaussian 09, Revision E.01,
 Gaussian 09:  EM64L-G09RevE.01 30-Nov-2015

 ---------------------------------------------
 #p b3lyp/6-311++G(3df,2p) freq symmetry=Loose
 ---------------------------------------------

 ---------
 b3lyp opt
 ---------
 Symbolic Z-matrix:
 Charge =  0 Multiplicity = 4

                         Standard orientation:
 ---------------------------------------------------------------------
 Center     Atomic      Atomic             Coordinates (Angstroms)
 Number     Number       Type             X           Y           Z
 ---------------------------------------------------------------------
      1          6           0        0.000000    0.000000   -0.726829
      2          7           0        0.000000    0.000000    0.622997
 ---------------------------------------------------------------------

 SCF Done:  E(UB3LYP) =  -92.5256410754     A.U. after   13 cycles

 Unable to determine electronic state:  an orbital has unidentified symmetry.
 Alpha  occ. eigenvalues --  -14.42924 -10.32656  -0.94856  -0.56105  -0.42068
 Alpha  occ. eigenvalues --   -0.41891  -0.40534  -0.18164
 Alpha virt. eigenvalues --   -0.11808   0.02008   0.04817   0.06142   0.06149
 Alpha virt. eigenvalues --    0.12796   0.14975   0.15191   0.20592   0.27125
 Alpha virt. eigenvalues --    0.30213   0.30410   0.41800   0.42245   0.45756

  Beta  occ. eigenvalues --  -14.40057 -10.29810  -0.86203  -0.44424  -0.32390
  Beta virt. eigenvalues --   -0.25034  -0.23945  -0.02421  -0.02308   0.03006
  Beta virt. eigenvalues --    0.05571   0.07057   0.07207   0.13201   0.16246
  Beta virt. eigenvalues --    0.16366   0.22143   0.32111   0.32181   0.32750

 Mulliken charges and spin densities:
               1          2
     1  C    0.248117   1.714786
     2  N   -0.248117   1.285214
 Sum of Mulliken charges =   0.00000   3.00000

 Dipole moment (field-independent basis, Debye):
    X=              0.0000    Y=              0.0000    Z=             -0.8571  Tot=              0.8571
 Quadrupole moment (field-independent basis, Debye-Ang):
   XX=             -9.9227   YY=            -13.3879   ZZ=            -11.7874
   XY=              0.0000   XZ=              0.0000   YZ=              0.0000

  Exact polarizability:  13.088  -0.000 -52.363  -0.000  -0.000  31.486
 Approx polarizability:  18.206  -0.000  22.654  -0.000  -0.000  56.767

                      1
                     SG
 Frequencies --   1338.4563
 Red. masses --     12.8481
 Frc consts  --     13.5612
 IR Inten    --      4.0371

 - Thermochemistry -
 -------------------
 Temperature   298.150 Kelvin.  Pressure   1.00000 Atm.
 Atom     1 has atomic number  6 and mass  12.00000

 Molecular mass:    26.00307 amu.
 Principal axes and moments of inertia in atomic units:
                           1         2         3
     Eigenvalues --     0.00000  42.04683  42.04683
           X            0.00000  -0.00000   1.00000
           Y            0.00000   1.00000   0.00000
           Z            1.00000   0.00000   0.00000
 This molecule is a prolate symmetric top.
 Rotational symmetry number  1.
 Rotational temperature (Kelvin)      2.05994
 Rotational constant (GHZ):          42.922171
 Zero-point vibrational energy       8005.7 (Joules/Mol)
                                    1.91342 (Kcal/Mol)
 Vibrational temperatures:   1925.74
          (Kelvin)

 Zero-point correction=                           0.003049 (Hartree/Particle)
 Thermal correction to Energy=                    0.005419
 Thermal correction to Enthalpy=                  0.006363
 Thermal correction to Gibbs Free Energy=        -0.017562
 Sum of electronic and zero-point Energies=            -92.522592
 Sum of electronic and thermal Energies=               -92.520222
 Sum of electronic and thermal Enthalpies=             -92.519278
 Sum of electronic and thermal Free Energies=          -92.543203

                     E (Thermal)             CV                S
                      KCal/Mol        Cal/Mol-Kelvin    Cal/Mol-Kelvin
 Total                    3.401              5.098             50.355
 Electronic               0.000              0.000              2.755
 Translational            0.889              2.981             35.703
 Rotational               0.592              1.987             11.873
 Vibrational              1.919              0.130              0.023

 Normal termination of Gaussian 09 at Tue Aug 16 17:37:07 2016.
