 Gaussian 09, Revision E.01,
 Gaussian 09:  EM64L-G09RevE.01 30-Nov-2015

 ---------------------------------------------
 #p b3lyp/6-311++G(3df,2p) freq symmetry=Loose
 ---------------------------------------------

 ---------
 b3lyp opt
 ---------
 Symbolic Z-matrix:
 Charge =  0 Multiplicity = 2

                         Standard orientation:
 ---------------------------------------------------------------------
 Center     Atomic      Atomic             Coordinates (Angstroms)
 Number     Number       Type             X           Y           Z
 ---------------------------------------------------------------------
      1          9           0        0.000000    0.000000    0.000000
 ---------------------------------------------------------------------

 SCF Done:  E(UB3LYP) =  -99.7616809587     A.U. after    9 cycles

 Unable to determine electronic state:  an orbital has unidentified symmetry.
 Alpha  occ. eigenvalues --  -24.78966  -1.23994  -0.57175  -0.48371  -0.48371
 Alpha virt. eigenvalues --    0.11194   0.18048   0.18995   0.18995   0.99943
 Alpha virt. eigenvalues --    1.00844   1.00844   1.03588   1.03588   1.17145
 Alpha virt. eigenvalues --    1.21595   1.21595   1.48290   4.36790   4.38863

  Beta  occ. eigenvalues --  -24.75786  -1.14855  -0.45259  -0.45259
  Beta virt. eigenvalues --   -0.27885   0.11954   0.19266   0.19266   0.20485
  Beta virt. eigenvalues --    1.03766   1.03766   1.03881   1.03881   1.04381
  Beta virt. eigenvalues --    1.22922   1.22922   1.25652   1.52228   4.46823

 Mulliken charges and spin densities:
               1          2
     1  F    0.000000   1.000000
 Sum of Mulliken charges =   0.00000   1.00000

 Dipole moment (field-independent basis, Debye):
    X=              0.0000    Y=              0.0000    Z=              0.0000  Tot=              0.0000
 Quadrupole moment (field-independent basis, Debye-Ang):
   XX=             -5.0707   YY=             -4.1331   ZZ=             -5.0707
   XY=             -0.0000   XZ=              0.0000   YZ=              0.0000

  Exact polarizability:   3.213  -0.000   2.800  -0.000  -0.000   3.213
 Approx polarizability:   3.414  -0.000   3.311  -0.000  -0.000   3.414

 - Thermochemistry -
 -------------------
 Temperature   298.150 Kelvin.  Pressure   1.00000 Atm.
 Atom     1 has atomic number  9 and mass  18.99840
 Molecular mass:    18.99840 amu.
 Zero-point vibrational energy          0.0 (Joules/Mol)
                                    0.00000 (Kcal/Mol)
 Vibrational temperatures:
          (Kelvin)

 Zero-point correction=                           0.000000 (Hartree/Particle)
 Thermal correction to Energy=                    0.001416
 Thermal correction to Enthalpy=                  0.002360
 Thermal correction to Gibbs Free Energy=        -0.014813
 Sum of electronic and zero-point Energies=            -99.761681
 Sum of electronic and thermal Energies=               -99.760265
 Sum of electronic and thermal Enthalpies=             -99.759320
 Sum of electronic and thermal Free Energies=          -99.776494

                     E (Thermal)             CV                S
                      KCal/Mol        Cal/Mol-Kelvin    Cal/Mol-Kelvin
 Total                    0.889              2.981             36.145
 Electronic               0.000              0.000              1.377
 Translational            0.889              2.981             34.767
 Rotational               0.000              0.000              0.000
 Vibrational              0.000              0.000              0.000

 Optimization completed.
    -- Stationary point found.
 Normal termination of Gaussian 09 at Sun Jun 19 04:39:24 2016.
