 Gaussian 09, Revision E.01,
 Gaussian 09:  EM64L-G09RevE.01 30-Nov-2015

 ---------------------------------------------
 #p b3lyp/6-311++G(3df,2p) freq symmetry=Loose
 ---------------------------------------------

 ---------
 b3lyp opt
 ---------
 Symbolic Z-matrix:
 Charge =  1 Multiplicity = 3

                         Standard orientation:
 ---------------------------------------------------------------------
 Center     Atomic      Atomic             Coordinates (Angstroms)
 Number     Number       Type             X           Y           Z
 ---------------------------------------------------------------------
      1          9           0        0.000000    0.000000    0.000000
 ---------------------------------------------------------------------

 SCF Done:  E(UB3LYP) =  -99.1088822415     A.U. after   10 cycles

 Unable to determine electronic state:  an orbital has unidentified symmetry.
 Alpha  occ. eigenvalues --  -25.55798  -1.92043  -1.21961  -1.21961  -1.12191
 Alpha virt. eigenvalues --   -0.21150  -0.10875  -0.10875  -0.10061   0.53183
 Alpha virt. eigenvalues --    0.53183   0.55788   0.55788   0.56711   0.71711
 Alpha virt. eigenvalues --    0.71711   0.75638   0.97416   3.70894   3.70894

  Beta  occ. eigenvalues --  -25.48810  -1.72601  -1.05577
  Beta virt. eigenvalues --   -0.85795  -0.85795  -0.19559  -0.09656  -0.08496
  Beta virt. eigenvalues --   -0.08496   0.58817   0.58817   0.59126   0.59335
  Beta virt. eigenvalues --    0.59336   0.77788   0.80354   0.80354   1.04806

 Mulliken charges and spin densities:
               1          2
     1  F    1.000000   2.000000
 Sum of Mulliken charges =   1.00000   2.00000

 Dipole moment (field-independent basis, Debye):
    X=              0.0000    Y=              0.0000    Z=              0.0000  Tot=              0.0000
 Quadrupole moment (field-independent basis, Debye-Ang):
   XX=             -3.7312   YY=             -3.0233   ZZ=             -3.0233
   XY=             -0.0000   XZ=              0.0000   YZ=              0.0000

  Exact polarizability:   1.648   0.000   1.808  -0.000  -0.000   1.808
 Approx polarizability:   1.708  -0.000   2.102  -0.000  -0.000   2.102

 - Thermochemistry -
 -------------------
 Temperature   298.150 Kelvin.  Pressure   1.00000 Atm.
 Atom     1 has atomic number  9 and mass  18.99840
 Molecular mass:    18.99840 amu.
 Zero-point vibrational energy          0.0 (Joules/Mol)
                                    0.00000 (Kcal/Mol)
 Vibrational temperatures:
          (Kelvin)

 Zero-point correction=                           0.000000 (Hartree/Particle)
 Thermal correction to Energy=                    0.001416
 Thermal correction to Enthalpy=                  0.002360
 Thermal correction to Gibbs Free Energy=        -0.015196
 Sum of electronic and zero-point Energies=            -99.108882
 Sum of electronic and thermal Energies=               -99.107466
 Sum of electronic and thermal Enthalpies=             -99.106522
 Sum of electronic and thermal Free Energies=          -99.124078

                     E (Thermal)             CV                S
                      KCal/Mol        Cal/Mol-Kelvin    Cal/Mol-Kelvin
 Total                    0.889              2.981             36.951
 Electronic               0.000              0.000              2.183
 Translational            0.889              2.981             34.767
 Rotational               0.000              0.000              0.000
 Vibrational              0.000              0.000              0.000

 Optimization completed.
    -- Stationary point found.
 Normal termination of Gaussian 09 at Sun Jun 19 04:39:24 2016.
