 Gaussian 09, Revision E.01,
 Gaussian 09:  EM64L-G09RevE.01 30-Nov-2015

 ---------------------------------------------
 #p b3lyp/6-311++G(3df,2p) freq symmetry=Loose
 ---------------------------------------------

 ---------
 b3lyp opt
 ---------
 Symbolic Z-matrix:
 Charge =  0 Multiplicity = 1

                         Standard orientation:
 ---------------------------------------------------------------------
 Center     Atomic      Atomic             Coordinates (Angstroms)
 Number     Number       Type             X           Y           Z
 ---------------------------------------------------------------------
      1          9           0        0.000000    0.000000    0.697367
      2          9           0        0.000000    0.000000   -0.697367
 ---------------------------------------------------------------------

 SCF Done:  E(RB3LYP) =  -199.581116226     A.U. after    9 cycles

 The electronic state is 1-SGG.
 Alpha  occ. eigenvalues --  -24.79760 -24.79758  -1.36830  -1.11678  -0.61891
 Alpha  occ. eigenvalues --   -0.55621  -0.55621  -0.42216  -0.42216
 Alpha virt. eigenvalues --   -0.15715   0.10759   0.15577   0.17801   0.17801
 Alpha virt. eigenvalues --    0.25330   0.25667   0.25667   0.41268   0.90089
 Alpha virt. eigenvalues --    0.90098   0.96920   0.96920   1.16530   1.17758

 Mulliken charges:
               1
     1  F   -0.000000
     2  F   -0.000000
 Sum of Mulliken charges =  -0.00000

 Dipole moment (field-independent basis, Debye):
    X=             -0.0000    Y=             -0.0000    Z=              0.0000  Tot=              0.0000
 Quadrupole moment (field-independent basis, Debye-Ang):
   XX=             -9.7547   YY=             -9.7547   ZZ=             -8.8628
   XY=              0.0000   XZ=              0.0000   YZ=              0.0000

  Exact polarizability:   5.523   0.000   5.523   0.000  -0.000  11.914
 Approx polarizability:   6.401  -0.000   6.401  -0.000  -0.000  20.207

                      1
                     SGG
 Frequencies --   1038.5395
 Red. masses --     18.9984
 Frc consts  --     12.0729
 IR Inten    --      0.0000

 - Thermochemistry -
 -------------------
 Temperature   298.150 Kelvin.  Pressure   1.00000 Atm.
 Atom     1 has atomic number  9 and mass  18.99840

 Molecular mass:    37.99681 amu.
 Principal axes and moments of inertia in atomic units:
                           1         2         3
     Eigenvalues --     0.00000  65.98840  65.98840
           X           -0.00000   1.00000  -0.00000
           Y            0.00000   0.00000   1.00000
           Z            1.00000   0.00000  -0.00000
 This molecule is a prolate symmetric top.
 Rotational symmetry number  2.
 Rotational temperature (Kelvin)      1.31256
 Rotational constant (GHZ):          27.349369
 Zero-point vibrational energy       6211.8 (Joules/Mol)
                                    1.48467 (Kcal/Mol)
 Vibrational temperatures:   1494.22
          (Kelvin)

 Zero-point correction=                           0.002366 (Hartree/Particle)
 Thermal correction to Energy=                    0.004758
 Thermal correction to Enthalpy=                  0.005702
 Thermal correction to Gibbs Free Energy=        -0.017249
 Sum of electronic and zero-point Energies=           -199.578750
 Sum of electronic and thermal Energies=              -199.576358
 Sum of electronic and thermal Enthalpies=            -199.575414
 Sum of electronic and thermal Free Energies=         -199.598365

                     E (Thermal)             CV                S
                      KCal/Mol        Cal/Mol-Kelvin    Cal/Mol-Kelvin
 Total                    2.986              5.305             48.305
 Electronic               0.000              0.000              0.000
 Translational            0.889              2.981             36.834
 Rotational               0.592              1.987             11.392
 Vibrational              1.505              0.337              0.080

 Optimization completed.
    -- Stationary point found.
 Normal termination of Gaussian 09 at Sun Jun 19 04:39:10 2016.
