 Gaussian 09, Revision E.01,
 Gaussian 09:  EM64L-G09RevE.01 30-Nov-2015

 ---------------------------------------------
 #p b3lyp/6-311++G(3df,2p) freq symmetry=Loose
 ---------------------------------------------

 ---------
 b3lyp opt
 ---------
 Symbolic Z-matrix:
 Charge =  1 Multiplicity = 2

                         Standard orientation:
 ---------------------------------------------------------------------
 Center     Atomic      Atomic             Coordinates (Angstroms)
 Number     Number       Type             X           Y           Z
 ---------------------------------------------------------------------
      1          9           0        0.000000    0.000000    0.645307
      2          9           0        0.000000    0.000000   -0.645307
 ---------------------------------------------------------------------

 SCF Done:  E(UB3LYP) =  -199.004883581     A.U. after   10 cycles

 Unable to determine electronic state:  partially filled degenerate orbitals.
 Alpha  occ. eigenvalues --  -25.35113 -25.35109  -1.94074  -1.59447  -1.12667
 Alpha  occ. eigenvalues --   -1.10925  -1.05946  -0.94402  -0.88938
 Alpha virt. eigenvalues --   -0.56466  -0.17563  -0.09582  -0.09000  -0.08767
 Alpha virt. eigenvalues --   -0.00710   0.01384   0.01891   0.17081   0.49533
 Alpha virt. eigenvalues --    0.49543   0.59005   0.61121   0.78817   0.78960

  Beta  occ. eigenvalues --  -25.33230 -25.33220  -1.90263  -1.54191  -1.10631
  Beta  occ. eigenvalues --   -1.04378  -0.99258  -0.87058
  Beta virt. eigenvalues --   -0.73627  -0.54123  -0.17233  -0.08720  -0.08616
  Beta virt. eigenvalues --   -0.08528  -0.00665   0.02005   0.02267   0.17363
  Beta virt. eigenvalues --    0.50553   0.50605   0.60938   0.61203   0.79388

 Mulliken charges and spin densities:
               1          2
     1  F    0.500000   0.500000
     2  F    0.500000   0.500000
 Sum of Mulliken charges =   1.00000   1.00000

 Dipole moment (field-independent basis, Debye):
    X=              0.0000    Y=             -0.0000    Z=             -0.0000  Tot=              0.0000
 Quadrupole moment (field-independent basis, Debye-Ang):
   XX=             -8.2164   YY=             -7.5976   ZZ=             -4.9935
   XY=              0.0000   XZ=             -0.0000   YZ=              0.0000

  Exact polarizability:   3.784   0.000   3.936  -0.000  -0.000  10.789
 Approx polarizability:   4.369  -0.000   4.845  -0.000  -0.000  24.336

                      1
                     SGG
 Frequencies --   1233.6131
 Red. masses --     18.9984
 Frc consts  --     17.0343
 IR Inten    --      0.0000

 - Thermochemistry -
 -------------------
 Temperature   298.150 Kelvin.  Pressure   1.00000 Atm.
 Atom     1 has atomic number  9 and mass  18.99840

 Molecular mass:    37.99681 amu.
 Principal axes and moments of inertia in atomic units:
                           1         2         3
     Eigenvalues --     0.00000  56.50379  56.50379
           X           -0.00000   1.00000  -0.00000
           Y            0.00000   0.00000   1.00000
           Z            1.00000   0.00000  -0.00000
 This molecule is a prolate symmetric top.
 Rotational symmetry number  2.
 Rotational temperature (Kelvin)      1.53289
 Rotational constant (GHZ):          31.940179
 Zero-point vibrational energy       7378.6 (Joules/Mol)
                                    1.76354 (Kcal/Mol)
 Vibrational temperatures:   1774.89
          (Kelvin)

 Zero-point correction=                           0.002810 (Hartree/Particle)
 Thermal correction to Energy=                    0.005185
 Thermal correction to Enthalpy=                  0.006130
 Thermal correction to Gibbs Free Energy=        -0.017309
 Sum of electronic and zero-point Energies=           -199.002073
 Sum of electronic and thermal Energies=              -198.999698
 Sum of electronic and thermal Enthalpies=            -198.998754
 Sum of electronic and thermal Free Energies=         -199.022192

                     E (Thermal)             CV                S
                      KCal/Mol        Cal/Mol-Kelvin    Cal/Mol-Kelvin
 Total                    3.254              5.152             49.330
 Electronic               0.000              0.000              1.377
 Translational            0.889              2.981             36.834
 Rotational               0.592              1.987             11.083
 Vibrational              1.773              0.184              0.036

 Optimization completed.
    -- Stationary point found.
 Normal termination of Gaussian 09 at Sun Jun 19 04:39:11 2016.
