 Gaussian 09, Revision E.01,
 Gaussian 09:  EM64L-G09RevE.01 30-Nov-2015

 ---------------------------------------------
 #p b3lyp/6-311++G(3df,2p) freq symmetry=Loose
 ---------------------------------------------

 ---------
 b3lyp opt
 ---------
 Symbolic Z-matrix:
 Charge =  0 Multiplicity = 4

                         Standard orientation:
 ---------------------------------------------------------------------
 Center     Atomic      Atomic             Coordinates (Angstroms)
 Number     Number       Type             X           Y           Z
 ---------------------------------------------------------------------
      1          9           0        0.000000   -0.941084   -0.543996
      2          9           0        0.000000    0.941084   -0.543996
      3          9           0        0.000000    0.000000    1.087993
 ---------------------------------------------------------------------

 SCF Done:  E(UB3LYP) =  -299.308792371     A.U. after   16 cycles

 The electronic state is 4-A1.
 Alpha  occ. eigenvalues --  -24.80704 -24.80702 -24.80695  -1.31153  -1.23232
 Alpha  occ. eigenvalues --   -1.23220  -0.63618  -0.58083  -0.58052  -0.53086
 Alpha  occ. eigenvalues --   -0.47768  -0.47763  -0.47695  -0.47670  -0.47641
 Alpha virt. eigenvalues --    0.09388   0.13067   0.13071   0.16750   0.22488
 Alpha virt. eigenvalues --    0.22488   0.24366   0.24374   0.28412   0.31592
 Alpha virt. eigenvalues --    0.41955   0.41964   0.79638   0.81900   0.92320

  Beta  occ. eigenvalues --  -24.77013 -24.77012 -24.77007  -1.22247  -1.13584
  Beta  occ. eigenvalues --   -1.13570  -0.49934  -0.49241  -0.45756  -0.45738
  Beta  occ. eigenvalues --   -0.44268  -0.44261
  Beta virt. eigenvalues --   -0.28618  -0.25169  -0.25154   0.10170   0.14449
  Beta virt. eigenvalues --    0.14451   0.17190   0.23616   0.23616   0.24673
  Beta virt. eigenvalues --    0.24679   0.29397   0.32502   0.42456   0.42465

 Mulliken charges and spin densities:
               1          2
     1  F    0.000079   1.000077
     2  F    0.000079   1.000077
     3  F   -0.000157   0.999847
 Sum of Mulliken charges =   0.00000   3.00000

 Dipole moment (field-independent basis, Debye):
    X=              0.0000    Y=              0.0000    Z=             -0.0011  Tot=              0.0011
 Quadrupole moment (field-independent basis, Debye-Ang):
   XX=            -15.0000   YY=            -13.8098   ZZ=            -13.8076
   XY=              0.0000   XZ=             -0.0000   YZ=             -0.0000

  Exact polarizability:   9.068   0.000  27.155   0.000  -0.000  27.201
 Approx polarizability:  10.630   0.000  56.099  -0.000   0.000  56.247

                      1                      2                      3
                     B2                     A1                     A1
 Frequencies --    369.0353               370.7586               580.9947
 Red. masses --     18.9984                18.9984                18.9984
 Frc consts  --      1.5244                 1.5387                 3.7784
 IR Inten    --      1.9081                 1.9186                 0.0000

 - Thermochemistry -
 -------------------
 Temperature   298.150 Kelvin.  Pressure   1.00000 Atm.
 Atom     1 has atomic number  9 and mass  18.99840

 Molecular mass:    56.99521 amu.
 Principal axes and moments of inertia in atomic units:
                           1         2         3
     Eigenvalues --   120.17163 120.46421 240.63584
           X            0.00000  -0.00000   1.00000
           Y            0.00000   1.00000   0.00000
           Z            1.00000   0.00000   0.00000
 This molecule is an asymmetric top.
 Rotational symmetry number  2.
 Rotational temperatures (Kelvin)      0.72075     0.71900     0.35994
 Rotational constants (GHZ):          15.01803    14.98156     7.49989
 Zero-point vibrational energy       7900.1 (Joules/Mol)
                                    1.88816 (Kcal/Mol)
 Warning -- explicit consideration of   3 degrees of freedom as
           vibrations may cause significant error
 Vibrational temperatures:    530.96   533.44   835.92
          (Kelvin)

 Zero-point correction=                           0.003009 (Hartree/Particle)
 Thermal correction to Energy=                    0.006692
 Thermal correction to Enthalpy=                  0.007636
 Thermal correction to Gibbs Free Energy=        -0.023169
 Sum of electronic and zero-point Energies=           -299.305783
 Sum of electronic and thermal Energies=              -299.302100
 Sum of electronic and thermal Enthalpies=            -299.301156
 Sum of electronic and thermal Free Energies=         -299.331961

                     E (Thermal)             CV                S
                      KCal/Mol        Cal/Mol-Kelvin    Cal/Mol-Kelvin
 Total                    4.199             10.102             64.834
 Electronic               0.000              0.000              2.755
 Translational            0.889              2.981             38.042
 Rotational               0.889              2.981             21.393
 Vibrational              2.422              4.141              2.644
 Vibration     1          0.741              1.536              1.084
 Vibration     2          0.743              1.532              1.077
 Vibration     3          0.938              1.072              0.484

 Optimization completed.
    -- Stationary point found.
 Normal termination of Gaussian 09 at Sat Jul  2 15:15:34 2016.
