 Gaussian 09, Revision E.01,
 Gaussian 09:  EM64L-G09RevE.01 30-Nov-2015

 ---------------------------------------------
 #p b3lyp/6-311++G(3df,2p) freq symmetry=Loose
 ---------------------------------------------

 ---------
 b3lyp opt
 ---------
 Symbolic Z-matrix:
 Charge =  1 Multiplicity = 1

                         Standard orientation:
 ---------------------------------------------------------------------
 Center     Atomic      Atomic             Coordinates (Angstroms)
 Number     Number       Type             X           Y           Z
 ---------------------------------------------------------------------
      1          9           0        0.000000   -1.150805   -0.275279
      2          9           0        0.000000    1.150805   -0.275279
      3          9           0        0.000000   -0.000000    0.550558
 ---------------------------------------------------------------------

 SCF Done:  E(RB3LYP) =  -298.790070563     A.U. after   12 cycles

 The electronic state is 1-A1.
 Alpha  occ. eigenvalues --  -25.33348 -25.19827 -25.19826  -1.84560  -1.63159
 Alpha  occ. eigenvalues --   -1.49429  -1.06990  -1.03290  -1.00504  -0.85263
 Alpha  occ. eigenvalues --   -0.85086  -0.83815  -0.80603
 Alpha virt. eigenvalues --   -0.60758  -0.55826  -0.15194  -0.08255  -0.07785
 Alpha virt. eigenvalues --   -0.07628  -0.00221   0.00265   0.01677   0.04628
 Alpha virt. eigenvalues --    0.04661   0.10792   0.14885   0.20002   0.51221

 Mulliken charges:
               1
     1  F    0.267376
     2  F    0.267376
     3  F    0.465248
 Sum of Mulliken charges =   1.00000

 Dipole moment (field-independent basis, Debye):
    X=              0.0000    Y=             -0.0000    Z=              0.3165  Tot=              0.3165
 Quadrupole moment (field-independent basis, Debye-Ang):
   XX=            -13.0054   YY=             -7.3500   ZZ=            -11.2912
   XY=              0.0000   XZ=             -0.0000   YZ=             -0.0000

  Exact polarizability:   6.318  -0.000  19.346  -0.000   0.000   9.107
 Approx polarizability:   7.538   0.000  38.144  -0.000  -0.000  16.328

                      1                      2                      3
                     A1                     B2                     A1
 Frequencies --    391.2873               743.7808               887.4781
 Red. masses --     18.9984                18.9984                18.9984
 Frc consts  --      1.7138                 6.1924                 8.8162
 IR Inten    --      1.2677                 2.5915                 0.7984

 - Thermochemistry -
 -------------------
 Temperature   298.150 Kelvin.  Pressure   1.00000 Atm.
 Atom     1 has atomic number  9 and mass  18.99840

 Molecular mass:    56.99521 amu.
 Principal axes and moments of inertia in atomic units:
                           1         2         3
     Eigenvalues --    30.84699 179.70020 210.54719
           X            0.00000  -0.00000   1.00000
           Y            1.00000   0.00000  -0.00000
           Z           -0.00000   1.00000   0.00000
 This molecule is an asymmetric top.
 Rotational symmetry number  2.
 Rotational temperatures (Kelvin)      2.80785     0.48199     0.41137
 Rotational constants (GHZ):          58.50624    10.04307     8.57167
 Zero-point vibrational energy      12097.5 (Joules/Mol)
                                    2.89137 (Kcal/Mol)
 Warning -- explicit consideration of   1 degrees of freedom as
           vibrations may cause significant error
 Vibrational temperatures:    562.97  1070.13  1276.88
          (Kelvin)

 Zero-point correction=                           0.004608 (Hartree/Particle)
 Thermal correction to Energy=                    0.007911
 Thermal correction to Enthalpy=                  0.008855
 Thermal correction to Gibbs Free Energy=        -0.019533
 Sum of electronic and zero-point Energies=           -298.785463
 Sum of electronic and thermal Energies=              -298.782160
 Sum of electronic and thermal Enthalpies=            -298.781215
 Sum of electronic and thermal Free Energies=         -298.809604

                     E (Thermal)             CV                S
                      KCal/Mol        Cal/Mol-Kelvin    Cal/Mol-Kelvin
 Total                    4.964              8.716             59.749
 Electronic               0.000              0.000              0.000
 Translational            0.889              2.981             38.042
 Rotational               0.889              2.981             20.306
 Vibrational              3.187              2.754              1.400
 Vibration     1          0.759              1.489              0.995

 Optimization completed.
    -- Stationary point found.
 Normal termination of Gaussian 09 at Sat Jul  2 15:39:20 2016.
