 Gaussian 09, Revision E.01,
 Gaussian 09:  EM64L-G09RevE.01 30-Nov-2015

 ---------------------------------------------
 #p b3lyp/6-311++G(3df,2p) freq symmetry=Loose
 ---------------------------------------------

 ---------
 b3lyp opt
 ---------
 Symbolic Z-matrix:
 Charge =  0 Multiplicity = 1

                         Standard orientation:
 ---------------------------------------------------------------------
 Center     Atomic      Atomic             Coordinates (Angstroms)
 Number     Number       Type             X           Y           Z
 ---------------------------------------------------------------------
      1          6           0        0.000000   -0.000000    0.174688
      2          1           0        0.000000    0.861670   -0.524063
      3          1           0       -0.000000   -0.861670   -0.524063
 ---------------------------------------------------------------------

 SCF Done:  E(RB3LYP) =  -39.1500530430     A.U. after    8 cycles

 The electronic state is 1-A1.
 Alpha  occ. eigenvalues --  -10.24589  -0.67731  -0.41717  -0.26314
 Alpha virt. eigenvalues --   -0.14305  -0.00714   0.03269   0.07292   0.07810
 Alpha virt. eigenvalues --    0.09590   0.12128   0.15742   0.17256   0.30214
 Alpha virt. eigenvalues --    0.30807   0.32069   0.35103   0.39951   0.54018

 Mulliken charges:
               1
     1  C   -0.312285
     2  H    0.156142
     3  H    0.156142
 Sum of Mulliken charges =  -0.00000

 Dipole moment (field-independent basis, Debye):
    X=             -0.0000    Y=             -0.0000    Z=             -1.8004  Tot=              1.8004
 Quadrupole moment (field-independent basis, Debye-Ang):
   XX=             -6.5483   YY=             -7.2692   ZZ=             -9.7395
   XY=              0.0000   XZ=              0.0000   YZ=              0.0000

  Exact polarizability:  12.968  -0.000  17.300  -0.000  -0.000  18.010
 Approx polarizability:  19.052   0.000  21.078   0.000   0.000  20.323

                      1                      2                      3
                     A1                     A1                     B2
 Frequencies --   1402.5511              2909.4522              2973.5642
 Red. masses --      1.1026                 1.0562                 1.1006
 Frc consts  --      1.2779                 5.2676                 5.7336
 IR Inten    --      1.6745                76.7680                67.3017

 - Thermochemistry -
 -------------------
 Temperature   298.150 Kelvin.  Pressure   1.00000 Atm.
 Atom     1 has atomic number  6 and mass  12.00000

 Molecular mass:    14.01565 amu.
 Principal axes and moments of inertia in atomic units:
                           1         2         3
     Eigenvalues --     3.00902   5.34435   8.35337
           X            0.00000   0.00000   1.00000
           Y            1.00000   0.00000   0.00000
           Z            0.00000   1.00000   0.00000
 This molecule is an asymmetric top.
 Rotational symmetry number  2.
 Rotational temperatures (Kelvin)     28.78468    16.20662    10.36872
 Rotational constants (GHZ):         599.77612   337.69149   216.04937
 Zero-point vibrational energy      43577.4 (Joules/Mol)
                                   10.41524 (Kcal/Mol)
 Vibrational temperatures:   2017.96  4186.05  4278.29
          (Kelvin)

 Zero-point correction=                           0.016598 (Hartree/Particle)
 Thermal correction to Energy=                    0.019438
 Thermal correction to Enthalpy=                  0.020382
 Thermal correction to Gibbs Free Energy=        -0.001081
 Sum of electronic and zero-point Energies=            -39.133455
 Sum of electronic and thermal Energies=               -39.130615
 Sum of electronic and thermal Enthalpies=             -39.129671
 Sum of electronic and thermal Free Energies=          -39.151134

                     E (Thermal)             CV                S
                      KCal/Mol        Cal/Mol-Kelvin    Cal/Mol-Kelvin
 Total                   12.197              6.067             45.173
 Electronic               0.000              0.000              0.000
 Translational            0.889              2.981             33.861
 Rotational               0.889              2.981             11.294
 Vibrational             10.420              0.105              0.018

 Optimization completed.
    -- Stationary point found.
 Normal termination of Gaussian 09 at Sun Jun 19 05:22:00 2016.
