 Gaussian 09, Revision E.01,
 Gaussian 09:  EM64L-G09RevE.01 30-Nov-2015

 ---------------------------------------------
 #p b3lyp/6-311++G(3df,2p) freq symmetry=Loose
 ---------------------------------------------

 ---------
 b3lyp opt
 ---------
 Symbolic Z-matrix:
 Charge =  1 Multiplicity = 2

                         Standard orientation:
 ---------------------------------------------------------------------
 Center     Atomic      Atomic             Coordinates (Angstroms)
 Number     Number       Type             X           Y           Z
 ---------------------------------------------------------------------
      1          6           0        0.000000   -0.000000    0.090641
      2          1           0        0.000000    1.034967   -0.271924
      3          1           0       -0.000000   -1.034967   -0.271924
 ---------------------------------------------------------------------

 SCF Done:  E(UB3LYP) =  -38.7848298787     A.U. after    9 cycles

 The electronic state is 2-A1.
 Alpha  occ. eigenvalues --  -10.69262  -1.05703  -0.84283  -0.66421
 Alpha virt. eigenvalues --   -0.51438  -0.23044  -0.16031  -0.14612  -0.11846
 Alpha virt. eigenvalues --   -0.11121  -0.08175  -0.04233  -0.02624   0.01231
 Alpha virt. eigenvalues --    0.05263   0.05295   0.10660   0.13042   0.23085

  Beta  occ. eigenvalues --  -10.67469  -1.01300  -0.83003
  Beta virt. eigenvalues --   -0.49082  -0.46111  -0.22063  -0.15545  -0.14189
  Beta virt. eigenvalues --   -0.10872  -0.10143  -0.07375  -0.03938  -0.02217
  Beta virt. eigenvalues --    0.01266   0.07117   0.07169   0.10952   0.13966

 Mulliken charges and spin densities:
               1          2
     1  C    0.371431   0.981763
     2  H    0.314285   0.009119
     3  H    0.314285   0.009119
 Sum of Mulliken charges =   1.00000   1.00000

 Dipole moment (field-independent basis, Debye):
    X=             -0.0000    Y=             -0.0000    Z=             -0.5091  Tot=              0.5091
 Quadrupole moment (field-independent basis, Debye-Ang):
   XX=             -4.3730   YY=             -2.2255   ZZ=             -5.5579
   XY=              0.0000   XZ=              0.0000   YZ=             -0.0000

  Exact polarizability:   7.367   0.000   9.557   0.000   0.000   7.382
 Approx polarizability:   9.185   0.000  11.091   0.000   0.000   8.286

                      1                      2                      3
                     A1                     A1                     B2
 Frequencies --    920.6538              2975.1000              3226.0734
 Red. masses --      1.1414                 1.0228                 1.1442
 Frc consts  --      0.5700                 5.3341                 7.0164
 IR Inten    --     44.4312                24.5630               176.8762

 - Thermochemistry -
 -------------------
 Temperature   298.150 Kelvin.  Pressure   1.00000 Atm.
 Atom     1 has atomic number  6 and mass  12.00000

 Molecular mass:    14.01565 amu.
 Principal axes and moments of inertia in atomic units:
                           1         2         3
     Eigenvalues --     0.81013   7.71020   8.52033
           X            0.00000   0.00000   1.00000
           Y            1.00000   0.00000   0.00000
           Z            0.00000   1.00000   0.00000
 This molecule is an asymmetric top.
 Rotational symmetry number  2.
 Rotational temperatures (Kelvin)    106.91399    11.23366    10.16555
 Rotational constants (GHZ):        2227.72871   234.07178   211.81587
 Zero-point vibrational energy      42598.0 (Joules/Mol)
                                   10.18116 (Kcal/Mol)
 Vibrational temperatures:   1324.61  4280.50  4641.59
          (Kelvin)

 Zero-point correction=                           0.016225 (Hartree/Particle)
 Thermal correction to Energy=                    0.019107
 Thermal correction to Enthalpy=                  0.020051
 Thermal correction to Gibbs Free Energy=        -0.001682
 Sum of electronic and zero-point Energies=            -38.768605
 Sum of electronic and thermal Energies=               -38.765723
 Sum of electronic and thermal Enthalpies=             -38.764778
 Sum of electronic and thermal Free Energies=          -38.786512

                     E (Thermal)             CV                S
                      KCal/Mol        Cal/Mol-Kelvin    Cal/Mol-Kelvin
 Total                   11.990              6.434             45.741
 Electronic               0.000              0.000              1.377
 Translational            0.889              2.981             33.861
 Rotational               0.889              2.981             10.374
 Vibrational             10.213              0.473              0.129

 Optimization completed.
    -- Stationary point found.
 Normal termination of Gaussian 09 at Sun Jun 19 05:31:46 2016.
