 Gaussian 09, Revision E.01,
 Gaussian 09:  EM64L-G09RevE.01 30-Nov-2015

 ---------------------------------------------
 #p b3lyp/6-311++G(3df,2p) freq symmetry=Loose
 ---------------------------------------------

 ---------
 b3lyp opt
 ---------
 Symbolic Z-matrix:
 Charge =  0 Multiplicity = 3

                         Standard orientation:
 ---------------------------------------------------------------------
 Center     Atomic      Atomic             Coordinates (Angstroms)
 Number     Number       Type             X           Y           Z
 ---------------------------------------------------------------------
      1          6           0        0.000000   -0.000000    0.102610
      2          1           0        0.000000    0.996161   -0.307831
      3          1           0       -0.000000   -0.996161   -0.307831
 ---------------------------------------------------------------------

 SCF Done:  E(UB3LYP) =  -39.1680029745     A.U. after   10 cycles

 The electronic state is 3-B1.
 Alpha  occ. eigenvalues --  -10.21740  -0.68435  -0.46287  -0.28388  -0.25015
 Alpha virt. eigenvalues --   -0.00131   0.03158   0.06782   0.07061   0.10385
 Alpha virt. eigenvalues --    0.11102   0.13737   0.18640   0.29363   0.31625
 Alpha virt. eigenvalues --    0.32282   0.34524   0.36618   0.52255   0.52355

  Beta  occ. eigenvalues --  -10.18848  -0.60916  -0.44260
  Beta virt. eigenvalues --   -0.09666  -0.07314   0.00319   0.03162   0.08638
  Beta virt. eigenvalues --    0.09529   0.11249   0.11649   0.15151   0.19717
  Beta virt. eigenvalues --    0.31101   0.34306   0.35934   0.37091   0.38192

 Mulliken charges and spin densities:
               1          2
     1  C   -0.365289   2.007164
     2  H    0.182645  -0.003582
     3  H    0.182645  -0.003582
 Sum of Mulliken charges =   0.00000   2.00000

 Dipole moment (field-independent basis, Debye):
    X=             -0.0000    Y=             -0.0000    Z=             -0.6102  Tot=              0.6102
 Quadrupole moment (field-independent basis, Debye-Ang):
   XX=             -8.4230   YY=             -5.9453   ZZ=             -7.8864
   XY=              0.0000   XZ=              0.0000   YZ=             -0.0000

  Exact polarizability:  14.390   0.000  15.375  -0.000  -0.000  13.525
 Approx polarizability:  15.851   0.000  18.011   0.000   0.000  15.329

                      1                      2                      3
                     A1                     A1                     B2
 Frequencies --   1049.7958              3121.9187              3361.2083
 Red. masses --      1.1371                 1.0263                 1.1388
 Frc consts  --      0.7384                 5.8936                 7.5804
 IR Inten    --     10.3449                 0.4443                 0.5654

 - Thermochemistry -
 -------------------
 Temperature   298.150 Kelvin.  Pressure   1.00000 Atm.
 Atom     1 has atomic number  6 and mass  12.00000

 Molecular mass:    14.01565 amu.
 Principal axes and moments of inertia in atomic units:
                           1         2         3
     Eigenvalues --     1.03820   7.14286   8.18106
           X           -0.00000   0.00000   1.00000
           Y            1.00000   0.00000   0.00000
           Z           -0.00000   1.00000   0.00000
 This molecule is an asymmetric top.
 Rotational symmetry number  2.
 Rotational temperatures (Kelvin)     83.42665    12.12593    10.58711
 Rotational constants (GHZ):        1738.33143   252.66378   220.59992
 Zero-point vibrational energy      45056.9 (Joules/Mol)
                                   10.76885 (Kcal/Mol)
 Vibrational temperatures:   1510.42  4491.74  4836.02
          (Kelvin)

 Zero-point correction=                           0.017161 (Hartree/Particle)
 Thermal correction to Energy=                    0.020024
 Thermal correction to Enthalpy=                  0.020968
 Thermal correction to Gibbs Free Energy=        -0.001185
 Sum of electronic and zero-point Energies=            -39.150842
 Sum of electronic and thermal Energies=               -39.147979
 Sum of electronic and thermal Enthalpies=             -39.147035
 Sum of electronic and thermal Free Energies=          -39.169188

                     E (Thermal)             CV                S
                      KCal/Mol        Cal/Mol-Kelvin    Cal/Mol-Kelvin
 Total                   12.565              6.288             46.625
 Electronic               0.000              0.000              2.183
 Translational            0.889              2.981             33.861
 Rotational               0.889              2.981             10.505
 Vibrational             10.788              0.326              0.076

 Optimization completed.
    -- Stationary point found.
 Normal termination of Gaussian 09 at Sun Jun 19 04:42:25 2016.
