 Gaussian 09, Revision E.01,
 Gaussian 09:  EM64L-G09RevE.01 30-Nov-2015

 ------------------------------
 #p b3lyp/6-311++G(3df,2p) freq
 ------------------------------

 ---------
 b3lyp opt
 ---------
 Symbolic Z-matrix:
 Charge =  0 Multiplicity = 3

                         Standard orientation:
 ---------------------------------------------------------------------
 Center     Atomic      Atomic             Coordinates (Angstroms)
 Number     Number       Type             X           Y           Z
 ---------------------------------------------------------------------
      1          6           0        0.000000   -0.000000    0.303225
      2          1           0        0.000000    0.458879   -0.909676
      3          1           0       -0.000000   -0.458879   -0.909676
 ---------------------------------------------------------------------

 SCF Done:  E(UB3LYP) =  -39.0521830051     A.U. after   10 cycles

 The electronic state is 3-A2.
 Alpha  occ. eigenvalues --  -10.25399  -0.74251  -0.37881  -0.30335  -0.25520
 Alpha virt. eigenvalues --   -0.03610   0.02508   0.06233   0.06871   0.07402
 Alpha virt. eigenvalues --    0.07757   0.10873   0.13245   0.28544   0.30848
 Alpha virt. eigenvalues --    0.32273   0.32346   0.36881   0.50441   0.52456

  Beta  occ. eigenvalues --  -10.23000  -0.67439  -0.32779
  Beta virt. eigenvalues --   -0.14985  -0.08456  -0.02549   0.04383   0.07282
  Beta virt. eigenvalues --    0.08184   0.08747   0.09095   0.11604   0.16275
  Beta virt. eigenvalues --    0.30713   0.32246   0.35518   0.35591   0.38496

 Mulliken charges and spin densities:
               1          2
     1  C   -0.320014   1.723986
     2  H    0.160007   0.138007
     3  H    0.160007   0.138007
 Sum of Mulliken charges =  -0.00000   2.00000

 Dipole moment (field-independent basis, Debye):
    X=             -0.0000    Y=              0.0000    Z=             -2.3269  Tot=              2.3269
 Quadrupole moment (field-independent basis, Debye-Ang):
   XX=             -9.0678   YY=             -7.9762   ZZ=             -7.3679
   XY=              0.0000   XZ=              0.0000   YZ=              0.0000

  Exact polarizability:  16.529  -0.000  17.669   0.000  -0.000  22.702
 Approx polarizability:  18.322   0.000  22.109   0.000   0.000  32.717

                      1                      2                      3
                     A1                     B2                     A1
 Frequencies --   1010.5365              1552.0468              2593.6194
 Red. masses --      1.1352                 1.0272                 1.0279
 Frc consts  --      0.6830                 1.4579                 4.0741
 IR Inten    --     72.0554                 0.6906                56.9500

 - Thermochemistry -
 -------------------
 Temperature   298.150 Kelvin.  Pressure   1.00000 Atm.
 Atom     1 has atomic number  6 and mass  12.00000

 Molecular mass:    14.01565 amu.
 Principal axes and moments of inertia in atomic units:
                           1         2         3
     Eigenvalues --     1.51569   9.06633  10.58202
           X            0.00000   0.00000   1.00000
           Y            0.00000   1.00000   0.00000
           Z            1.00000   0.00000   0.00000
 This molecule is an asymmetric top.
 Rotational symmetry number  2.
 Rotational temperatures (Kelvin)     57.14496     9.55335     8.18500
 Rotational constants (GHZ):        1190.70915   199.05970   170.54794
 Zero-point vibrational energy      30840.9 (Joules/Mol)
                                    7.37116 (Kcal/Mol)
 Vibrational temperatures:   1453.93  2233.05  3731.64
          (Kelvin)

 Zero-point correction=                           0.011747 (Hartree/Particle)
 Thermal correction to Energy=                    0.014619
 Thermal correction to Enthalpy=                  0.015563
 Thermal correction to Gibbs Free Energy=        -0.007014
 Sum of electronic and zero-point Energies=            -39.040436
 Sum of electronic and thermal Energies=               -39.037564
 Sum of electronic and thermal Enthalpies=             -39.036620
 Sum of electronic and thermal Free Energies=          -39.059197

                     E (Thermal)             CV                S
                      KCal/Mol        Cal/Mol-Kelvin    Cal/Mol-Kelvin
 Total                    9.173              6.391             47.516
 Electronic               0.000              0.000              2.183
 Translational            0.889              2.981             33.861
 Rotational               0.889              2.981             11.373
 Vibrational              7.396              0.429              0.099

 Optimization completed.
    -- Stationary point found.
 Normal termination of Gaussian 09 at Mon Mar  6 22:59:58 2017.
