 Gaussian 09, Revision E.01,
 Gaussian 09:  EM64L-G09RevE.01 30-Nov-2015

 ---------------------------------------------
 #p b3lyp/6-311++G(3df,2p) freq symmetry=Loose
 ---------------------------------------------

 ---------
 b3lyp opt
 ---------
 Symbolic Z-matrix:
 Charge =  1 Multiplicity = 4

                         Standard orientation:
 ---------------------------------------------------------------------
 Center     Atomic      Atomic             Coordinates (Angstroms)
 Number     Number       Type             X           Y           Z
 ---------------------------------------------------------------------
      1          6           0        0.000000   -0.000000    0.230158
      2          1           0        0.000000    0.774208   -0.690474
      3          1           0       -0.000000   -0.774208   -0.690474
 ---------------------------------------------------------------------

 SCF Done:  E(UB3LYP) =  -38.6424803016     A.U. after    9 cycles

 The electronic state is 4-A2.
 Alpha  occ. eigenvalues --  -10.66504  -1.09425  -0.78336  -0.73570  -0.62975
 Alpha virt. eigenvalues --   -0.26337  -0.25325  -0.12381  -0.12024  -0.11813
 Alpha virt. eigenvalues --   -0.09156  -0.04938  -0.04116  -0.00669   0.02436
 Alpha virt. eigenvalues --    0.03161   0.10333   0.15974   0.22629   0.24126

  Beta  occ. eigenvalues --  -10.62175  -0.96841
  Beta virt. eigenvalues --   -0.59068  -0.48992  -0.40487  -0.22097  -0.17625
  Beta virt. eigenvalues --   -0.10914  -0.09598  -0.09485  -0.06431  -0.04176
  Beta virt. eigenvalues --   -0.02438   0.02609   0.06118   0.06456   0.12693

 Mulliken charges and spin densities:
               1          2
     1  C    0.286488   2.398622
     2  H    0.356756   0.300689
     3  H    0.356756   0.300689
 Sum of Mulliken charges =   1.00000   3.00000

 Dipole moment (field-independent basis, Debye):
    X=             -0.0000    Y=              0.0000    Z=             -1.6852  Tot=              1.6852
 Quadrupole moment (field-independent basis, Debye-Ang):
   XX=             -6.2149   YY=             -2.8475   ZZ=             -3.2397
   XY=              0.0000   XZ=              0.0000   YZ=             -0.0000

  Exact polarizability:   7.708   0.000  11.276  -0.000  -0.000  10.016
 Approx polarizability:   8.529   0.000  15.069   0.000   0.000  12.859

                      1                      2                      3
                     A1                     B2                     A1
 Frequencies --   1024.3381              1860.5175              2379.1247
 Red. masses --      1.0484                 1.0717                 1.1112
 Frc consts  --      0.6481                 2.1857                 3.7058
 IR Inten    --      7.4586               462.5414               138.1103

 - Thermochemistry -
 -------------------
 Temperature   298.150 Kelvin.  Pressure   1.00000 Atm.
 Atom     1 has atomic number  6 and mass  12.00000

 Molecular mass:    14.01565 amu.
 Principal axes and moments of inertia in atomic units:
                           1         2         3
     Eigenvalues --     4.31448   5.22340   9.53787
           X            0.00000   0.00000   1.00000
           Y            0.00000   1.00000   0.00000
           Z            1.00000   0.00000   0.00000
 This molecule is an asymmetric top.
 Rotational symmetry number  2.
 Rotational temperatures (Kelvin)     20.07516    16.58189     9.08104
 Rotational constants (GHZ):         418.29892   345.51104   189.21840
 Zero-point vibrational energy      31485.6 (Joules/Mol)
                                    7.52524 (Kcal/Mol)
 Vibrational temperatures:   1473.79  2676.87  3423.03
          (Kelvin)

 Zero-point correction=                           0.011992 (Hartree/Particle)
 Thermal correction to Energy=                    0.014859
 Thermal correction to Enthalpy=                  0.015804
 Thermal correction to Gibbs Free Energy=        -0.007223
 Sum of electronic and zero-point Energies=            -38.630488
 Sum of electronic and thermal Energies=               -38.627621
 Sum of electronic and thermal Enthalpies=             -38.626677
 Sum of electronic and thermal Free Energies=          -38.649704

                     E (Thermal)             CV                S
                      KCal/Mol        Cal/Mol-Kelvin    Cal/Mol-Kelvin
 Total                    9.324              6.336             48.465
 Electronic               0.000              0.000              2.755
 Translational            0.889              2.981             33.861
 Rotational               0.889              2.981             11.762
 Vibrational              7.547              0.374              0.088

 Optimization completed.
    -- Stationary point found.
 Normal termination of Gaussian 09 at Sun Jun 19 05:31:46 2016.
