 Gaussian 09, Revision E.01,
 Gaussian 09:  EM64L-G09RevE.01 30-Nov-2015

 ---------------------------------------------
 #p b3lyp/6-311++G(3df,2p) freq symmetry=Loose
 ---------------------------------------------

 ---------
 b3lyp opt
 ---------
 Symbolic Z-matrix:
 Charge =  0 Multiplicity = 3

                         Standard orientation:
 ---------------------------------------------------------------------
 Center     Atomic      Atomic             Coordinates (Angstroms)
 Number     Number       Type             X           Y           Z
 ---------------------------------------------------------------------
      1          6           0        0.000000   -0.661903   -0.121667
      2          6           0        0.000000    0.661903   -0.121667
      3          1           0        0.000000   -1.344968    0.729995
      4          1           0        0.000000    1.344968    0.729995
 ---------------------------------------------------------------------

 SCF Done:  E(UB3LYP) =  -77.2235193724     A.U. after   10 cycles

 The electronic state is 3-B2.
 Alpha  occ. eigenvalues --  -10.22698 -10.22616  -0.79010  -0.57661  -0.48737
 Alpha  occ. eigenvalues --   -0.35498  -0.30895  -0.22453
 Alpha virt. eigenvalues --   -0.02651  -0.00123   0.01863   0.05524   0.06394
 Alpha virt. eigenvalues --    0.08587   0.08907   0.11866   0.12460   0.13565
 Alpha virt. eigenvalues --    0.14144   0.15629   0.22594   0.27505   0.30892

  Beta  occ. eigenvalues --  -10.21120 -10.21043  -0.74583  -0.53739  -0.46378
  Beta  occ. eigenvalues --   -0.28994
  Beta virt. eigenvalues --   -0.17199  -0.05093  -0.00558   0.00202   0.02099
  Beta virt. eigenvalues --    0.06462   0.06953   0.08665   0.10303   0.12375
  Beta virt. eigenvalues --    0.12570   0.14079   0.15617   0.16091   0.24136

 Mulliken charges and spin densities:
               1          2
     1  C   -0.155470   0.920875
     2  C   -0.155470   0.920875
     3  H    0.155470   0.079125
     4  H    0.155470   0.079125
 Sum of Mulliken charges =  -0.00000   2.00000

 Dipole moment (field-independent basis, Debye):
    X=              0.0000    Y=             -0.0000    Z=              1.1717  Tot=              1.1717
 Quadrupole moment (field-independent basis, Debye-Ang):
   XX=            -14.2796   YY=            -11.4594   ZZ=            -12.5515
   XY=             -0.0000   XZ=              0.0000   YZ=             -0.0000

  Exact polarizability:  23.099  -0.000  34.096   0.000  -0.000  21.707
 Approx polarizability:  27.207   0.000  51.434   0.000  -0.000  26.818

                      1                      2                      3
                     A2                     A1                     B2
 Frequencies --    802.9549               821.7783              1096.3788
 Red. masses --      1.3189                 1.0396                 1.4277
 Frc consts  --      0.5010                 0.4136                 1.0111
 IR Inten    --      0.0000                 1.4700                17.6426

                      4                      5                      6
                     A1                     B2                     A1
 Frequencies --   1631.3212              3029.2750              3070.1838
 Red. masses --      7.6622                 1.0787                 1.1050
 Frc consts  --     12.0138                 5.8322                 6.1370
 IR Inten    --      3.5687                26.8648                 5.0895

 - Thermochemistry -
 -------------------
 Temperature   298.150 Kelvin.  Pressure   1.00000 Atm.
 Atom     1 has atomic number  6 and mass  12.00000

 Molecular mass:    26.01565 amu.
 Principal axes and moments of inertia in atomic units:
                           1         2         3
     Eigenvalues --     4.81642  50.56969  55.38611
           X            0.00000   0.00000   1.00000
           Y            1.00000   0.00000  -0.00000
           Z            0.00000   1.00000   0.00000
 This molecule is an asymmetric top.
 Rotational symmetry number  2.
 Rotational temperatures (Kelvin)     17.98304     1.71276     1.56382
 Rotational constants (GHZ):         374.70617    35.68820    32.58473
 Zero-point vibrational energy      62516.2 (Joules/Mol)
                                   14.94173 (Kcal/Mol)
 Vibrational temperatures:   1155.27  1182.35  1577.44  2347.10  4358.45
          (Kelvin)           4417.30

 Zero-point correction=                           0.023811 (Hartree/Particle)
 Thermal correction to Energy=                    0.026822
 Thermal correction to Enthalpy=                  0.027766
 Thermal correction to Gibbs Free Energy=         0.002001
 Sum of electronic and zero-point Energies=            -77.199708
 Sum of electronic and thermal Energies=               -77.196698
 Sum of electronic and thermal Enthalpies=             -77.195753
 Sum of electronic and thermal Free Energies=          -77.221519

                     E (Thermal)             CV                S
                      KCal/Mol        Cal/Mol-Kelvin    Cal/Mol-Kelvin
 Total                   16.831              7.553             54.227
 Electronic               0.000              0.000              2.183
 Translational            0.889              2.981             35.704
 Rotational               0.889              2.981             15.874
 Vibrational             15.053              1.592              0.465

 Optimization completed.
    -- Stationary point found.
 Normal termination of Gaussian 09 at Sun Jun 19 04:40:48 2016.
