 Gaussian 09, Revision E.01,
 Gaussian 09:  EM64L-G09RevE.01 30-Nov-2015

 ---------------------------------------------
 #p b3lyp/6-311++G(3df,2p) freq symmetry=Loose
 ---------------------------------------------

 ---------
 b3lyp opt
 ---------
 Symbolic Z-matrix:
 Charge =  1 Multiplicity = 4

                         Standard orientation:
 ---------------------------------------------------------------------
 Center     Atomic      Atomic             Coordinates (Angstroms)
 Number     Number       Type             X           Y           Z
 ---------------------------------------------------------------------
      1          6           0        0.000000    0.710138   -0.120534
      2          6           0       -0.000000   -0.710138   -0.120534
      3          1           0        0.000000    1.410058    0.723196
      4          1           0       -0.000000   -1.410058    0.723196
 ---------------------------------------------------------------------

 SCF Done:  E(UB3LYP) =  -76.8306029251     A.U. after   10 cycles

 The electronic state is 4-A2.
 Alpha  occ. eigenvalues --  -10.60349 -10.60308  -1.12550  -0.90214  -0.80126
 Alpha  occ. eigenvalues --   -0.67228  -0.65465  -0.55682
 Alpha virt. eigenvalues --   -0.38301  -0.18514  -0.15965  -0.13300  -0.11403
 Alpha virt. eigenvalues --   -0.09917  -0.07136  -0.06610  -0.05306  -0.05140
 Alpha virt. eigenvalues --   -0.02980  -0.00337   0.01417   0.02684   0.04976

  Beta  occ. eigenvalues --  -10.57815 -10.57783  -1.04418  -0.84617  -0.76932
  Beta virt. eigenvalues --   -0.49504  -0.46549  -0.34789  -0.28912  -0.17505
  Beta virt. eigenvalues --   -0.14702  -0.11775  -0.10354  -0.08812  -0.05528
  Beta virt. eigenvalues --   -0.05461  -0.04393  -0.02662  -0.02395   0.00423

 Mulliken charges and spin densities:
               1          2
     1  C    0.237164   1.450053
     2  C    0.237164   1.450053
     3  H    0.262836   0.049947
     4  H    0.262836   0.049947
 Sum of Mulliken charges =   1.00000   3.00000

 Dipole moment (field-independent basis, Debye):
    X=             -0.0000    Y=              0.0000    Z=              1.1714  Tot=              1.1714
 Quadrupole moment (field-independent basis, Debye-Ang):
   XX=             -9.9128   YY=             -4.6139   ZZ=             -9.4296
   XY=              0.0000   XZ=             -0.0000   YZ=              0.0000

  Exact polarizability:  12.786   0.000  24.997   0.000  -0.000  14.335
 Approx polarizability:  17.116   0.000  33.956  -0.000  -0.000  17.739

                      1                      2                      3
                     A1                     A2                     B2
 Frequencies --    819.6368               986.3884              1061.7894
 Red. masses --      1.0470                 1.3052                 1.3932
 Frc consts  --      0.4144                 0.7482                 0.9254
 IR Inten    --      4.3884                 0.0000                29.1123

                      4                      5                      6
                     A1                     B2                     A1
 Frequencies --   1364.7052              3060.0802              3078.0235
 Red. masses --      7.4445                 1.0826                 1.1014
 Frc consts  --      8.1688                 5.9729                 6.1480
 IR Inten    --      5.0168                49.6912                49.5667

 - Thermochemistry -
 -------------------
 Temperature   298.150 Kelvin.  Pressure   1.00000 Atm.
 Atom     1 has atomic number  6 and mass  12.00000

 Molecular mass:    26.01565 amu.
 Principal axes and moments of inertia in atomic units:
                           1         2         3
     Eigenvalues --     4.72712  57.53252  62.25964
           X            0.00000   0.00000   1.00000
           Y            1.00000   0.00000  -0.00000
           Z           -0.00000   1.00000  -0.00000
 This molecule is an asymmetric top.
 Rotational symmetry number  2.
 Rotational temperatures (Kelvin)     18.32274     1.50548     1.39117
 Rotational constants (GHZ):         381.78450    31.36906    28.98734
 Zero-point vibrational energy      62030.1 (Joules/Mol)
                                   14.82555 (Kcal/Mol)
 Vibrational temperatures:   1179.27  1419.19  1527.68  1963.50  4402.77
          (Kelvin)           4428.58

 Zero-point correction=                           0.023626 (Hartree/Particle)
 Thermal correction to Energy=                    0.026608
 Thermal correction to Enthalpy=                  0.027552
 Thermal correction to Gibbs Free Energy=         0.001446
 Sum of electronic and zero-point Energies=            -76.806977
 Sum of electronic and thermal Energies=               -76.803995
 Sum of electronic and thermal Enthalpies=             -76.803051
 Sum of electronic and thermal Free Energies=          -76.829156

                     E (Thermal)             CV                S
                      KCal/Mol        Cal/Mol-Kelvin    Cal/Mol-Kelvin
 Total                   16.697              7.407             54.944
 Electronic               0.000              0.000              2.755
 Translational            0.889              2.981             35.704
 Rotational               0.889              2.981             16.100
 Vibrational             14.919              1.445              0.384

 Optimization completed.
    -- Stationary point found.
 Normal termination of Gaussian 09 at Sun Jun 19 04:41:28 2016.
