 Gaussian 09, Revision E.01,
 Gaussian 09:  EM64L-G09RevE.01 30-Nov-2015

 ---------------------------------------------
 #p b3lyp/6-311++G(3df,2p) freq symmetry=Loose
 ---------------------------------------------

 ---------
 b3lyp opt
 ---------
 Symbolic Z-matrix:
 Charge =  0 Multiplicity = 3

                         Standard orientation:
 ---------------------------------------------------------------------
 Center     Atomic      Atomic             Coordinates (Angstroms)
 Number     Number       Type             X           Y           Z
 ---------------------------------------------------------------------
      1          6           0       -0.000000    0.000000    0.828807
      2          6           0        0.000000   -0.000000   -0.480144
      3          1           0        0.000000    0.932157   -1.045972
      4          1           0       -0.000000   -0.932157   -1.045972
 ---------------------------------------------------------------------

 SCF Done:  E(UB3LYP) =  -77.2169360912     A.U. after   12 cycles

 The electronic state is 3-B2.
 Alpha  occ. eigenvalues --  -10.24675 -10.20331  -0.78978  -0.55859  -0.46739
 Alpha  occ. eigenvalues --   -0.39329  -0.30995  -0.22829
 Alpha virt. eigenvalues --   -0.02242   0.00214   0.02654   0.04225   0.06494
 Alpha virt. eigenvalues --    0.08479   0.09533   0.11690   0.12032   0.14537
 Alpha virt. eigenvalues --    0.14707   0.16071   0.21645   0.27416   0.31576

  Beta  occ. eigenvalues --  -10.21334 -10.20336  -0.75533  -0.51250  -0.44547
  Beta  occ. eigenvalues --   -0.29249
  Beta virt. eigenvalues --   -0.18182  -0.05275   0.00324   0.00529   0.02829
  Beta virt. eigenvalues --    0.05335   0.06452   0.08812   0.11236   0.11843
  Beta virt. eigenvalues --    0.12678   0.14804   0.14862   0.16827   0.23363

 Mulliken charges and spin densities:
               1          2
     1  C   -0.113456   2.116402
     2  C   -0.163707  -0.286370
     3  H    0.138582   0.084984
     4  H    0.138582   0.084984
 Sum of Mulliken charges =  -0.00000   2.00000

 Dipole moment (field-independent basis, Debye):
    X=             -0.0000    Y=             -0.0000    Z=             -0.6687  Tot=              0.6687
 Quadrupole moment (field-independent basis, Debye-Ang):
   XX=            -14.1156   YY=            -12.2719   ZZ=            -11.4811
   XY=              0.0000   XZ=              0.0000   YZ=              0.0000

  Exact polarizability:  24.726   0.000  21.626   0.000   0.000  31.834
 Approx polarizability:  26.469   0.000  26.880  -0.000   0.000  50.146

                      1                      2                      3
                     B1                     B2                     A1
 Frequencies --    753.5988               991.0774              1399.0390
 Red. masses --      1.3443                 1.3283                 1.0714
 Frc consts  --      0.4498                 0.7687                 1.2356
 IR Inten    --      0.3282                 2.6663                 2.2176

                      4                      5                      6
                     A1                     A1                     B2
 Frequencies --   1582.0040              3018.8287              3085.2285
 Red. masses --      9.1936                 1.0468                 1.1151
 Frc consts  --     13.5566                 5.6209                 6.2538
 IR Inten    --      5.4239                 5.4527                 3.1167

 - Thermochemistry -
 -------------------
 Temperature   298.150 Kelvin.  Pressure   1.00000 Atm.
 Atom     1 has atomic number  6 and mass  12.00000

 Molecular mass:    26.01565 amu.
 Principal axes and moments of inertia in atomic units:
                           1         2         3
     Eigenvalues --     6.25448  46.59931  52.85379
           X           -0.00000   0.00000   1.00000
           Y            0.00000   1.00000  -0.00000
           Z            1.00000  -0.00000   0.00000
 This molecule is an asymmetric top.
 Rotational symmetry number  2.
 Rotational temperatures (Kelvin)     13.84828     1.85869     1.63874
 Rotational constants (GHZ):         288.55163    38.72893    34.14592
 Zero-point vibrational energy      64776.4 (Joules/Mol)
                                   15.48194 (Kcal/Mol)
 Vibrational temperatures:   1084.26  1425.94  2012.90  2276.15  4343.42
          (Kelvin)           4438.95

 Zero-point correction=                           0.024672 (Hartree/Particle)
 Thermal correction to Energy=                    0.027647
 Thermal correction to Enthalpy=                  0.028591
 Thermal correction to Gibbs Free Energy=         0.002807
 Sum of electronic and zero-point Energies=            -77.192264
 Sum of electronic and thermal Energies=               -77.189289
 Sum of electronic and thermal Enthalpies=             -77.188345
 Sum of electronic and thermal Free Energies=          -77.214129

                     E (Thermal)             CV                S
                      KCal/Mol        Cal/Mol-Kelvin    Cal/Mol-Kelvin
 Total                   17.348              7.242             54.266
 Electronic               0.000              0.000              2.183
 Translational            0.889              2.981             35.704
 Rotational               0.889              2.981             16.006
 Vibrational             15.571              1.280              0.372

 Optimization completed.
    -- Stationary point found.
 Normal termination of Gaussian 09 at Sun Jun 19 04:40:48 2016.
