 Gaussian 09, Revision E.01,
 Gaussian 09:  EM64L-G09RevE.01 30-Nov-2015

 ------------------------------
 #p b3lyp/6-311++G(3df,2p) freq
 ------------------------------

 ---------
 b3lyp opt
 ---------
 Symbolic Z-matrix:
 Charge =  0 Multiplicity = 1

                         Standard orientation:
 ---------------------------------------------------------------------
 Center     Atomic      Atomic             Coordinates (Angstroms)
 Number     Number       Type             X           Y           Z
 ---------------------------------------------------------------------
      1          6           0        0.000000    0.000000    0.816113
      2          6           0        0.000000   -0.000000   -0.474221
      3          1           0       -0.000000    0.936074   -1.025677
      4          1           0       -0.000000   -0.936074   -1.025677
 ---------------------------------------------------------------------

 SCF Done:  E(RB3LYP) =  -77.2928493739     A.U. after   10 cycles

 The electronic state is 1-A1.
 Alpha  occ. eigenvalues --  -10.24089 -10.18525  -0.79581  -0.55129  -0.48075
 Alpha  occ. eigenvalues --   -0.30994  -0.30689
 Alpha virt. eigenvalues --   -0.11145  -0.00754  -0.00416   0.02165   0.04792
 Alpha virt. eigenvalues --    0.06231   0.08439   0.10463   0.11179   0.12496
 Alpha virt. eigenvalues --    0.13617   0.14077   0.16268   0.22154   0.26255

 Mulliken charges:
               1
     1  C   -0.333930
     2  C    0.016953
     3  H    0.158488
     4  H    0.158488
 Sum of Mulliken charges =   0.00000

 Dipole moment (field-independent basis, Debye):
    X=             -0.0000    Y=             -0.0000    Z=             -2.5208  Tot=              2.5208
 Quadrupole moment (field-independent basis, Debye-Ang):
   XX=            -14.5006   YY=            -10.6203   ZZ=            -14.4122
   XY=              0.0000   XZ=              0.0000   YZ=             -0.0000

  Exact polarizability:  20.629   0.000  21.954   0.000  -0.000  30.370
 Approx polarizability:  26.726   0.000  31.676   0.000   0.000  47.547

                      1                      2                      3
                     B2                     B1                     A1
 Frequencies --    346.8564               758.8501              1217.0470
 Red. masses --      1.3392                 1.3416                 1.0965
 Frc consts  --      0.0949                 0.4552                 0.9569
 IR Inten    --      8.3182                76.3438                24.6784

                      4                      5                      6
                     A1                     A1                     B2
 Frequencies --   1711.4548              3113.7631              3188.8697
 Red. masses --      6.7627                 1.0666                 1.1096
 Frc consts  --     11.6708                 6.0930                 6.6483
 IR Inten    --     89.2459                48.7349                19.4619

 - Thermochemistry -
 -------------------
 Temperature   298.150 Kelvin.  Pressure   1.00000 Atm.
 Atom     1 has atomic number  6 and mass  12.00000

 Molecular mass:    26.01565 amu.
 Principal axes and moments of inertia in atomic units:
                           1         2         3
     Eigenvalues --     6.30715  45.18249  51.48964
           X            0.00000   0.00000   1.00000
           Y            0.00000   1.00000  -0.00000
           Z            1.00000  -0.00000  -0.00000
 This molecule is an asymmetric top.
 Rotational symmetry number  2.
 Rotational temperatures (Kelvin)     13.73264     1.91698     1.68216
 Rotational constants (GHZ):         286.14203    39.94338    35.05057
 Zero-point vibrational energy      61828.0 (Joules/Mol)
                                   14.77726 (Kcal/Mol)
 Warning -- explicit consideration of   1 degrees of freedom as
           vibrations may cause significant error
 Vibrational temperatures:    499.05  1091.81  1751.06  2462.40  4480.01
          (Kelvin)           4588.07

 Zero-point correction=                           0.023549 (Hartree/Particle)
 Thermal correction to Energy=                    0.026855
 Thermal correction to Enthalpy=                  0.027799
 Thermal correction to Gibbs Free Energy=         0.002556
 Sum of electronic and zero-point Energies=            -77.269300
 Sum of electronic and thermal Energies=               -77.265994
 Sum of electronic and thermal Enthalpies=             -77.265050
 Sum of electronic and thermal Free Energies=          -77.290294

                     E (Thermal)             CV                S
                      KCal/Mol        Cal/Mol-Kelvin    Cal/Mol-Kelvin
 Total                   16.852              8.494             53.130
 Electronic               0.000              0.000              0.000
 Translational            0.889              2.981             35.704
 Rotational               0.889              2.981             15.958
 Vibrational             15.074              2.532              1.467
 Vibration     1          0.725              1.582              1.180

 Optimization completed.
    -- Stationary point found.
 Normal termination of Gaussian 09 at Thu Jul  7 20:41:47 2016.
