 Gaussian 09, Revision E.01,
 Gaussian 09:  EM64L-G09RevE.01 30-Nov-2015

 ---------------------------------------------
 #p b3lyp/6-311++G(3df,2p) freq symmetry=Loose
 ---------------------------------------------

 ---------
 b3lyp opt
 ---------
 Symbolic Z-matrix:
 Charge =  2 Multiplicity = 1

                         Standard orientation:
 ---------------------------------------------------------------------
 Center     Atomic      Atomic             Coordinates (Angstroms)
 Number     Number       Type             X           Y           Z
 ---------------------------------------------------------------------
      1          6           0        0.000089    1.019247    0.000000
      2          6           0        0.000089   -0.628391    0.000000
      3          1           0       -0.988367   -1.171397    0.000000
      4          1           0        0.987300   -1.173738    0.000000
 ---------------------------------------------------------------------

 SCF Done:  E(RB3LYP) =  -76.1086834537     A.U. after    9 cycles

 The electronic state is 1-A'.
 Alpha  occ. eigenvalues --  -11.07770 -10.96194  -1.40073  -1.19707  -1.07915
 Alpha  occ. eigenvalues --   -0.97050
 Alpha virt. eigenvalues --   -0.85384  -0.78373  -0.70747  -0.51400  -0.42650
 Alpha virt. eigenvalues --   -0.37428  -0.33697  -0.29726  -0.29658  -0.28450
 Alpha virt. eigenvalues --   -0.25188  -0.24907  -0.22612  -0.20670  -0.18338

 Mulliken charges:
               1
     1  C    0.930714
     2  C    0.390219
     3  H    0.339505
     4  H    0.339562
 Sum of Mulliken charges =   2.00000

 Dipole moment (field-independent basis, Debye):
    X=              0.0001    Y=             -1.2091    Z=              0.0000  Tot=              1.2091
 Quadrupole moment (field-independent basis, Debye-Ang):
   XX=             -5.1386   YY=             -0.6753   ZZ=             -7.2200
   XY=             -0.0016   XZ=              0.0000   YZ=              0.0000

  Exact polarizability:  13.545  -0.000  20.000   0.000  -0.000  11.843
 Approx polarizability:  19.118   0.001  29.282  -0.000  -0.000  17.666

                      1                      2                      3
                     A'                     A'                     A"
 Frequencies --    682.1013               732.8799               929.5148
 Red. masses --      1.2383                 8.5491                 1.2916
 Frc consts  --      0.3394                 2.7054                 0.6575
 IR Inten    --      0.0309                88.6855                 0.2230

                      4                      5                      6
                     A'                     A'                     A'
 Frequencies --   1243.4082              2713.9185              2835.0486
 Red. masses --      1.0917                 1.0369                 1.1237
 Frc consts  --      0.9944                 4.4997                 5.3211
 IR Inten    --     64.5761               363.7815               304.2726

 - Thermochemistry -
 -------------------
 Temperature   298.150 Kelvin.  Pressure   1.00000 Atm.
 Atom     1 has atomic number  6 and mass  12.00000

 Molecular mass:    26.01565 amu.
 Principal axes and moments of inertia in atomic units:
                           1         2         3
     Eigenvalues --     7.02394  70.59324  77.61718
           X           -0.00004   1.00000   0.00000
           Y            1.00000   0.00004   0.00000
           Z           -0.00000   0.00000   1.00000
 This molecule is an asymmetric top.
 Rotational symmetry number  1.
 Rotational temperatures (Kelvin)     12.33123     1.22694     1.11591
 Rotational constants (GHZ):         256.94153    25.56535    23.25183
 Zero-point vibrational energy      54650.6 (Joules/Mol)
                                   13.06181 (Kcal/Mol)
 Vibrational temperatures:    981.39  1054.45  1337.36  1788.98  3904.72
          (Kelvin)           4079.00

 Zero-point correction=                           0.020815 (Hartree/Particle)
 Thermal correction to Energy=                    0.023930
 Thermal correction to Enthalpy=                  0.024875
 Thermal correction to Gibbs Free Energy=        -0.001141
 Sum of electronic and zero-point Energies=            -76.087868
 Sum of electronic and thermal Energies=               -76.084753
 Sum of electronic and thermal Enthalpies=             -76.083809
 Sum of electronic and thermal Free Energies=          -76.109824

                     E (Thermal)             CV                S
                      KCal/Mol        Cal/Mol-Kelvin    Cal/Mol-Kelvin
 Total                   15.017              8.233             54.754
 Electronic               0.000              0.000              0.000
 Translational            0.889              2.981             35.704
 Rotational               0.889              2.981             18.293
 Vibrational             13.239              2.272              0.756

 Optimization completed.
    -- Stationary point found.
 Normal termination of Gaussian 09 at Sun Jun 19 00:30:49 2016.
