 Gaussian 09, Revision E.01,
 Gaussian 09:  EM64L-G09RevE.01 30-Nov-2015

 ------------------------------
 #p b3lyp/6-311++G(3df,2p) freq
 ------------------------------

 ---------
 b3lyp opt
 ---------
 Symbolic Z-matrix:
 Charge =  1 Multiplicity = 2

                         Standard orientation:
 ---------------------------------------------------------------------
 Center     Atomic      Atomic             Coordinates (Angstroms)
 Number     Number       Type             X           Y           Z
 ---------------------------------------------------------------------
      1          6           0       -0.025468    0.831978   -0.000000
      2          6           0       -0.025468   -0.492513    0.000000
      3          1           0        0.152810   -1.018396    0.952539
      4          1           0        0.152810   -1.018396   -0.952539
 ---------------------------------------------------------------------

 SCF Done:  E(UB3LYP) =  -76.8775750546     A.U. after   19 cycles

 The electronic state is 2-A'.
 Alpha  occ. eigenvalues --  -10.64410 -10.55566  -1.14621  -0.87286  -0.78776
 Alpha  occ. eigenvalues --   -0.68930  -0.64549
 Alpha virt. eigenvalues --   -0.44189  -0.34509  -0.19163  -0.14838  -0.13312
 Alpha virt. eigenvalues --   -0.11649  -0.10331  -0.07570  -0.06144  -0.04695
 Alpha virt. eigenvalues --   -0.03530  -0.03179  -0.01898   0.00361   0.04607

  Beta  occ. eigenvalues --  -10.63210 -10.54919  -1.11422  -0.85250  -0.78282
  Beta  occ. eigenvalues --   -0.63086
  Beta virt. eigenvalues --   -0.52212  -0.42500  -0.29998  -0.18736  -0.14712
  Beta virt. eigenvalues --   -0.12930  -0.11108  -0.09999  -0.07152  -0.05967
  Beta virt. eigenvalues --   -0.04234  -0.03342  -0.02952  -0.01731   0.00747

 Mulliken charges and spin densities:
               1          2
     1  C    0.230056   0.646766
     2  C    0.234748   0.369705
     3  H    0.267598  -0.008235
     4  H    0.267598  -0.008235
 Sum of Mulliken charges =   1.00000   1.00000

 Dipole moment (field-independent basis, Debye):
    X=             -0.3196    Y=             -1.3323    Z=             -0.0000  Tot=              1.3701
 Quadrupole moment (field-independent basis, Debye-Ang):
   XX=            -10.6631   YY=             -6.7768   ZZ=             -7.3053
   XY=             -1.0808   XZ=             -0.0000   YZ=              0.0000

  Exact polarizability:  12.875  -0.615  38.651  -0.000   0.000  15.869
 Approx polarizability:  17.147   2.035  50.419  -0.000  -0.000  22.466

                      1                      2                      3
                     A"                     A'                     A'
 Frequencies --    456.3128               772.8427               904.1892
 Red. masses --      1.3165                 1.9592                 1.8583
 Frc consts  --      0.1615                 0.6895                 0.8951
 IR Inten    --      3.7990               493.3394               260.2726

                      4                      5                      6
                     A'                     A'                     A"
 Frequencies --   1271.8476              2963.8068              3044.0635
 Red. masses --      1.3406                 1.0478                 1.1091
 Frc consts  --      1.2777                 5.4231                 6.0554
 IR Inten    --      1.6631               136.2268               192.4284

 - Thermochemistry -
 -------------------
 Temperature   298.150 Kelvin.  Pressure   1.00000 Atm.
 Atom     1 has atomic number  6 and mass  12.00000

 Molecular mass:    26.01565 amu.
 Principal axes and moments of inertia in atomic units:
                           1         2         3
     Eigenvalues --     6.69976  47.17267  53.53488
           X           -0.03005  -0.00000   0.99955
           Y            0.99955   0.00000   0.03005
           Z           -0.00000   1.00000   0.00000
 This molecule is an asymmetric top.
 Rotational symmetry number  1.
 Rotational temperatures (Kelvin)     12.92791     1.83610     1.61789
 Rotational constants (GHZ):         269.37417    38.25820    33.71150
 Zero-point vibrational energy      56302.6 (Joules/Mol)
                                   13.45665 (Kcal/Mol)
 Warning -- explicit consideration of   1 degrees of freedom as
           vibrations may cause significant error
 Vibrational temperatures:    656.53  1111.95  1300.92  1829.90  4264.25
          (Kelvin)           4379.72

 Zero-point correction=                           0.021445 (Hartree/Particle)
 Thermal correction to Energy=                    0.024688
 Thermal correction to Enthalpy=                  0.025632
 Thermal correction to Gibbs Free Energy=        -0.000849
 Sum of electronic and zero-point Energies=            -76.856131
 Sum of electronic and thermal Energies=               -76.852887
 Sum of electronic and thermal Enthalpies=             -76.851943
 Sum of electronic and thermal Free Energies=          -76.878424

                     E (Thermal)             CV                S
                      KCal/Mol        Cal/Mol-Kelvin    Cal/Mol-Kelvin
 Total                   15.492              8.662             55.734
 Electronic               0.000              0.000              1.377
 Translational            0.889              2.981             35.704
 Rotational               0.889              2.981             17.477
 Vibrational             13.714              2.701              1.176
 Vibration     1          0.815              1.347              0.777

 Optimization completed.
    -- Stationary point found.
 Normal termination of Gaussian 09 at Thu Jul  7 22:47:11 2016.
