 Gaussian 09, Revision E.01,
 Gaussian 09:  EM64L-G09RevE.01 30-Nov-2015

 ------------------------------
 #p b3lyp/6-311++G(3df,2p) freq
 ------------------------------

 ---------
 b3lyp opt
 ---------
 Symbolic Z-matrix:
 Charge =  1 Multiplicity = 4

                         Standard orientation:
 ---------------------------------------------------------------------
 Center     Atomic      Atomic             Coordinates (Angstroms)
 Number     Number       Type             X           Y           Z
 ---------------------------------------------------------------------
      1          6           0        0.000000    0.711792   -0.000000
      2          6           0       -0.000000   -0.711792   -0.000000
      3          1           0        0.811337    1.440426   -0.000000
      4          1           0       -0.811337   -1.440426   -0.000000
 ---------------------------------------------------------------------

 SCF Done:  E(UB3LYP) =  -76.8178205430     A.U. after    9 cycles

 The electronic state is 4-BG.
 Alpha  occ. eigenvalues --  -10.60038 -10.59997  -1.12226  -0.90487  -0.77795
 Alpha  occ. eigenvalues --   -0.70565  -0.65348  -0.53523
 Alpha virt. eigenvalues --   -0.38223  -0.18427  -0.17195  -0.11883  -0.11368
 Alpha virt. eigenvalues --   -0.10224  -0.07670  -0.07021  -0.05351  -0.04520
 Alpha virt. eigenvalues --   -0.02116  -0.01641  -0.00484   0.01447   0.03798

  Beta  occ. eigenvalues --  -10.57481 -10.57448  -1.03955  -0.85848  -0.75178
  Beta virt. eigenvalues --   -0.49372  -0.48447  -0.32411  -0.28861  -0.16586
  Beta virt. eigenvalues --   -0.16419  -0.10341  -0.10230  -0.09420  -0.06277
  Beta virt. eigenvalues --   -0.04913  -0.04417  -0.03576  -0.00962  -0.00521

 Mulliken charges and spin densities:
               1          2
     1  C    0.234992   1.476471
     2  C    0.234992   1.476471
     3  H    0.265008   0.023529
     4  H    0.265008   0.023529
 Sum of Mulliken charges =   1.00000   3.00000

 Dipole moment (field-independent basis, Debye):
    X=             -0.0000    Y=             -0.0000    Z=             -0.0000  Tot=              0.0000
 Quadrupole moment (field-independent basis, Debye-Ang):
   XX=             -9.0722   YY=             -4.6967   ZZ=             -9.8954
   XY=              3.0245   XZ=              0.0000   YZ=              0.0000

  Exact polarizability:  14.305   2.689  24.547   0.000  -0.000  12.416
 Approx polarizability:  17.193   2.521  31.747   0.000   0.000  16.474

                      1                      2                      3
                     BU                     AU                     AG
 Frequencies --    726.3128               804.4346              1038.1928
 Red. masses --      1.0848                 1.0848                 1.3539
 Frc consts  --      0.3372                 0.4136                 0.8598
 IR Inten    --     46.1389                16.2579                 0.0000

                      4                      5                      6
                     AG                     BU                     AG
 Frequencies --   1342.3735              3129.0477              3136.8888
 Red. masses --      7.1858                 1.0848                 1.1030
 Frc consts  --      7.6291                 6.2579                 6.3946
 IR Inten    --      0.0000               150.1181                 0.0000

 - Thermochemistry -
 -------------------
 Temperature   298.150 Kelvin.  Pressure   1.00000 Atm.
 Atom     1 has atomic number  6 and mass  12.00000

 Molecular mass:    26.01565 amu.
 Principal axes and moments of inertia in atomic units:
                           1         2         3
     Eigenvalues --     3.44945  59.64592  63.09537
           X            0.15144   0.98847   0.00000
           Y            0.98847  -0.15144   0.00000
           Z            0.00000   0.00000   1.00000
 This molecule is an asymmetric top.
 Rotational symmetry number  2.
 Rotational temperatures (Kelvin)     25.10948     1.45213     1.37274
 Rotational constants (GHZ):         523.19735    30.25758    28.60339
 Zero-point vibrational energy      60873.5 (Joules/Mol)
                                   14.54911 (Kcal/Mol)
 Vibrational temperatures:   1045.00  1157.40  1493.73  1931.37  4502.00
          (Kelvin)           4513.28

 Zero-point correction=                           0.023185 (Hartree/Particle)
 Thermal correction to Energy=                    0.026239
 Thermal correction to Enthalpy=                  0.027183
 Thermal correction to Gibbs Free Energy=         0.001108
 Sum of electronic and zero-point Energies=            -76.794635
 Sum of electronic and thermal Energies=               -76.791582
 Sum of electronic and thermal Enthalpies=             -76.790637
 Sum of electronic and thermal Free Energies=          -76.816712

                     E (Thermal)             CV                S
                      KCal/Mol        Cal/Mol-Kelvin    Cal/Mol-Kelvin
 Total                   16.465              7.851             54.879
 Electronic               0.000              0.000              2.755
 Translational            0.889              2.981             35.704
 Rotational               0.889              2.981             15.836
 Vibrational             14.688              1.889              0.583

 Optimization completed.
    -- Stationary point found.
 Normal termination of Gaussian 09 at Thu Jul  7 22:47:00 2016.
