 Gaussian 09, Revision E.01,
 Gaussian 09:  EM64L-G09RevE.01 30-Nov-2015

 ---------------------------------------------
 #p b3lyp/6-311++G(3df,2p) freq symmetry=Loose
 ---------------------------------------------

 ---------
 b3lyp opt
 ---------
 Symbolic Z-matrix:
 Charge =  0 Multiplicity = 3

                         Standard orientation:
 ---------------------------------------------------------------------
 Center     Atomic      Atomic             Coordinates (Angstroms)
 Number     Number       Type             X           Y           Z
 ---------------------------------------------------------------------
      1          6           0       -0.000000   -0.684552    0.000000
      2          6           0        0.000000    0.684552    0.000000
      3          1           0       -0.926609   -1.264743    0.000000
      4          1           0        0.926609    1.264743    0.000000
 ---------------------------------------------------------------------

 SCF Done:  E(UB3LYP) =  -77.2049139167     A.U. after   10 cycles

 The electronic state is 3-AU.
 Alpha  occ. eigenvalues --  -10.23882 -10.23823  -0.79821  -0.59177  -0.45013
 Alpha  occ. eigenvalues --   -0.35913  -0.34178  -0.20307
 Alpha virt. eigenvalues --   -0.05995   0.00274   0.01243   0.05368   0.05877
 Alpha virt. eigenvalues --    0.08446   0.09817   0.11112   0.11562   0.13013
 Alpha virt. eigenvalues --    0.15010   0.16717   0.17155   0.26388   0.31781

  Beta  occ. eigenvalues --  -10.22443 -10.22391  -0.74811  -0.56017  -0.43077
  Beta  occ. eigenvalues --   -0.28803
  Beta virt. eigenvalues --   -0.20213  -0.07925   0.00183   0.00562   0.01495
  Beta virt. eigenvalues --    0.05791   0.06796   0.08510   0.10645   0.12443
  Beta virt. eigenvalues --    0.12574   0.13604   0.15439   0.17306   0.18203

 Mulliken charges and spin densities:
               1          2
     1  C   -0.175592   0.973754
     2  C   -0.175592   0.973754
     3  H    0.175592   0.026246
     4  H    0.175592   0.026246
 Sum of Mulliken charges =  -0.00000   2.00000

 Dipole moment (field-independent basis, Debye):
    X=              0.0000    Y=             -0.0000    Z=              0.0000  Tot=              0.0000
 Quadrupole moment (field-independent basis, Debye-Ang):
   XX=            -13.4881   YY=            -13.5156   ZZ=            -12.4917
   XY=              3.3917   XZ=             -0.0000   YZ=              0.0000

  Exact polarizability:  26.164  -1.756  40.979  -0.000   0.000  18.663
 Approx polarizability:  31.641  -3.409  60.998   0.000   0.000  25.160

                      1                      2                      3
                     BU                     AU                     AG
 Frequencies --    808.3604               845.7567              1104.2422
 Red. masses --      1.0848                 1.0848                 1.3623
 Frc consts  --      0.4177                 0.4572                 0.9787
 IR Inten    --    270.3961                 3.9135                 0.0000

                      4                      5                      6
                     AG                     BU                     AG
 Frequencies --   1425.0287              3048.2807              3058.0619
 Red. masses --      7.1353                 1.0848                 1.0921
 Frc consts  --      8.5371                 5.9390                 6.0176
 IR Inten    --      0.0000                27.4138                 0.0000

 - Thermochemistry -
 -------------------
 Temperature   298.150 Kelvin.  Pressure   1.00000 Atm.
 Atom     1 has atomic number  6 and mass  12.00000

 Molecular mass:    26.01565 amu.
 Principal axes and moments of inertia in atomic units:
                           1         2         3
     Eigenvalues --     4.66656  53.19008  57.85664
           X            0.17662   0.98428   0.00000
           Y            0.98428  -0.17662   0.00000
           Z           -0.00000  -0.00000   1.00000
 This molecule is an asymmetric top.
 Rotational symmetry number  2.
 Rotational temperatures (Kelvin)     18.56053     1.62838     1.49704
 Rotational constants (GHZ):         386.73913    33.93003    31.19333
 Zero-point vibrational energy      61546.3 (Joules/Mol)
                                   14.70991 (Kcal/Mol)
 Vibrational temperatures:   1163.05  1216.85  1588.76  2050.30  4385.79
          (Kelvin)           4399.86

 Zero-point correction=                           0.023442 (Hartree/Particle)
 Thermal correction to Energy=                    0.026448
 Thermal correction to Enthalpy=                  0.027392
 Thermal correction to Gibbs Free Energy=         0.001604
 Sum of electronic and zero-point Energies=            -77.181472
 Sum of electronic and thermal Energies=               -77.178466
 Sum of electronic and thermal Enthalpies=             -77.177522
 Sum of electronic and thermal Free Energies=          -77.203310

                     E (Thermal)             CV                S
                      KCal/Mol        Cal/Mol-Kelvin    Cal/Mol-Kelvin
 Total                   16.596              7.551             54.275
 Electronic               0.000              0.000              2.183
 Translational            0.889              2.981             35.704
 Rotational               0.889              2.981             15.937
 Vibrational             14.819              1.589              0.451

 Optimization completed.
    -- Stationary point found.
 Normal termination of Gaussian 09 at Sun Jun 19 04:40:46 2016.
