 Gaussian 09, Revision E.01,
 Gaussian 09:  EM64L-G09RevE.01 30-Nov-2015

 ---------------------------------------------
 #p b3lyp/6-311++G(3df,2p) freq symmetry=Loose
 ---------------------------------------------

 ---------
 b3lyp opt
 ---------
 Symbolic Z-matrix:
 Charge =  1 Multiplicity = 2

                         Standard orientation:
 ---------------------------------------------------------------------
 Center     Atomic      Atomic             Coordinates (Angstroms)
 Number     Number       Type             X           Y           Z
 ---------------------------------------------------------------------
      1          6           0       -0.000000    0.000000    0.621323
      2          6           0        0.000000    0.000000   -0.621323
      3          1           0       -0.000000   -0.000000    1.700465
      4          1           0        0.000000   -0.000000   -1.700465
 ---------------------------------------------------------------------

 SCF Done:  E(UB3LYP) =  -76.9475534322     A.U. after    9 cycles

 Unable to determine electronic state:  partially filled degenerate orbitals.
 Alpha  occ. eigenvalues --  -10.57806 -10.57636  -1.13520  -0.89633  -0.82934
 Alpha  occ. eigenvalues --   -0.67632  -0.63954
 Alpha virt. eigenvalues --   -0.33089  -0.30346  -0.19169  -0.16575  -0.14953
 Alpha virt. eigenvalues --   -0.11654  -0.11188  -0.09098  -0.05165  -0.04726
 Alpha virt. eigenvalues --   -0.02404  -0.00878   0.03883   0.03923   0.05065

  Beta  occ. eigenvalues --  -10.57000 -10.56840  -1.09332  -0.88274  -0.82274
  Beta  occ. eigenvalues --   -0.62798
  Beta virt. eigenvalues --   -0.52681  -0.29517  -0.26885  -0.18150  -0.16349
  Beta virt. eigenvalues --   -0.14509  -0.11144  -0.10818  -0.08657  -0.04626
  Beta virt. eigenvalues --   -0.04318  -0.02245  -0.00810   0.05090   0.05323

 Mulliken charges and spin densities:
               1          2
     1  C    0.098734   0.513463
     2  C    0.098734   0.513463
     3  H    0.401266  -0.013463
     4  H    0.401266  -0.013463
 Sum of Mulliken charges =   1.00000   1.00000

 Dipole moment (field-independent basis, Debye):
    X=              0.0000    Y=             -0.0000    Z=             -0.0000  Tot=              0.0000
 Quadrupole moment (field-independent basis, Debye-Ang):
   XX=             -9.5697   YY=            -11.2966   ZZ=             -0.5629
   XY=             -0.0000   XZ=             -0.0000   YZ=              0.0000

  Exact polarizability:  11.645   0.000  12.425   0.000  -0.000  23.700
 Approx polarizability:  15.525  -0.000  15.485  -0.000  -0.000  39.620

                      1                      2                      3
                     PIG                    PIU                    PIU
 Frequencies --    628.7184               717.6597               755.1765
 Red. masses --      1.5594                 1.0848                 1.0848
 Frc consts  --      0.3632                 0.3292                 0.3645
 IR Inten    --      0.0000                32.1755               110.9592

                      4                      5                      6
                     PIG                    SGG                    SGU
 Frequencies --    788.6344              1892.0499              3249.7758
 Red. masses --      1.5594                 3.9311                 1.0848
 Frc consts  --      0.5714                 8.2914                 6.7501
 IR Inten    --      0.0000                 0.0000               445.1321

                      7
                     SGG
 Frequencies --   3350.8218
 Red. masses --      1.2178
 Frc consts  --      8.0558
 IR Inten    --      0.0000

 - Thermochemistry -
 -------------------
 Temperature   298.150 Kelvin.  Pressure   1.00000 Atm.
 Atom     1 has atomic number  6 and mass  12.00000

 Molecular mass:    26.01565 amu.
 Principal axes and moments of inertia in atomic units:
                           1         2         3
     Eigenvalues --     0.00000  53.89956  53.89956
           X           -0.00000   0.70711   0.70711
           Y            0.00000  -0.70711   0.70711
           Z            1.00000   0.00000   0.00000
 This molecule is a prolate symmetric top.
 Rotational symmetry number  2.
 Rotational temperature (Kelvin)      1.60695
 Rotational constant (GHZ):          33.483413
 Zero-point vibrational energy      68084.5 (Joules/Mol)
                                   16.27258 (Kcal/Mol)
 Vibrational temperatures:    904.58  1032.55  1086.53  1134.67  2722.23
          (Kelvin)           4675.70  4821.08

 Zero-point correction=                           0.025932 (Hartree/Particle)
 Thermal correction to Energy=                    0.028718
 Thermal correction to Enthalpy=                  0.029662
 Thermal correction to Gibbs Free Energy=         0.006273
 Sum of electronic and zero-point Energies=            -76.921621
 Sum of electronic and thermal Energies=               -76.918835
 Sum of electronic and thermal Enthalpies=             -76.917891
 Sum of electronic and thermal Free Energies=          -76.941280

                     E (Thermal)             CV                S
                      KCal/Mol        Cal/Mol-Kelvin    Cal/Mol-Kelvin
 Total                   18.021              8.151             49.226
 Electronic               0.000              0.000              1.377
 Translational            0.889              2.981             35.704
 Rotational               0.592              1.987             10.989
 Vibrational             16.540              3.183              1.155

 Optimization completed.
    -- Stationary point found.
 Normal termination of Gaussian 09 at Sun Jun 19 04:40:44 2016.
