 Gaussian 09, Revision E.01,
 Gaussian 09:  EM64L-G09RevE.01 30-Nov-2015

 ---------------------------------------------
 #p b3lyp/6-311++G(3df,2p) freq symmetry=Loose
 ---------------------------------------------

 ---------
 b3lyp opt
 ---------
 Symbolic Z-matrix:
 Charge =  1 Multiplicity = 2

                         Standard orientation:
 ---------------------------------------------------------------------
 Center     Atomic      Atomic             Coordinates (Angstroms)
 Number     Number       Type             X           Y           Z
 ---------------------------------------------------------------------
      1          6           0       -0.892558   -1.193365   -0.000000
      2          6           0        0.594551    0.946747    0.000000
      3          6           0        0.017243   -0.237541    0.000000
      4          1           0        0.000000    1.864912   -0.000000
      5          1           0        1.684581    1.040040    0.000000
 ---------------------------------------------------------------------

 SCF Done:  E(UB3LYP) =  -114.995655026     A.U. after   18 cycles

 The electronic state is 2-A'.
 Alpha  occ. eigenvalues --  -10.57547 -10.54451 -10.53110  -1.13075  -1.02094
 Alpha  occ. eigenvalues --   -0.81539  -0.76871  -0.64126  -0.62377  -0.59494
 Alpha virt. eigenvalues --   -0.43112  -0.30846  -0.21739  -0.18364  -0.13415
 Alpha virt. eigenvalues --   -0.12493  -0.10479  -0.09410  -0.07668  -0.07360
 Alpha virt. eigenvalues --   -0.05591  -0.04100  -0.02644  -0.01629  -0.01587

  Beta  occ. eigenvalues --  -10.56560 -10.54570 -10.52410  -1.11136  -0.99985
  Beta  occ. eigenvalues --   -0.80701  -0.75446  -0.63466  -0.58537
  Beta virt. eigenvalues --   -0.47219  -0.42550  -0.26122  -0.20736  -0.18099
  Beta virt. eigenvalues --   -0.13130  -0.12338  -0.10462  -0.09224  -0.07173
  Beta virt. eigenvalues --   -0.06974  -0.05534  -0.03715  -0.02455  -0.01494

 Mulliken charges and spin densities:
               1          2
     1  C    0.000152   0.581569
     2  C   -0.250086  -0.104828
     3  C    0.715098   0.449108
     4  H    0.268662   0.031789
     5  H    0.266174   0.042361
 Sum of Mulliken charges =   1.00000   1.00000

 Dipole moment (field-independent basis, Debye):
    X=              1.7483    Y=              2.0060    Z=              0.0000  Tot=              2.6609
 Quadrupole moment (field-independent basis, Debye-Ang):
   XX=            -12.4715   YY=             -8.1455   ZZ=            -15.5183
   XY=              2.4787   XZ=             -0.0000   YZ=              0.0000

  Exact polarizability:  32.265  17.080  47.525   0.000   0.000  19.364
 Approx polarizability:  57.538  36.985  79.161   0.000   0.000  27.320

                      1                      2                      3
                     A"                     A'                     A'
 Frequencies --    256.1483               282.1054               858.9325
 Red. masses --      3.2434                 3.5080                 1.5410
 Frc consts  --      0.1254                 0.1645                 0.6698
 IR Inten    --      2.5985                24.6838                39.6042

                      4                      5                      6
                     A"                     A'                     A'
 Frequencies --   1055.7697              1057.3248              1375.5092
 Red. masses --      1.3500                 4.1998                 1.1755
 Frc consts  --      0.8866                 2.7663                 1.3104
 IR Inten    --     21.1326                18.8140                32.9731

                      7                      8                      9
                     A'                     A'                     A'
 Frequencies --   1607.8033              3032.7338              3122.3640
 Red. masses --      9.5456                 1.0532                 1.1143
 Frc consts  --     14.5385                 5.7075                 6.4003
 IR Inten    --     18.4108               176.7622                95.9930

 - Thermochemistry -
 -------------------
 Temperature   298.150 Kelvin.  Pressure   1.00000 Atm.
 Atom     1 has atomic number  6 and mass  12.00000

 Molecular mass:    38.01565 amu.
 Principal axes and moments of inertia in atomic units:
                           1         2         3
     Eigenvalues --     7.50072 169.23541 176.73613
           X            0.56566   0.82464   0.00000
           Y            0.82464  -0.56566   0.00000
           Z           -0.00000  -0.00000   1.00000
 This molecule is an asymmetric top.
 Rotational symmetry number  1.
 Rotational temperatures (Kelvin)     11.54740     0.51179     0.49007
 Rotational constants (GHZ):         240.60911    10.66409    10.21150
 Zero-point vibrational energy      75656.0 (Joules/Mol)
                                   18.08221 (Kcal/Mol)
 Warning -- explicit consideration of   2 degrees of freedom as
           vibrations may cause significant error
 Vibrational temperatures:    368.54   405.89  1235.81  1519.02  1521.25
          (Kelvin)           1979.05  2313.27  4363.42  4492.38

 Zero-point correction=                           0.028816 (Hartree/Particle)
 Thermal correction to Energy=                    0.032703
 Thermal correction to Enthalpy=                  0.033647
 Thermal correction to Gibbs Free Energy=         0.004281
 Sum of electronic and zero-point Energies=           -114.966839
 Sum of electronic and thermal Energies=              -114.962952
 Sum of electronic and thermal Enthalpies=            -114.962008
 Sum of electronic and thermal Free Energies=         -114.991374

                     E (Thermal)             CV                S
                      KCal/Mol        Cal/Mol-Kelvin    Cal/Mol-Kelvin
 Total                   20.521             10.784             61.807
 Electronic               0.000              0.000              1.377
 Translational            0.889              2.981             36.835
 Rotational               0.889              2.981             20.045
 Vibrational             18.744              4.823              3.549
 Vibration     1          0.666              1.752              1.688
 Vibration     2          0.681              1.707              1.521

 Optimization completed.
    -- Stationary point found.
 Normal termination of Gaussian 09 at Sun Jun 19 00:33:42 2016.
