 Gaussian 09, Revision E.01,
 Gaussian 09:  EM64L-G09RevE.01 30-Nov-2015

 -------------------------------------------------
 #p b3lyp/6-311++G(3df,2p) opt freq symmetry=Loose
 -------------------------------------------------

 ---------
 b3lyp opt
 ---------
 Symbolic Z-matrix:
 Charge =  0 Multiplicity = 3

 SCF Done:  E(UB3LYP) =  -115.329151458     A.U. after   18 cycles
 Optimization completed.
    -- Stationary point found.
 Normal termination of Gaussian 09 at Tue Nov 22 17:42:16 2016.

 ----------------------------------------------------------------------
 #P Geom=AllCheck Guess=TCheck SCRF=Check GenChk UB3LYP/6-311++G(3df,2p
 ) Freq
 ----------------------------------------------------------------------

 Structure from the checkpoint file:  "/scratch/sergio/H2C3.q0.m3-2.com-2310318/Gau-18361.chk"
 ---------
 b3lyp opt
 ---------
 Charge =  0 Multiplicity = 3

                         Standard orientation:
 ---------------------------------------------------------------------
 Center     Atomic      Atomic             Coordinates (Angstroms)
 Number     Number       Type             X           Y           Z
 ---------------------------------------------------------------------
      1          6           0       -0.826545    1.227956    0.000000
      2          6           0        0.000000    0.243102    0.000000
      3          6           0        0.560203   -0.977989    0.000000
      4          1           0       -0.040211   -1.878151    0.000000
      5          1           0        1.638265   -1.080258    0.000000
 ---------------------------------------------------------------------

 SCF Done:  E(UB3LYP) =  -115.329151458     A.U. after    1 cycles

 The electronic state is 3-A".
 Alpha  occ. eigenvalues --  -10.24005 -10.23648 -10.22001  -0.83496  -0.73463
 Alpha  occ. eigenvalues --   -0.53005  -0.48783  -0.37411  -0.36100  -0.31576
 Alpha  occ. eigenvalues --   -0.23561
 Alpha virt. eigenvalues --   -0.03050  -0.00531   0.02554   0.02833   0.04232
 Alpha virt. eigenvalues --    0.06626   0.07200   0.08108   0.09466   0.09923
 Alpha virt. eigenvalues --    0.12404   0.12904   0.13651   0.14827   0.15053

  Beta  occ. eigenvalues --  -10.23366 -10.22108 -10.21078  -0.80470  -0.69282
  Beta  occ. eigenvalues --   -0.51379  -0.47142  -0.33500  -0.29693
  Beta virt. eigenvalues --   -0.19863  -0.11140  -0.01019   0.00728   0.03222
  Beta virt. eigenvalues --    0.03929   0.04560   0.06996   0.08660   0.10011
  Beta virt. eigenvalues --    0.10173   0.10524   0.12663   0.13604   0.14004

 Mulliken charges and spin densities:
               1          2
     1  C   -0.413300   1.146739
     2  C    0.587671   0.165017
     3  C   -0.538546   0.671378
     4  H    0.185450   0.003083
     5  H    0.178726   0.013784
 Sum of Mulliken charges =  -0.00000   2.00000

 Dipole moment (field-independent basis, Debye):
    X=              1.7389    Y=             -1.7923    Z=              0.0000  Tot=              2.4973
 Quadrupole moment (field-independent basis, Debye-Ang):
   XX=            -18.6990   YY=            -17.1927   ZZ=            -19.8703
   XY=              1.4544   XZ=              0.0000   YZ=              0.0000

  Exact polarizability:  44.599 -26.507  66.170  -0.000   0.000  27.131
 Approx polarizability:  67.047 -39.314  89.281  -0.000  -0.000  35.030

                      1                      2                      3
                     A'                     A"                     A"
 Frequencies --    360.3348               441.2350               653.5835
 Red. masses --      3.1525                 3.5378                 1.3560
 Frc consts  --      0.2412                 0.4058                 0.3413
 IR Inten    --     20.9380                 4.4712                61.1417

                      4                      5                      6
                     A'                     A'                     A'
 Frequencies --    917.5285              1008.3869              1363.8336
 Red. masses --      1.7435                 3.8923                 1.6076
 Frc consts  --      0.8648                 2.3319                 1.7618
 IR Inten    --    189.6107               297.1614               347.0638

                      7                      8                      9
                     A'                     A'                     A'
 Frequencies --   1446.0374              3126.0049              3211.9490
 Red. masses --      2.8092                 1.0513                 1.1141
 Frc consts  --      3.4610                 6.0529                 6.7720
 IR Inten    --    478.4209                18.8344                 3.9789

 - Thermochemistry -
 -------------------
 Temperature   298.150 Kelvin.  Pressure   1.00000 Atm.
 Atom     1 has atomic number  6 and mass  12.00000

 Molecular mass:    38.01565 amu.
 Principal axes and moments of inertia in atomic units:
                           1         2         3
     Eigenvalues --     7.10826 169.26740 176.37566
           X           -0.52705   0.84983   0.00000
           Y            0.84983   0.52705   0.00000
           Z           -0.00000   0.00000   1.00000
 This molecule is an asymmetric top.
 Rotational symmetry number  1.
 Rotational temperatures (Kelvin)     12.18496     0.51170     0.49108
 Rotational constants (GHZ):         253.89357    10.66207    10.23237
 Zero-point vibrational energy      74939.4 (Joules/Mol)
                                   17.91095 (Kcal/Mol)
 Warning -- explicit consideration of   2 degrees of freedom as
           vibrations may cause significant error
 Vibrational temperatures:    518.44   634.84   940.36  1320.12  1450.84
          (Kelvin)           1962.25  2080.52  4497.62  4621.27

 Zero-point correction=                           0.028543 (Hartree/Particle)
 Thermal correction to Energy=                    0.032231
 Thermal correction to Enthalpy=                  0.033175
 Thermal correction to Gibbs Free Energy=         0.003919
 Sum of electronic and zero-point Energies=           -115.300609
 Sum of electronic and thermal Energies=              -115.296921
 Sum of electronic and thermal Enthalpies=            -115.295977
 Sum of electronic and thermal Free Energies=         -115.325232

                     E (Thermal)             CV                S
                      KCal/Mol        Cal/Mol-Kelvin    Cal/Mol-Kelvin
 Total                   20.225             10.871             61.574
 Electronic               0.000              0.000              2.183
 Translational            0.889              2.981             36.835
 Rotational               0.889              2.981             19.990
 Vibrational             18.448              4.910              2.566
 Vibration     1          0.735              1.554              1.121
 Vibration     2          0.801              1.380              0.823

 Optimization completed.
    -- Stationary point found.
 Normal termination of Gaussian 09 at Tue Nov 22 17:44:17 2016.
