 Gaussian 09, Revision E.01,
 Gaussian 09:  EM64L-G09RevE.01 30-Nov-2015

 ---------------------------------------------
 #p b3lyp/6-311++G(3df,2p) freq symmetry=Loose
 ---------------------------------------------

 ---------
 b3lyp opt
 ---------
 Symbolic Z-matrix:
 Charge =  3 Multiplicity = 2

                         Standard orientation:
 ---------------------------------------------------------------------
 Center     Atomic      Atomic             Coordinates (Angstroms)
 Number     Number       Type             X           Y           Z
 ---------------------------------------------------------------------
      1          6           0       -0.000000    0.000000   -0.000000
      2          6           0       -0.000000    0.000000   -1.349313
      3          6           0       -0.000000   -0.000000    1.349313
      4          1           0        0.000000   -0.000000    2.526694
      5          1           0        0.000000    0.000000   -2.526694
 ---------------------------------------------------------------------

 SCF Done:  E(UB3LYP) =  -113.404118653     A.U. after   12 cycles

 Unable to determine electronic state:  partially filled degenerate orbitals.
 Alpha  occ. eigenvalues --  -11.26777 -11.26773 -11.18373  -1.72922  -1.62076
 Alpha  occ. eigenvalues --   -1.38556  -1.35896  -1.25123  -1.22170
 Alpha virt. eigenvalues --   -1.04184  -1.02438  -0.83731  -0.81246  -0.75501
 Alpha virt. eigenvalues --   -0.65138  -0.59067  -0.50475  -0.47077  -0.46828
 Alpha virt. eigenvalues --   -0.46292  -0.43787  -0.43723  -0.40956  -0.40570

  Beta  occ. eigenvalues --  -11.26431 -11.26426 -11.17373  -1.69517  -1.60165
  Beta  occ. eigenvalues --   -1.37816  -1.35496  -1.21149
  Beta virt. eigenvalues --   -1.11789  -1.02107  -0.99308  -0.80304  -0.77531
  Beta virt. eigenvalues --   -0.73289  -0.64649  -0.58523  -0.49888  -0.46969
  Beta virt. eigenvalues --   -0.46259  -0.45994  -0.42820  -0.42648  -0.40586

 Mulliken charges and spin densities:
               1          2
     1  C    0.486814   0.548388
     2  C    0.687769   0.233327
     3  C    0.687769   0.233327
     4  H    0.568824  -0.007521
     5  H    0.568824  -0.007521
 Sum of Mulliken charges =   3.00000   1.00000

 Dipole moment (field-independent basis, Debye):
    X=              0.0000    Y=             -0.0000    Z=             -0.0000  Tot=              0.0000
 Quadrupole moment (field-independent basis, Debye-Ang):
   XX=            -12.0106   YY=            -10.5174   ZZ=             31.3618
   XY=              0.0000   XZ=             -0.0000   YZ=             -0.0000

  Exact polarizability:  12.084   0.000  12.001   0.000   0.000  44.055
 Approx polarizability:  16.097   0.000  16.909  -0.000  -0.000 106.339

                      1                      2                      3
                     PIU                    PIU                    PIU
 Frequencies --    262.7859               274.3178               778.4861
 Red. masses --      2.8421                 3.0139                 1.4377
 Frc consts  --      0.1156                 0.1336                 0.5133
 IR Inten    --     54.8967                77.6839                44.5342

                      4                      5                      6
                     PIG                    PIG                    PIU
 Frequencies --    787.9940               793.8668               815.9914
 Red. masses --      1.2731                 1.2731                 1.4803
 Frc consts  --      0.4658                 0.4727                 0.5807
 IR Inten    --      0.0000                 0.0000                32.1575

                      7                      8                      9
                     SGG                    SGU                    SGG
 Frequencies --   1079.8260              1654.3727              2414.4922
 Red. masses --      4.9315                 3.6007                 1.1457
 Frc consts  --      3.3879                 5.8063                 3.9354
 IR Inten    --      0.0000              2337.1059                 0.0000

                     10
                     SGU
 Frequencies --   2442.5597
 Red. masses --      1.3340
 Frc consts  --      4.6890
 IR Inten    --    921.9269

 - Thermochemistry -
 -------------------
 Temperature   298.150 Kelvin.  Pressure   1.00000 Atm.
 Atom     1 has atomic number  6 and mass  12.00000

 Molecular mass:    38.01565 amu.
 Principal axes and moments of inertia in atomic units:
                           1         2         3
     Eigenvalues --     0.00000 201.99283 201.99283
           X           -0.00000  -0.38275   0.92385
           Y           -0.00000   0.92385   0.38275
           Z            1.00000  -0.00000   0.00000
 This molecule is a prolate symmetric top.
 Rotational symmetry number  2.
 Rotational temperature (Kelvin)      0.42880
 Rotational constant (GHZ):           8.934679
 Zero-point vibrational energy      67617.1 (Joules/Mol)
                                   16.16087 (Kcal/Mol)
 Warning -- explicit consideration of   2 degrees of freedom as
           vibrations may cause significant error
 Vibrational temperatures:    378.09   394.68  1120.07  1133.75  1142.20
          (Kelvin)           1174.03  1553.63  2380.27  3473.91  3514.29

 Zero-point correction=                           0.025754 (Hartree/Particle)
 Thermal correction to Energy=                    0.029387
 Thermal correction to Enthalpy=                  0.030331
 Thermal correction to Gibbs Free Energy=         0.003741
 Sum of electronic and zero-point Energies=           -113.378365
 Sum of electronic and thermal Energies=              -113.374732
 Sum of electronic and thermal Enthalpies=            -113.373787
 Sum of electronic and thermal Free Energies=         -113.400377

                     E (Thermal)             CV                S
                      KCal/Mol        Cal/Mol-Kelvin    Cal/Mol-Kelvin
 Total                   18.441             11.418             55.963
 Electronic               0.000              0.000              1.377
 Translational            0.889              2.981             36.835
 Rotational               0.592              1.987             13.615
 Vibrational             16.959              6.450              4.136
 Vibration     1          0.670              1.741              1.643
 Vibration     2          0.677              1.721              1.569

 Optimization completed.
    -- Stationary point found.
 Normal termination of Gaussian 09 at Sun Jun 19 00:37:33 2016.
