 Gaussian 09, Revision E.01,
 Gaussian 09:  EM64L-G09RevE.01 30-Nov-2015

 ------------------------------------------------------
 #p b3lyp/6-311++G(3df,2p) freq IOp(2/17=3) IOp(2/18=3)
 ------------------------------------------------------

 ---------
 b3lyp opt
 ---------
 Symbolic Z-matrix:
 Charge =  2 Multiplicity = 1

                         Standard orientation:
 ---------------------------------------------------------------------
 Center     Atomic      Atomic             Coordinates (Angstroms)
 Number     Number       Type             X           Y           Z
 ---------------------------------------------------------------------
      1          6           0       -0.000000    0.000000   -0.000000
      2          6           0        0.000000    0.000000   -1.263798
      3          6           0       -0.000000   -0.000000    1.263798
      4          1           0        0.000000    0.000000    2.372951
      5          1           0        0.000000    0.000000   -2.372951
 ---------------------------------------------------------------------

 SCF Done:  E(RB3LYP) =  -114.431554419     A.U. after    9 cycles

 The electronic state is 1-SGG.
 Alpha  occ. eigenvalues --  -10.91029 -10.91022 -10.79463  -1.41316  -1.31014
 Alpha  occ. eigenvalues --   -1.11910  -1.09417  -0.92996  -0.92996
 Alpha virt. eigenvalues --   -0.72782  -0.72782  -0.47204  -0.47204  -0.40799
 Alpha virt. eigenvalues --   -0.37312  -0.35784  -0.27618  -0.27505  -0.27505
 Alpha virt. eigenvalues --   -0.25209  -0.22672  -0.22672  -0.19361  -0.19361

 Mulliken charges:
               1
     1  C    0.217806
     2  C    0.408062
     3  C    0.408062
     4  H    0.483036
     5  H    0.483036
 Sum of Mulliken charges =   2.00000

 Dipole moment (field-independent basis, Debye):
    X=              0.0000    Y=              0.0000    Z=             -0.0000  Tot=              0.0000
 Quadrupole moment (field-independent basis, Debye-Ang):
   XX=            -13.2043   YY=            -13.2043   ZZ=             16.1476
   XY=              0.0000   XZ=             -0.0000   YZ=              0.0000

  Exact polarizability:  13.581  -0.000  13.581  -0.000   0.000  44.283
 Approx polarizability:  18.334   0.000  18.334  -0.000  -0.000 131.643

                      1                      2                      3
                     PIU                    PIU                    PIG
 Frequencies --    222.9928               222.9928               861.0467
 Red. masses --      2.9523                 2.9523                 1.2745
 Frc consts  --      0.0865                 0.0865                 0.5567
 IR Inten    --     54.9022                54.9022                 0.0000

                      4                      5                      6
                     PIG                    PIU                    PIU
 Frequencies --    861.0467               866.7820               866.7820
 Red. masses --      1.2745                 1.4521                 1.4521
 Frc consts  --      0.5567                 0.6428                 0.6428
 IR Inten    --      0.0000                20.8794                20.8794

                      7                      8                      9
                     SGG                    SGU                    SGG
 Frequencies --   1286.3080              2152.1796              3016.6104
 Red. masses --      5.1367                 4.3657                 1.1352
 Frc consts  --      5.0076                11.9141                 6.0865
 IR Inten    --      0.0000              1481.6905                 0.0000

                     10
                     SGU
 Frequencies --   3051.5955
 Red. masses --      1.2526
 Frc consts  --      6.8727
 IR Inten    --    443.6428

 - Thermochemistry -
 -------------------
 Temperature   298.150 Kelvin.  Pressure   1.00000 Atm.
 Atom     1 has atomic number  6 and mass  12.00000

 Molecular mass:    38.01565 amu.
 Principal axes and moments of inertia in atomic units:
                           1         2         3
     Eigenvalues --     0.00000 177.41906 177.41906
           X           -0.00000   0.38227   0.92405
           Y           -0.00000   0.92405  -0.38227
           Z            1.00000   0.00000   0.00000
 This molecule is a prolate symmetric top.
 Rotational symmetry number  2.
 Rotational temperature (Kelvin)      0.48819
 Rotational constant (GHZ):          10.172195
 Zero-point vibrational energy      80199.7 (Joules/Mol)
                                   19.16818 (Kcal/Mol)
 Warning -- explicit consideration of   2 degrees of freedom as
           vibrations may cause significant error
 Vibrational temperatures:    320.84   320.84  1238.85  1238.85  1247.10
          (Kelvin)           1247.10  1850.71  3096.50  4340.22  4390.56

 Zero-point correction=                           0.030546 (Hartree/Particle)
 Thermal correction to Energy=                    0.034218
 Thermal correction to Enthalpy=                  0.035162
 Thermal correction to Gibbs Free Energy=         0.009155
 Sum of electronic and zero-point Energies=           -114.401008
 Sum of electronic and thermal Energies=              -114.397337
 Sum of electronic and thermal Enthalpies=            -114.396393
 Sum of electronic and thermal Free Energies=         -114.422399

                     E (Thermal)             CV                S
                      KCal/Mol        Cal/Mol-Kelvin    Cal/Mol-Kelvin
 Total                   21.472             10.947             54.736
 Electronic               0.000              0.000              0.000
 Translational            0.889              2.981             36.835
 Rotational               0.592              1.987             13.357
 Vibrational             19.991              5.979              4.544
 Vibration     1          0.649              1.806              1.935
 Vibration     2          0.649              1.806              1.935

 Optimization completed.
    -- Stationary point found.
 Normal termination of Gaussian 09 at Thu Jan 31 04:13:37 2019.
