 Gaussian 09, Revision D.01,
 Gaussian 09:  EM64L-G09RevD.01 24-Apr-2013

 ------------------------------
 #p b3lyp/6-311++G(3df,2p) freq
 ------------------------------

 ---------
 b3lyp opt
 ---------
 Symbolic Z-matrix:
 Charge =  1 Multiplicity = 2

                         Standard orientation:
 ---------------------------------------------------------------------
 Center     Atomic      Atomic             Coordinates (Angstroms)
 Number     Number       Type             X           Y           Z
 ---------------------------------------------------------------------
      1          6           0        0.000000    0.000000    1.258000
      2          1           0        0.000000    0.000000    2.334000
      3          6           0        0.000000    0.000000    0.000000
      4          6           0        0.000000    0.000000   -1.258000
      5          1           0        0.000000    0.000000   -2.334000
 ---------------------------------------------------------------------

 SCF Done:  E(UB3LYP) =  -115.053390358     A.U. after   11 cycles

 Unable to determine electronic state:  an orbital has unidentified symmetry.
 Alpha  occ. eigenvalues --  -10.54375 -10.54366 -10.48263  -1.10229  -1.00411
 Alpha  occ. eigenvalues --   -0.83623  -0.80370  -0.65043  -0.63022  -0.51359
 Alpha virt. eigenvalues --   -0.42831  -0.19562  -0.18547  -0.16413  -0.15087
 Alpha virt. eigenvalues --   -0.14598  -0.09802  -0.09494  -0.08851  -0.06267
 Alpha virt. eigenvalues --   -0.05978  -0.05374  -0.01191   0.00269   0.00388

  Beta  occ. eigenvalues --  -10.53348 -10.53341 -10.48635  -1.09042  -0.97802
  Beta  occ. eigenvalues --   -0.82539  -0.79674  -0.62729  -0.61100
  Beta virt. eigenvalues --   -0.41341  -0.38309  -0.18364  -0.17072  -0.16002
  Beta virt. eigenvalues --   -0.14678  -0.14205  -0.09313  -0.08566  -0.08419
  Beta virt. eigenvalues --   -0.05875  -0.05504  -0.04965  -0.01017   0.00186

 Mulliken charges and spin densities:
               1          2
     1  C    0.209650   0.602884
     2  H    0.401961  -0.016649
     3  C   -0.223221  -0.172470
     4  C    0.209650   0.602884
     5  H    0.401961  -0.016649
 Sum of Mulliken charges =   1.00000   1.00000

 Dipole moment (field-independent basis, Debye):
    X=              0.0000    Y=              0.0000    Z=              0.0000  Tot=              0.0000
 Quadrupole moment (field-independent basis, Debye-Ang):
   XX=            -16.6411   YY=            -15.0213   ZZ=              2.9953
   XY=              0.0000   XZ=              0.0000   YZ=              0.0000

  Exact polarizability:  17.870   0.000  16.920   0.000   0.000  49.843
 Approx polarizability:  23.105   0.000  23.073   0.000   0.000 112.577

                      1                      2                      3
                     ?A                     ?A                     PIG
 Frequencies --    246.3186               268.9992               288.3816
 Red. masses --      1.9456                 2.9399                 1.2684
 Frc consts  --      0.0695                 0.1253                 0.0621
 IR Inten    --     65.9125                28.4837                 0.0000

                      4                      5                      6
                     ?A                     PIG                    ?A
 Frequencies --    381.7570               892.6893               896.5901
 Red. masses --      1.9478                 1.2684                 1.4551
 Frc consts  --      0.1673                 0.5955                 0.6892
 IR Inten    --     55.4827                 0.0000                 9.8647

                      7                      8                      9
                     SGG                    SGU                    SGU
 Frequencies --   1309.2606              1932.7806              3319.2266
 Red. masses --      5.3430                 6.8800                 1.1338
 Frc consts  --      5.3962                15.1426                 7.3594
 IR Inten    --      0.0000               416.0379               314.8953

                     10
                     SGG
 Frequencies --   3322.6395
 Red. masses --      1.1256
 Frc consts  --      7.3216
 IR Inten    --      0.0000

 - Thermochemistry -
 -------------------
 Temperature   298.150 Kelvin.  Pressure   1.00000 Atm.
 Atom     1 has atomic number  6 and mass  12.00000

 Molecular mass:    38.01565 amu.
 Principal axes and moments of inertia in atomic units:
                           1         2         3
     Eigenvalues --     0.00000 174.84613 174.84613
           X            0.00000   1.00000   0.00000
           Y            0.00000   0.00000   1.00000
           Z            1.00000   0.00000   0.00000
 This molecule is a prolate symmetric top.
 Rotational symmetry number  2.
 Rotational temperature (Kelvin)      0.49537
 Rotational constant (GHZ):          10.321882
 Zero-point vibrational energy      76911.8 (Joules/Mol)
                                   18.38235 (Kcal/Mol)
 Warning -- explicit consideration of   4 degrees of freedom as
           vibrations may cause significant error
 Vibrational temperatures:    354.40   387.03   414.92   549.26  1284.38
          (Kelvin)           1289.99  1883.73  2780.84  4775.62  4780.53

 Zero-point correction=                           0.029294 (Hartree/Particle)
 Thermal correction to Energy=                    0.033491
 Thermal correction to Enthalpy=                  0.034435
 Thermal correction to Gibbs Free Energy=         0.007006
 Sum of electronic and zero-point Energies=           -115.024096
 Sum of electronic and thermal Energies=              -115.019900
 Sum of electronic and thermal Enthalpies=            -115.018955
 Sum of electronic and thermal Free Energies=         -115.046384

                     E (Thermal)             CV                S
                      KCal/Mol        Cal/Mol-Kelvin    Cal/Mol-Kelvin
 Total                   21.016             12.845             57.729
 Electronic               0.000              0.000              1.377
 Translational            0.889              2.981             36.835
 Rotational               0.592              1.987             13.328
 Vibrational             19.535              7.877              6.188
 Vibration     1          0.661              1.769              1.757
 Vibration     2          0.673              1.730              1.603
 Vibration     3          0.685              1.695              1.483
 Vibration     4          0.751              1.509              1.032

 Normal termination of Gaussian 09 at Fri Mar 10 22:27:18 2017.
