 Gaussian 09, Revision D.01,
 Gaussian 09:  EM64L-G09RevD.01 24-Apr-2013

 ------------------------------
 #p b3lyp/6-311++G(3df,2p) freq
 ------------------------------

 ---------
 b3lyp opt
 ---------
 Symbolic Z-matrix:
 Charge =  1 Multiplicity = 2

                         Standard orientation:
 ---------------------------------------------------------------------
 Center     Atomic      Atomic             Coordinates (Angstroms)
 Number     Number       Type             X           Y           Z
 ---------------------------------------------------------------------
      1          6           0        0.000000    0.000000    0.866400
      2          6           0        0.000000    0.696000   -0.285600
      3          6           0        0.000000   -0.696000   -0.285600
      4          1           0        0.000000   -1.600000   -0.885600
      5          1           0        0.000000    1.600000   -0.885600
 ---------------------------------------------------------------------

 SCF Done:  E(UB3LYP) =  -115.060628225     A.U. after   11 cycles

 The electronic state is 2-A1.
 Alpha  occ. eigenvalues --  -10.55597 -10.54528 -10.54478  -1.25562  -0.88830
 Alpha  occ. eigenvalues --   -0.86620  -0.75958  -0.69041  -0.68199  -0.58243
 Alpha virt. eigenvalues --   -0.32687  -0.30824  -0.16677  -0.15856  -0.14705
 Alpha virt. eigenvalues --   -0.11757  -0.11669  -0.11204  -0.07753  -0.06350
 Alpha virt. eigenvalues --   -0.04879  -0.04734  -0.04037  -0.02696  -0.01346

  Beta  occ. eigenvalues --  -10.54313 -10.54255 -10.53966  -1.24474  -0.88064
  Beta  occ. eigenvalues --   -0.85402  -0.71477  -0.68377  -0.67015
  Beta virt. eigenvalues --   -0.42561  -0.32658  -0.28353  -0.16491  -0.15629
  Beta virt. eigenvalues --   -0.14301  -0.11650  -0.10983  -0.10361  -0.07029
  Beta virt. eigenvalues --   -0.05638  -0.04905  -0.04382  -0.03759  -0.02433

 Mulliken charges and spin densities:
               1          2
     1  C    0.187589   0.947018
     2  C    0.098032   0.023339
     3  C    0.098032   0.023339
     4  H    0.308173   0.003152
     5  H    0.308173   0.003152
 Sum of Mulliken charges =   1.00000   1.00000

 Dipole moment (field-independent basis, Debye):
    X=              0.0000    Y=              0.0000    Z=             -1.4371  Tot=              1.4371
 Quadrupole moment (field-independent basis, Debye-Ang):
   XX=            -14.8875   YY=             -8.1970   ZZ=            -12.3185
   XY=              0.0000   XZ=              0.0000   YZ=              0.0000

  Exact polarizability:  16.166   0.000  26.353   0.000   0.000  25.101
 Approx polarizability:  23.437   0.000  40.486   0.000   0.000  42.456

                      1                      2                      3
                     B1                     A1                     B2
 Frequencies --    848.3361               899.2894               994.6727
 Red. masses --      1.2248                 1.0901                 1.3155
 Frc consts  --      0.5194                 0.5194                 0.7668
 IR Inten    --     45.0482                50.2404                 8.0573

                      4                      5                      6
                     A2                     A1                     B2
 Frequencies --   1007.4616              1203.4946              1321.8650
 Red. masses --      1.4028                 6.8474                 7.1866
 Frc consts  --      0.8389                 5.8434                 7.3986
 IR Inten    --      0.0000                91.0557                15.6991

                      7                      8                      9
                     A1                     B2                     A1
 Frequencies --   1662.4755              3197.5750              3221.7973
 Red. masses --      6.2480                 1.1043                 1.1370
 Frc consts  --     10.1742                 6.6524                 6.9535
 IR Inten    --      1.0155               138.4926                49.7470

 - Thermochemistry -
 -------------------
 Temperature   298.150 Kelvin.  Pressure   1.00000 Atm.
 Atom     1 has atomic number  6 and mass  12.00000

 Molecular mass:    38.01565 amu.
 Principal axes and moments of inertia in atomic units:
                           1         2         3
     Eigenvalues --    44.51338  59.94407 104.45745
           X            0.00000   0.00000   1.00000
           Y            1.00000   0.00000   0.00000
           Z            0.00000   1.00000   0.00000
 This molecule is an asymmetric top.
 Rotational symmetry number  2.
 Rotational temperatures (Kelvin)      1.94579     1.44491     0.82918
 Rotational constants (GHZ):          40.54379    30.10709    17.27729
 Zero-point vibrational energy      85873.7 (Joules/Mol)
                                   20.52431 (Kcal/Mol)
 Vibrational temperatures:   1220.56  1293.88  1431.11  1449.51  1731.56
          (Kelvin)           1901.87  2391.93  4600.59  4635.44

 Zero-point correction=                           0.032708 (Hartree/Particle)
 Thermal correction to Energy=                    0.035762
 Thermal correction to Enthalpy=                  0.036707
 Thermal correction to Gibbs Free Energy=         0.009308
 Sum of electronic and zero-point Energies=           -115.027921
 Sum of electronic and thermal Energies=              -115.024866
 Sum of electronic and thermal Enthalpies=            -115.023922
 Sum of electronic and thermal Free Energies=         -115.051320

                     E (Thermal)             CV                S
                      KCal/Mol        Cal/Mol-Kelvin    Cal/Mol-Kelvin
 Total                   22.441              8.172             57.665
 Electronic               0.000              0.000              1.377
 Translational            0.889              2.981             36.835
 Rotational               0.889              2.981             18.883
 Vibrational             20.664              2.210              0.569

 Normal termination of Gaussian 09 at Fri Mar 10 22:38:51 2017.
