 Gaussian 09, Revision E.01,
 Gaussian 09:  EM64L-G09RevE.01 30-Nov-2015

 ---------------------------------------------
 #p b3lyp/6-311++G(3df,2p) freq symmetry=Loose
 ---------------------------------------------

 ---------
 b3lyp opt
 ---------
 Symbolic Z-matrix:
 Charge =  2 Multiplicity = 1

                         Standard orientation:
 ---------------------------------------------------------------------
 Center     Atomic      Atomic             Coordinates (Angstroms)
 Number     Number       Type             X           Y           Z
 ---------------------------------------------------------------------
      1          6           0        1.612727    0.000113    0.000108
      2          6           0        0.134214   -0.000475   -0.000202
      3          6           0       -1.149050   -0.000048    0.000033
      4          1           0       -1.795457   -0.939212    0.000183
      5          1           0       -1.791887    0.941664    0.000181
 ---------------------------------------------------------------------

 SCF Done:  E(RB3LYP) =  -114.294022750     A.U. after   12 cycles

 The electronic state is 1-A.
 Alpha  occ. eigenvalues --  -10.96519 -10.87475 -10.82923  -1.40856  -1.30061
 Alpha  occ. eigenvalues --   -1.09075  -1.01432  -0.91958  -0.90825
 Alpha virt. eigenvalues --   -0.78991  -0.71760  -0.60583  -0.52010  -0.42656
 Alpha virt. eigenvalues --   -0.35309  -0.32518  -0.32486  -0.28044  -0.27115
 Alpha virt. eigenvalues --   -0.25757  -0.24289  -0.22010  -0.21650  -0.20082

 Mulliken charges:
               1
     1  C    0.635437
     2  C    0.746998
     3  C   -0.106095
     4  H    0.361973
     5  H    0.361687
 Sum of Mulliken charges =   2.00000

 Dipole moment (field-independent basis, Debye):
    X=             -1.9720    Y=              0.0021    Z=              0.0003  Tot=              1.9720
 Quadrupole moment (field-independent basis, Debye-Ang):
   XX=              5.6671   YY=             -9.1634   ZZ=            -13.9160
   XY=             -0.0025   XZ=             -0.0012   YZ=             -0.0000

  Exact polarizability:  45.701  -0.005  19.259  -0.001  -0.000  16.333
 Approx polarizability: 101.451  -0.021  29.348  -0.004   0.000  23.311

                      1                      2                      3
                      A                      A                      A
 Frequencies --    188.2476               206.7350               449.8187
 Red. masses --      2.3667                 5.4233                 1.8694
 Frc consts  --      0.0494                 0.1366                 0.2229
 IR Inten    --      2.5610                 9.5273                81.9077

                      4                      5                      6
                      A                      A                      A
 Frequencies --    873.9973               894.2987              1051.1042
 Red. masses --      8.8918                 1.3873                 1.0686
 Frc consts  --      4.0019                 0.6537                 0.6956
 IR Inten    --    223.4819                53.0766               294.4259

                      7                      8                      9
                      A                      A                      A
 Frequencies --   1718.2942              2614.4347              2635.9284
 Red. masses --      8.5363                 1.0934                 1.0666
 Frc consts  --     14.8495                 4.4033                 4.3665
 IR Inten    --    451.7207               571.0014               745.2808

 - Thermochemistry -
 -------------------
 Temperature   298.150 Kelvin.  Pressure   1.00000 Atm.
 Atom     1 has atomic number  6 and mass  12.00000

 Molecular mass:    38.01565 amu.
 Principal axes and moments of inertia in atomic units:
                           1         2         3
     Eigenvalues --     6.36612 190.77430 197.14042
           X            1.00000  -0.00002  -0.00001
           Y            0.00002   1.00000   0.00000
           Z            0.00001  -0.00000   1.00000
 This molecule is an asymmetric top.
 Rotational symmetry number  1.
 Rotational temperatures (Kelvin)     13.60543     0.45401     0.43935
 Rotational constants (GHZ):         283.49157     9.46009     9.15460
 Zero-point vibrational energy      63598.6 (Joules/Mol)
                                   15.20043 (Kcal/Mol)
 Warning -- explicit consideration of   3 degrees of freedom as
           vibrations may cause significant error
 Vibrational temperatures:    270.85   297.45   647.19  1257.49  1286.69
          (Kelvin)           1512.30  2472.24  3761.58  3792.51

 Zero-point correction=                           0.024223 (Hartree/Particle)
 Thermal correction to Energy=                    0.028597
 Thermal correction to Enthalpy=                  0.029541
 Thermal correction to Gibbs Free Energy=        -0.000125
 Sum of electronic and zero-point Energies=           -114.269799
 Sum of electronic and thermal Energies=              -114.265426
 Sum of electronic and thermal Enthalpies=            -114.264482
 Sum of electronic and thermal Free Energies=         -114.294148

                     E (Thermal)             CV                S
                      KCal/Mol        Cal/Mol-Kelvin    Cal/Mol-Kelvin
 Total                   17.945             12.414             62.437
 Electronic               0.000              0.000              0.000
 Translational            0.889              2.981             36.835
 Rotational               0.889              2.981             20.110
 Vibrational             16.167              6.453              5.492
 Vibration     1          0.633              1.856              2.245
 Vibration     2          0.641              1.830              2.072
 Vibration     3          0.809              1.361              0.796

 Normal termination of Gaussian 09 at Sun Jun 19 00:35:53 2016.
