 Gaussian 09, Revision E.01,
 Gaussian 09:  EM64L-G09RevE.01 30-Nov-2015

 -------------------------------------------------
 #p b3lyp/6-311++G(3df,2p) opt freq symmetry=Loose
 -------------------------------------------------

 -------------------
 Title Card Required
 -------------------
 Symbolic Z-matrix:
 Charge =  0 Multiplicity = 1

 SCF Done:  E(RB3LYP) =  -115.360982084     A.U. after    9 cycles
 SCF Done:  E(RB3LYP) =  -115.361063848     A.U. after    8 cycles
 SCF Done:  E(RB3LYP) =  -115.361068889     A.U. after    7 cycles
 SCF Done:  E(RB3LYP) =  -115.361071283     A.U. after    7 cycles
 Optimization completed.
    -- Stationary point found.
 Normal termination of Gaussian 09 at Tue Nov 22 17:33:41 2016.

 ----------------------------------------------------------------------
 #P Geom=AllCheck Guess=TCheck SCRF=Check GenChk RB3LYP/6-311++G(3df,2p
 ) Freq
 ----------------------------------------------------------------------

 Structure from the checkpoint file:  "/scratch/sergio/H2C3.q0.m1-1.com-2310215/Gau-17120.chk"
 -------------------
 Title Card Required
 -------------------
 Charge =  0 Multiplicity = 1

                         Standard orientation:
 ---------------------------------------------------------------------
 Center     Atomic      Atomic             Coordinates (Angstroms)
 Number     Number       Type             X           Y           Z
 ---------------------------------------------------------------------
      1          6           0        0.000000   -0.000000    0.045715
      2          6           0       -0.000000    1.274625   -0.126620
      3          6           0       -0.000000   -1.274625   -0.126620
      4          1           0        0.000000   -2.052876    0.622571
      5          1           0        0.000000    2.052876    0.622571
 ---------------------------------------------------------------------

 SCF Done:  E(RB3LYP) =  -115.361071283     A.U. after    1 cycles

 The electronic state is 1-A1.
 Alpha  occ. eigenvalues --  -10.22601 -10.22599 -10.21427  -0.81931  -0.71627
 Alpha  occ. eigenvalues --   -0.54075  -0.48500  -0.35496  -0.35411  -0.23582
 Alpha virt. eigenvalues --   -0.14756  -0.02192  -0.00595   0.01381   0.03689
 Alpha virt. eigenvalues --    0.05650   0.07576   0.07706   0.09129   0.09648
 Alpha virt. eigenvalues --    0.10433   0.13186   0.13528   0.13632   0.14923

 Mulliken charges:
               1
     1  C    0.839420
     2  C   -0.631418
     3  C   -0.631418
     4  H    0.211708
     5  H    0.211708
 Sum of Mulliken charges =  -0.00000

 Dipole moment (field-independent basis, Debye):
    X=              0.0000    Y=              0.0000    Z=              2.2887  Tot=              2.2887
 Quadrupole moment (field-independent basis, Debye-Ang):
   XX=            -17.9187   YY=            -15.6662   ZZ=            -20.1820
   XY=             -0.0000   XZ=             -0.0000   YZ=              0.0000

  Exact polarizability:  27.405   0.000  67.629   0.000   0.000  29.052
 Approx polarizability:  37.825   0.000 143.532   0.000   0.000  38.831

                      1                      2                      3
                     B2                     B1                     A1
 Frequencies --    248.9403               315.3030               464.3222
 Red. masses --      1.3084                 3.8313                 2.3274
 Frc consts  --      0.0478                 0.2244                 0.2956
 IR Inten    --    499.0932                 2.1946                15.0908

                      4                      5                      6
                     A1                     A2                     A1
 Frequencies --    809.7782               971.2355              1236.0832
 Red. masses --      1.6072                 1.2053                 7.1759
 Frc consts  --      0.6209                 0.6699                 6.4599
 IR Inten    --     21.1183                 0.0000                 0.0933

                      7                      8                      9
                     B2                     A1                     B2
 Frequencies --   1817.7653              3226.8519              3232.0339
 Red. masses --      5.7613                 1.0968                 1.1027
 Frc consts  --     11.2162                 6.7289                 6.7870
 IR Inten    --      3.0904                 3.1961                 2.7127

 - Thermochemistry -
 -------------------
 Temperature   298.150 Kelvin.  Pressure   1.00000 Atm.
 Atom     1 has atomic number  6 and mass  12.00000

 Molecular mass:    38.01565 amu.
 Principal axes and moments of inertia in atomic units:
                           1         2         3
     Eigenvalues --     4.11018 169.57773 173.68791
           X            0.00000   0.00000   1.00000
           Y            1.00000   0.00000  -0.00000
           Z           -0.00000   1.00000   0.00000
 This molecule is an asymmetric top.
 Rotational symmetry number  2.
 Rotational temperatures (Kelvin)     21.07301     0.51076     0.49867
 Rotational constants (GHZ):         439.09072    10.64256    10.39071
 Zero-point vibrational energy      73703.8 (Joules/Mol)
                                   17.61563 (Kcal/Mol)
 Warning -- explicit consideration of   3 degrees of freedom as
           vibrations may cause significant error
 Vibrational temperatures:    358.17   453.65   668.06  1165.09  1397.39
          (Kelvin)           1778.45  2615.36  4642.71  4650.17

 Zero-point correction=                           0.028072 (Hartree/Particle)
 Thermal correction to Energy=                    0.032179
 Thermal correction to Enthalpy=                  0.033123
 Thermal correction to Gibbs Free Energy=         0.005062
 Sum of electronic and zero-point Energies=           -115.332999
 Sum of electronic and thermal Energies=              -115.328893
 Sum of electronic and thermal Enthalpies=            -115.327948
 Sum of electronic and thermal Free Energies=         -115.356009

                     E (Thermal)             CV                S
                      KCal/Mol        Cal/Mol-Kelvin    Cal/Mol-Kelvin
 Total                   20.192             11.951             59.059
 Electronic               0.000              0.000              0.000
 Translational            0.889              2.981             36.835
 Rotational               0.889              2.981             18.055
 Vibrational             18.415              5.989              4.169
 Vibration     1          0.662              1.765              1.738
 Vibration     2          0.703              1.644              1.334
 Vibration     3          0.822              1.329              0.754

 Optimization completed.
    -- Stationary point found.
 Normal termination of Gaussian 09 at Tue Nov 22 17:34:37 2016.
