 Gaussian 09, Revision E.01,
 Gaussian 09:  EM64L-G09RevE.01 30-Nov-2015

 -------------------------------------------------
 #p b3lyp/6-311++G(3df,2p) opt freq symmetry=Loose
 -------------------------------------------------

 -------------------
 Title Card Required
 -------------------
 Symbolic Z-matrix:
 Charge =  0 Multiplicity = 3

 SCF Done:  E(UB3LYP) =  -115.348755537     A.U. after   11 cycles
 SCF Done:  E(UB3LYP) =  -115.381449867     A.U. after   12 cycles
 SCF Done:  E(UB3LYP) =  -115.381988649     A.U. after   10 cycles
 SCF Done:  E(UB3LYP) =  -115.381994035     A.U. after    8 cycles
 Optimization completed.
    -- Stationary point found.
 Normal termination of Gaussian 09 at Tue Nov 22 17:40:41 2016.

 ----------------------------------------------------------------------
 #P Geom=AllCheck Guess=TCheck SCRF=Check GenChk UB3LYP/6-311++G(3df,2p
 ) Freq
 ----------------------------------------------------------------------

 Structure from the checkpoint file:  "/scratch/sergio/H2C3.q0.m3-1.com-2310253/Gau-18015.chk"
 -------------------
 Title Card Required
 -------------------
 Charge =  0 Multiplicity = 3

                         Standard orientation:
 ---------------------------------------------------------------------
 Center     Atomic      Atomic             Coordinates (Angstroms)
 Number     Number       Type             X           Y           Z
 ---------------------------------------------------------------------
      1          6           0        0.000000    0.000000    0.000000
      2          6           0        0.000000    0.000000    1.265501
      3          6           0        0.000000    0.000000   -1.265501
      4          1           0        0.000000    0.000000   -2.327315
      5          1           0       -0.000000    0.000000    2.327315
 ---------------------------------------------------------------------

 SCF Done:  E(UB3LYP) =  -115.381994035     A.U. after    1 cycles

 The electronic state is 3-SGG.
 Alpha  occ. eigenvalues --  -10.21170 -10.21166 -10.19948  -0.80912  -0.71691
 Alpha  occ. eigenvalues --   -0.56388  -0.52305  -0.36478  -0.36478  -0.22904
 Alpha  occ. eigenvalues --   -0.22904
 Alpha virt. eigenvalues --   -0.00239   0.00906   0.03797   0.03797   0.04365
 Alpha virt. eigenvalues --    0.08855   0.08940   0.08940   0.09136   0.09136
 Alpha virt. eigenvalues --    0.10294   0.12073   0.16059   0.16059   0.18339

  Beta  occ. eigenvalues --  -10.20617 -10.19373 -10.19357  -0.78731  -0.66841
  Beta  occ. eigenvalues --   -0.54505  -0.51166  -0.32788  -0.32788
  Beta virt. eigenvalues --   -0.09944  -0.09944  -0.00033   0.01067   0.04076
  Beta virt. eigenvalues --    0.04076   0.04605   0.09361   0.10128   0.10128
  Beta virt. eigenvalues --    0.10886   0.11585   0.11585   0.12463   0.16597

 Mulliken charges and spin densities:
               1          2
     1  C   -0.637992  -0.367465
     2  C   -0.005729   1.219607
     3  C   -0.005729   1.219607
     4  H    0.324726  -0.035875
     5  H    0.324726  -0.035875
 Sum of Mulliken charges =  -0.00000   2.00000

 Dipole moment (field-independent basis, Debye):
    X=             -0.0000    Y=              0.0000    Z=             -0.0000  Tot=              0.0000
 Quadrupole moment (field-independent basis, Debye-Ang):
   XX=            -19.4311   YY=            -19.4311   ZZ=            -10.6810
   XY=             -0.0000   XZ=             -0.0000   YZ=             -0.0000

  Exact polarizability:  24.945   0.000  24.945  -0.000   0.000  62.882
 Approx polarizability:  32.431  -0.000  32.431  -0.000  -0.000 108.772

                      1                      2                      3
                     PIU                    PIU                    PIG
 Frequencies --     71.2269                71.2269                93.7807
 Red. masses --      1.4444                 1.4444                 1.2639
 Frc consts  --      0.0043                 0.0043                 0.0065
 IR Inten    --     89.9596                89.9596                 0.0000

                      4                      5                      6
                     PIG                    PIU                    PIU
 Frequencies --     93.7807               422.1077               422.1077
 Red. masses --      1.2639                 2.9846                 2.9846
 Frc consts  --      0.0065                 0.3133                 0.3133
 IR Inten    --      0.0000                16.3862                16.3862

                      7                      8                      9
                     SGG                    SGU                    SGU
 Frequencies --   1290.2340              1720.6039              3433.5916
 Red. masses --      5.4856                 7.9473                 1.1092
 Frc consts  --      5.3804                13.8622                 7.7047
 IR Inten    --      0.0000                 0.5819               135.4689

                     10
                     SGG
 Frequencies --   3445.0971
 Red. masses --      1.1195
 Frc consts  --      7.8283
 IR Inten    --      0.0000

 - Thermochemistry -
 -------------------
 Temperature   298.150 Kelvin.  Pressure   1.00000 Atm.
 Atom     1 has atomic number  6 and mass  12.00000

 Molecular mass:    38.01565 amu.
 Principal axes and moments of inertia in atomic units:
                           1         2         3
     Eigenvalues --     0.00000 176.24418 176.24418
           X           -0.00000   0.70711   0.70711
           Y           -0.00000   0.70711  -0.70711
           Z            1.00000   0.00000   0.00000
 This molecule is a prolate symmetric top.
 Rotational symmetry number  2.
 Rotational temperature (Kelvin)      0.49144
 Rotational constant (GHZ):          10.240005
 Zero-point vibrational energy      66176.0 (Joules/Mol)
                                   15.81643 (Kcal/Mol)
 Warning -- explicit consideration of   6 degrees of freedom as
           vibrations may cause significant error
 Vibrational temperatures:    102.48   102.48   134.93   134.93   607.32
          (Kelvin)            607.32  1856.36  2475.56  4940.17  4956.72

 Zero-point correction=                           0.025205 (Hartree/Particle)
 Thermal correction to Energy=                    0.031232
 Thermal correction to Enthalpy=                  0.032176
 Thermal correction to Gibbs Free Energy=        -0.000875
 Sum of electronic and zero-point Energies=           -115.356789
 Sum of electronic and thermal Energies=              -115.350762
 Sum of electronic and thermal Enthalpies=            -115.349818
 Sum of electronic and thermal Free Energies=         -115.382870

                     E (Thermal)             CV                S
                      KCal/Mol        Cal/Mol-Kelvin    Cal/Mol-Kelvin
 Total                   19.598             15.842             69.562
 Electronic               0.000              0.000              2.183
 Translational            0.889              2.981             36.835
 Rotational               0.592              1.987             13.344
 Vibrational             18.117             10.874             17.200
 Vibration     1          0.598              1.968              4.119
 Vibration     2          0.598              1.968              4.119
 Vibration     3          0.603              1.954              3.580
 Vibration     4          0.603              1.954              3.580
 Vibration     5          0.784              1.422              0.885
 Vibration     6          0.784              1.422              0.885

 Optimization completed.
    -- Stationary point found.
 Normal termination of Gaussian 09 at Tue Nov 22 17:41:45 2016.
