 Gaussian 09, Revision E.01,
 Gaussian 09:  EM64L-G09RevE.01 30-Nov-2015

 ------------------------------------------------------
 #p b3lyp/6-311++G(3df,2p) freq IOp(2/17=3) IOp(2/18=3)
 ------------------------------------------------------

 ---------
 b3lyp opt
 ---------
 Symbolic Z-matrix:
 Charge =  2 Multiplicity = 1

                         Standard orientation:
 ---------------------------------------------------------------------
 Center     Atomic      Atomic             Coordinates (Angstroms)
 Number     Number       Type             X           Y           Z
 ---------------------------------------------------------------------
      1          6           0        0.000000    0.000000    1.918013
      2          6           0        0.000000    0.000000    0.649125
      3          6           0        0.000000   -0.000000   -0.649125
      4          6           0        0.000000   -0.000000   -1.918013
      5          1           0        0.000000    0.000000    3.014776
      6          1           0        0.000000   -0.000000   -3.014776
 ---------------------------------------------------------------------

 SCF Done:  E(RB3LYP) =  -152.533208355     A.U. after    9 cycles

 Unable to determine electronic state:  partially filled degenerate orbitals.
 Alpha  occ. eigenvalues --  -10.81383 -10.81378 -10.77437 -10.77326  -1.35976
 Alpha  occ. eigenvalues --   -1.29933  -1.19021  -1.04446  -1.03312  -0.89077
 Alpha  occ. eigenvalues --   -0.88484  -0.78950
 Alpha virt. eigenvalues --   -0.73719  -0.56899  -0.56476  -0.37605  -0.37452
 Alpha virt. eigenvalues --   -0.35272  -0.33453  -0.32731  -0.27427  -0.25839
 Alpha virt. eigenvalues --   -0.25469  -0.24160  -0.21470  -0.20459  -0.20340

 Mulliken charges:
               1
     1  C    0.489145
     2  C    0.050254
     3  C    0.050254
     4  C    0.489145
     5  H    0.460601
     6  H    0.460601
 Sum of Mulliken charges =   2.00000

 Dipole moment (field-independent basis, Debye):
    X=              0.0000    Y=             -0.0000    Z=             -0.0000  Tot=              0.0000
 Quadrupole moment (field-independent basis, Debye-Ang):
   XX=            -19.9505   YY=            -16.9053   ZZ=             27.9109
   XY=              0.0000   XZ=             -0.0000   YZ=             -0.0000

  Exact polarizability:  18.884   0.000  18.049  -0.000  -0.000  79.974
 Approx polarizability:  24.783  -0.000  25.832  -0.000   0.000 226.595

                      1                      2                      3
                     ?A                     ?A                     ?B
 Frequencies --    189.1082               203.6167               427.1165
 Red. masses --      3.1087                 4.1822                 3.7083
 Frc consts  --      0.0655                 0.1022                 0.3986
 IR Inten    --     28.7952                29.3319                 0.0000

                      4                      5                      6
                     ?B                     ?A                     ?B
 Frequencies --    507.8080               629.4104               630.8753
 Red. masses --     10.7473                 1.2503                 1.1907
 Frc consts  --      1.6329                 0.2918                 0.2792
 IR Inten    --      0.0000               102.3722                 0.0000

                      7                      8                      9
                     ?A                     ?B                     SGG
 Frequencies --    918.3943               923.8973               957.9004
 Red. masses --      1.3942                 1.5077                 6.3740
 Frc consts  --      0.6928                 0.7583                 3.4459
 IR Inten    --      9.0222                 0.0000                 0.0000

                     10                     11                     12
                     SGU                    SGG                    SGU
 Frequencies --   1706.9117              2179.9880              3124.2597
 Red. masses --      5.9182                 7.1792                 1.1495
 Frc consts  --     10.1592                20.1017                 6.6106
 IR Inten    --    793.1773                 0.0000               806.6783

                     13
                     SGG
 Frequencies --   3135.9481
 Red. masses --      1.1591
 Frc consts  --      6.7161
 IR Inten    --      0.0000

 - Thermochemistry -
 -------------------
 Temperature   298.150 Kelvin.  Pressure   1.00000 Atm.
 Atom     1 has atomic number  6 and mass  12.00000

 Molecular mass:    50.01565 amu.
 Principal axes and moments of inertia in atomic units:
                           1         2         3
     Eigenvalues --     0.00000 416.82638 416.82638
           X           -0.00000   0.70717  -0.70705
           Y            0.00000   0.70705   0.70717
           Z            1.00000   0.00000  -0.00000
 This molecule is a prolate symmetric top.
 Rotational symmetry number  2.
 Rotational temperature (Kelvin)      0.20779
 Rotational constant (GHZ):           4.329719
 Zero-point vibrational energy      92921.3 (Joules/Mol)
                                   22.20873 (Kcal/Mol)
 Warning -- explicit consideration of   4 degrees of freedom as
           vibrations may cause significant error
 Vibrational temperatures:    272.08   292.96   614.52   730.62   905.58
          (Kelvin)            907.69  1321.36  1329.28  1378.20  2455.86
                             3136.51  4495.11  4511.92

 Zero-point correction=                           0.035392 (Hartree/Particle)
 Thermal correction to Energy=                    0.039821
 Thermal correction to Enthalpy=                  0.040765
 Thermal correction to Gibbs Free Energy=         0.012388
 Sum of electronic and zero-point Energies=           -152.497816
 Sum of electronic and thermal Energies=              -152.493387
 Sum of electronic and thermal Enthalpies=            -152.492443
 Sum of electronic and thermal Free Energies=         -152.520820

                     E (Thermal)             CV                S
                      KCal/Mol        Cal/Mol-Kelvin    Cal/Mol-Kelvin
 Total                   24.988             14.650             59.725
 Electronic               0.000              0.000              0.000
 Translational            0.889              2.981             37.653
 Rotational               0.592              1.987             15.054
 Vibrational             23.507              9.682              7.018
 Vibration     1          0.633              1.855              2.237
 Vibration     2          0.639              1.835              2.100
 Vibration     3          0.789              1.411              0.868
 Vibration     4          0.863              1.233              0.639

 Optimization completed.
    -- Stationary point found.
 Normal termination of Gaussian 09 at Thu Jan 31 04:16:30 2019.
