 Gaussian 09, Revision E.01,
 Gaussian 09:  EM64L-G09RevE.01 30-Nov-2015

 ------------------------------------------------------
 #p b3lyp/6-311++G(3df,2p) freq IOp(2/17=3) IOp(2/18=3)
 ------------------------------------------------------

 ---------
 b3lyp opt
 ---------
 Symbolic Z-matrix:
 Charge =  1 Multiplicity = 2

                         Standard orientation:
 ---------------------------------------------------------------------
 Center     Atomic      Atomic             Coordinates (Angstroms)
 Number     Number       Type             X           Y           Z
 ---------------------------------------------------------------------
      1          6           0       -0.000000    0.000000   -1.763444
      2          6           0       -0.000000    0.000000   -0.437809
      3          6           0        0.000000    0.000000    0.822976
      4          6           0        0.000000    0.000000    2.151002
      5          1           0        0.938459   -0.000000   -2.318172
      6          1           0       -0.938459    0.000000   -2.318172
 ---------------------------------------------------------------------

 SCF Done:  E(UB3LYP) =  -153.116357240     A.U. after   15 cycles

 The electronic state is 2-B2.
 Alpha  occ. eigenvalues --  -10.53711 -10.53602 -10.50985 -10.48268  -1.11613
 Alpha  occ. eigenvalues --   -1.04828  -0.94679  -0.78409  -0.74117  -0.65782
 Alpha  occ. eigenvalues --   -0.60363  -0.56376  -0.54863
 Alpha virt. eigenvalues --   -0.39364  -0.34924  -0.17951  -0.17675  -0.14750
 Alpha virt. eigenvalues --   -0.13367  -0.12112  -0.10417  -0.08392  -0.07272
 Alpha virt. eigenvalues --   -0.06676  -0.05464  -0.04052  -0.03218  -0.01803

  Beta  occ. eigenvalues --  -10.53789 -10.53120 -10.50255 -10.47881  -1.10687
  Beta  occ. eigenvalues --   -1.02443  -0.93501  -0.77785  -0.73766  -0.62886
  Beta  occ. eigenvalues --   -0.59968  -0.55220
  Beta virt. eigenvalues --   -0.44465  -0.39043  -0.30405  -0.17528  -0.17478
  Beta virt. eigenvalues --   -0.13089  -0.12373  -0.12040  -0.09755  -0.08277
  Beta virt. eigenvalues --   -0.06913  -0.06639  -0.04581  -0.03758  -0.02836

 Mulliken charges and spin densities:
               1          2
     1  C   -0.246382   0.407457
     2  C    0.235903   0.033461
     3  C    0.808986   0.315600
     4  C   -0.334115   0.274441
     5  H    0.267804  -0.015480
     6  H    0.267804  -0.015480
 Sum of Mulliken charges =   1.00000   1.00000

 Dipole moment (field-independent basis, Debye):
    X=              0.0000    Y=              0.0000    Z=             -3.8103  Tot=              3.8103
 Quadrupole moment (field-independent basis, Debye-Ang):
   XX=            -18.5656   YY=            -20.9222   ZZ=             -7.4358
   XY=             -0.0000   XZ=             -0.0000   YZ=             -0.0000

  Exact polarizability:  26.838   0.000  25.907  -0.000   0.000  84.784
 Approx polarizability:  38.422  -0.000  34.865   0.000  -0.000 183.476

                      1                      2                      3
                     B2                     B1                     B2
 Frequencies --     87.6652               143.6478               392.5374
 Red. masses --      7.8785                 5.9014                 6.1899
 Frc consts  --      0.0357                 0.0717                 0.5619
 IR Inten    --      4.2626                 0.1606                16.0741

                      4                      5                      6
                     B1                     A1                     B2
 Frequencies --    411.6360               901.3782               937.4364
 Red. masses --      2.8516                 5.4910                 1.3510
 Frc consts  --      0.2847                 2.6285                 0.6995
 IR Inten    --      2.1532                 7.1307                33.4883

                      7                      8                      9
                     B1                     A1                     A1
 Frequencies --    953.4433              1367.2669              1515.1628
 Red. masses --      1.6876                 1.1816                 7.3616
 Frc consts  --      0.9039                 1.3014                 9.9573
 IR Inten    --      2.9605               105.8008                94.1492

                     10                     11                     12
                     A1                     A1                     B1
 Frequencies --   2072.7707              3070.9105              3163.7272
 Red. masses --     11.9451                 1.0528                 1.1165
 Frc consts  --     30.2373                 5.8497                 6.5843
 IR Inten    --    403.5258               169.0306                86.8829

 - Thermochemistry -
 -------------------
 Temperature   298.150 Kelvin.  Pressure   1.00000 Atm.
 Atom     1 has atomic number  6 and mass  12.00000

 Molecular mass:    50.01565 amu.
 Principal axes and moments of inertia in atomic units:
                           1         2         3
     Eigenvalues --     6.33933 405.94076 412.28009
           X            0.00000   1.00000  -0.00000
           Y            0.00000   0.00000   1.00000
           Z            1.00000   0.00000  -0.00000
 This molecule is an asymmetric top.
 Rotational symmetry number  2.
 Rotational temperatures (Kelvin)     13.66293     0.21337     0.21008
 Rotational constants (GHZ):         284.68954     4.44582     4.37746
 Zero-point vibrational energy      89825.1 (Joules/Mol)
                                   21.46871 (Kcal/Mol)
 Warning -- explicit consideration of   4 degrees of freedom as
           vibrations may cause significant error
 Vibrational temperatures:    126.13   206.68   564.77   592.25  1296.88
          (Kelvin)           1348.76  1371.79  1967.19  2179.98  2982.25
                             4418.35  4551.89

 Zero-point correction=                           0.034213 (Hartree/Particle)
 Thermal correction to Energy=                    0.039231
 Thermal correction to Enthalpy=                  0.040175
 Thermal correction to Gibbs Free Energy=         0.007855
 Sum of electronic and zero-point Energies=           -153.082145
 Sum of electronic and thermal Energies=              -153.077126
 Sum of electronic and thermal Enthalpies=            -153.076182
 Sum of electronic and thermal Free Energies=         -153.108502

                     E (Thermal)             CV                S
                      KCal/Mol        Cal/Mol-Kelvin    Cal/Mol-Kelvin
 Total                   24.618             14.339             68.024
 Electronic               0.000              0.000              1.377
 Translational            0.889              2.981             37.653
 Rotational               0.889              2.981             20.211
 Vibrational             22.840              8.377              8.782
 Vibration     1          0.601              1.958              3.712
 Vibration     2          0.616              1.910              2.755
 Vibration     3          0.760              1.486              0.990
 Vibration     4          0.776              1.445              0.921

 Optimization completed.
    -- Stationary point found.
 Normal termination of Gaussian 09 at Thu Jan 31 04:18:05 2019.
