 Gaussian 09, Revision E.01,
 Gaussian 09:  EM64L-G09RevE.01 30-Nov-2015

 ---------------------------------------------
 #p b3lyp/6-311++G(3df,2p) freq symmetry=Loose
 ---------------------------------------------

 ---------
 b3lyp opt
 ---------
 Symbolic Z-matrix:
 Charge =  0 Multiplicity = 3

                         Standard orientation:
 ---------------------------------------------------------------------
 Center     Atomic      Atomic             Coordinates (Angstroms)
 Number     Number       Type             X           Y           Z
 ---------------------------------------------------------------------
      1          6           0        1.730168   -0.168593    0.005619
      2          6           0        0.552969    0.140476   -0.005002
      3          6           0       -0.796320    0.442142   -0.025702
      4          6           0       -1.766598   -0.588625    0.010147
      5          1           0        2.756096   -0.447077    0.010325
      6          1           0       -1.077413    1.494672    0.079306
 ---------------------------------------------------------------------

 SCF Done:  E(UB3LYP) =  -153.391409938     A.U. after   21 cycles

 The electronic state is 3-A.
 Alpha  occ. eigenvalues --  -10.24487 -10.23595 -10.23206 -10.22131  -0.85164
 Alpha  occ. eigenvalues --   -0.77759  -0.62495  -0.56961  -0.51710  -0.39673
 Alpha  occ. eigenvalues --   -0.34597  -0.30451  -0.28954  -0.21248
 Alpha virt. eigenvalues --   -0.07575  -0.01594  -0.00862   0.00936   0.03416
 Alpha virt. eigenvalues --    0.04375   0.05014   0.06114   0.07993   0.08856
 Alpha virt. eigenvalues --    0.09190   0.09957   0.10723   0.11984   0.12060

  Beta  occ. eigenvalues --  -10.23963 -10.23323 -10.22889 -10.20309  -0.83477
  Beta  occ. eigenvalues --   -0.74983  -0.59761  -0.55456  -0.50230  -0.36471
  Beta  occ. eigenvalues --   -0.33216  -0.26946
  Beta virt. eigenvalues --   -0.19086  -0.05811  -0.03737  -0.00990  -0.00620
  Beta virt. eigenvalues --    0.01078   0.04239   0.04771   0.05310   0.07339
  Beta virt. eigenvalues --    0.08548   0.09356   0.09601   0.10650   0.11205

 Mulliken charges and spin densities:
               1          2
     1  C    0.443316   0.330572
     2  C   -0.066529  -0.111209
     3  C   -0.385543   0.513592
     4  C   -0.473294   1.233915
     5  H    0.330227  -0.012698
     6  H    0.151823   0.045828
 Sum of Mulliken charges =  -0.00000   2.00000

 Dipole moment (field-independent basis, Debye):
    X=              3.4974    Y=              1.8030    Z=             -0.2063  Tot=              3.9402
 Quadrupole moment (field-independent basis, Debye-Ang):
   XX=            -23.6530   YY=            -25.0367   ZZ=            -24.0806
   XY=             -5.3627   XZ=              0.6030   YZ=              0.2359

  Exact polarizability: 106.038  10.944  46.597   7.416   3.675  34.303
 Approx polarizability: 151.195   3.831  60.592   2.503   0.463  45.657

                      1                      2                      3
                      A                      A                      A
 Frequencies --    205.3844               338.0790               519.2193
 Red. masses --      5.2370                 2.3356                 3.6123
 Frc consts  --      0.1302                 0.1573                 0.5738
 IR Inten    --      3.2421                20.2041               192.7273

                      4                      5                      6
                      A                      A                      A
 Frequencies --    555.9211               607.7399               672.9003
 Red. masses --      3.0573                 1.2132                 1.3690
 Frc consts  --      0.5567                 0.2640                 0.3652
 IR Inten    --    175.7610                88.9931                30.8109

                      7                      8                      9
                      A                      A                      A
 Frequencies --    999.0488              1088.8132              1319.7884
 Red. masses --      7.0155                 2.0163                 1.8872
 Frc consts  --      4.1255                 1.4083                 1.9368
 IR Inten    --     22.7629                77.3183                 9.4810

                     10                     11                     12
                      A                      A                      A
 Frequencies --   2030.7216              3015.4312              3443.3440
 Red. masses --      6.5697                 1.0828                 1.1417
 Frc consts  --     15.9622                 5.8011                 7.9758
 IR Inten    --    201.0265                 9.7577                54.2390

 - Thermochemistry -
 -------------------
 Temperature   298.150 Kelvin.  Pressure   1.00000 Atm.
 Atom     1 has atomic number  6 and mass  12.00000

 Molecular mass:    50.01565 amu.
 Principal axes and moments of inertia in atomic units:
                           1         2         3
     Eigenvalues --    33.69870 333.99464 367.58865
           X            0.99945  -0.03313  -0.00094
           Y            0.03314   0.99937   0.01237
           Z            0.00053  -0.01239   0.99992
 This molecule is an asymmetric top.
 Rotational symmetry number  1.
 Rotational temperatures (Kelvin)      2.57024     0.25933     0.23563
 Rotational constants (GHZ):          53.55521     5.40350     4.90968
 Zero-point vibrational energy      88502.1 (Joules/Mol)
                                   21.15250 (Kcal/Mol)
 Warning -- explicit consideration of   5 degrees of freedom as
           vibrations may cause significant error
 Vibrational temperatures:    295.50   486.42   747.04   799.85   874.40
          (Kelvin)            968.15  1437.41  1566.56  1898.88  2921.75
                             4338.53  4954.20

 Zero-point correction=                           0.033709 (Hartree/Particle)
 Thermal correction to Energy=                    0.038218
 Thermal correction to Enthalpy=                  0.039162
 Thermal correction to Gibbs Free Energy=         0.006764
 Sum of electronic and zero-point Energies=           -153.357701
 Sum of electronic and thermal Energies=              -153.353192
 Sum of electronic and thermal Enthalpies=            -153.352248
 Sum of electronic and thermal Free Energies=         -153.384646

                     E (Thermal)             CV                S
                      KCal/Mol        Cal/Mol-Kelvin    Cal/Mol-Kelvin
 Total                   23.982             14.442             68.188
 Electronic               0.000              0.000              2.183
 Translational            0.889              2.981             37.653
 Rotational               0.889              2.981             22.941
 Vibrational             22.205              8.481              5.411
 Vibration     1          0.640              1.832              2.084
 Vibration     2          0.718              1.599              1.221
 Vibration     3          0.874              1.207              0.612
 Vibration     4          0.911              1.127              0.532
 Vibration     5          0.967              1.015              0.437

 Optimization completed.
    -- Stationary point found.
 Normal termination of Gaussian 09 at Sun Jun 19 00:49:25 2016.
