 Gaussian 09, Revision E.01,
 Gaussian 09:  EM64L-G09RevE.01 30-Nov-2015

 ------------------------------------------------------
 #p b3lyp/6-311++G(3df,2p) freq IOp(2/17=3) IOp(2/18=3)
 ------------------------------------------------------

 ---------
 b3lyp opt
 ---------
 Symbolic Z-matrix:
 Charge =  3 Multiplicity = 4

                         Standard orientation:
 ---------------------------------------------------------------------
 Center     Atomic      Atomic             Coordinates (Angstroms)
 Number     Number       Type             X           Y           Z
 ---------------------------------------------------------------------
      1          6           0       -0.000000   -0.000000   -1.777114
      2          6           0       -0.000000   -0.000000   -0.468497
      3          6           0        0.000000    0.000000    0.877898
      4          6           0        0.000000    0.000000    2.204800
      5          1           0        0.930371   -0.000000   -2.511265
      6          1           0       -0.930371    0.000000   -2.511265
 ---------------------------------------------------------------------

 SCF Done:  E(UB3LYP) =  -151.543546062     A.U. after   17 cycles

 The electronic state is 4-A2.
 Alpha  occ. eigenvalues --  -11.19521 -11.12073 -11.09752 -11.04442  -1.65758
 Alpha  occ. eigenvalues --   -1.58883  -1.48333  -1.27948  -1.21139  -1.20518
 Alpha  occ. eigenvalues --   -1.17821  -1.14954  -1.08224
 Alpha virt. eigenvalues --   -0.93905  -0.86828  -0.75629  -0.69150  -0.62319
 Alpha virt. eigenvalues --   -0.55428  -0.50862  -0.49666  -0.44156  -0.43319
 Alpha virt. eigenvalues --   -0.42851  -0.41745  -0.40078  -0.39333  -0.37072

  Beta  occ. eigenvalues --  -11.15560 -11.10961 -11.09503 -11.03768  -1.61698
  Beta  occ. eigenvalues --   -1.54245  -1.45481  -1.26287  -1.17085  -1.13134
  Beta virt. eigenvalues --   -1.02210  -0.95760  -0.94176  -0.87999  -0.79299
  Beta virt. eigenvalues --   -0.68144  -0.63831  -0.59082  -0.54538  -0.49731
  Beta virt. eigenvalues --   -0.48001  -0.43360  -0.42890  -0.42259  -0.40716

 Mulliken charges and spin densities:
               1          2
     1  C    0.034653   0.268976
     2  C    0.655890   0.427568
     3  C    0.722856   0.605766
     4  C    0.730958   1.615831
     5  H    0.427822   0.040930
     6  H    0.427822   0.040930
 Sum of Mulliken charges =   3.00000   3.00000

 Dipole moment (field-independent basis, Debye):
    X=              0.0000    Y=              0.0000    Z=             -1.1192  Tot=              1.1192
 Quadrupole moment (field-independent basis, Debye-Ang):
   XX=            -11.9799   YY=            -16.8930   ZZ=             41.0112
   XY=             -0.0000   XZ=              0.0000   YZ=             -0.0000

  Exact polarizability:  19.339  -0.000  16.109  -0.000  -0.000  80.277
 Approx polarizability:  27.695  -0.000  21.485  -0.000  -0.000 186.678

                      1                      2                      3
                     B1                     B2                     B1
 Frequencies --    214.1496               224.1783               403.5923
 Red. masses --      3.2789                 4.8644                 2.0065
 Frc consts  --      0.0886                 0.1440                 0.1926
 IR Inten    --     33.2510                38.6799                35.2636

                      4                      5                      6
                     B2                     B1                     A1
 Frequencies --    466.5955               662.4390               773.7686
 Red. masses --      8.3197                 3.6759                 3.2813
 Frc consts  --      1.0672                 0.9504                 1.1575
 IR Inten    --      2.5714                30.2736               473.0407

                      7                      8                      9
                     B2                     A1                     A1
 Frequencies --    821.4869               877.1140              1497.1514
 Red. masses --      1.4436                 1.3322                 8.8861
 Frc consts  --      0.5740                 0.6039                11.7353
 IR Inten    --     77.6451               344.2177               454.9731

                     10                     11                     12
                     A1                     B1                     A1
 Frequencies --   1790.6648              2134.5886              2252.4188
 Red. masses --      9.1009                 1.0825                 1.0869
 Frc consts  --     17.1935                 2.9060                 3.2489
 IR Inten    --      2.7529               841.4726              2050.2853

 - Thermochemistry -
 -------------------
 Temperature   298.150 Kelvin.  Pressure   1.00000 Atm.
 Atom     1 has atomic number  6 and mass  12.00000

 Molecular mass:    50.01565 amu.
 Principal axes and moments of inertia in atomic units:
                           1         2         3
     Eigenvalues --     6.23054 429.70182 435.93236
           X            0.00000   1.00000  -0.00000
           Y            0.00000   0.00000   1.00000
           Z            1.00000   0.00000  -0.00000
 This molecule is an asymmetric top.
 Rotational symmetry number  2.
 Rotational temperatures (Kelvin)     13.90149     0.20157     0.19869
 Rotational constants (GHZ):         289.66049     4.19999     4.13996
 Zero-point vibrational energy      72482.6 (Joules/Mol)
                                   17.32376 (Kcal/Mol)
 Warning -- explicit consideration of   4 degrees of freedom as
           vibrations may cause significant error
 Vibrational temperatures:    308.11   322.54   580.68   671.33   953.10
          (Kelvin)           1113.28  1181.93  1261.97  2154.06  2576.36
                             3071.19  3240.72

 Zero-point correction=                           0.027607 (Hartree/Particle)
 Thermal correction to Energy=                    0.032412
 Thermal correction to Enthalpy=                  0.033356
 Thermal correction to Gibbs Free Energy=         0.001385
 Sum of electronic and zero-point Energies=           -151.515939
 Sum of electronic and thermal Energies=              -151.511135
 Sum of electronic and thermal Enthalpies=            -151.510190
 Sum of electronic and thermal Free Energies=         -151.542161

                     E (Thermal)             CV                S
                      KCal/Mol        Cal/Mol-Kelvin    Cal/Mol-Kelvin
 Total                   20.339             15.231             67.287
 Electronic               0.000              0.000              2.755
 Translational            0.889              2.981             37.653
 Rotational               0.889              2.981             20.306
 Vibrational             18.561              9.269              6.573
 Vibration     1          0.644              1.819              2.008
 Vibration     2          0.649              1.804              1.925
 Vibration     3          0.769              1.462              0.950
 Vibration     4          0.824              1.324              0.747

 Optimization completed.
    -- Stationary point found.
 Normal termination of Gaussian 09 at Thu Jan 31 04:22:53 2019.
