 Gaussian 09, Revision E.01,
 Gaussian 09:  EM64L-G09RevE.01 30-Nov-2015

 ---------------------------------------------
 #p b3lyp/6-311++G(3df,2p) freq symmetry=Loose
 ---------------------------------------------

 ---------
 b3lyp opt
 ---------
 Symbolic Z-matrix:
 Charge =  2 Multiplicity = 1

                         Standard orientation:
 ---------------------------------------------------------------------
 Center     Atomic      Atomic             Coordinates (Angstroms)
 Number     Number       Type             X           Y           Z
 ---------------------------------------------------------------------
      1          6           0       -0.000000    0.683969   -0.855788
      2          6           0       -0.000000   -0.683969   -0.855788
      3          6           0        0.000000    0.000000    0.354633
      4          6           0        0.000000    0.000000    1.801043
      5          1           0       -0.000000    1.674467   -1.332301
      6          1           0       -0.000000   -1.674467   -1.332301
 ---------------------------------------------------------------------

 SCF Done:  E(RB3LYP) =  -152.483318152     A.U. after   10 cycles

 The electronic state is 1-A1.
 Alpha  occ. eigenvalues --  -10.92245 -10.81083 -10.81017 -10.79659  -1.50359
 Alpha  occ. eigenvalues --   -1.29175  -1.12027  -1.06923  -0.95928  -0.94317
 Alpha  occ. eigenvalues --   -0.91915  -0.85962
 Alpha virt. eigenvalues --   -0.71852  -0.67383  -0.55488  -0.50423  -0.37200
 Alpha virt. eigenvalues --   -0.35749  -0.33416  -0.31356  -0.31230  -0.28085
 Alpha virt. eigenvalues --   -0.26489  -0.24887  -0.22348  -0.21242  -0.20984

 Mulliken charges:
               1
     1  C    0.239253
     2  C    0.239253
     3  C    0.458034
     4  C    0.279346
     5  H    0.392057
     6  H    0.392057
 Sum of Mulliken charges =   2.00000

 Dipole moment (field-independent basis, Debye):
    X=             -0.0000    Y=             -0.0000    Z=             -0.6466  Tot=              0.6466
 Quadrupole moment (field-independent basis, Debye-Ang):
   XX=            -17.3069   YY=             -8.2704   ZZ=             -3.3066
   XY=              0.0000   XZ=              0.0000   YZ=              0.0000

  Exact polarizability:  19.967  -0.000  28.656   0.000   0.000  44.521
 Approx polarizability:  30.878   0.000  44.792   0.000   0.000  90.440

                      1                      2                      3
                     B2                     B1                     A1
 Frequencies --    203.5513               262.3611               782.3530
 Red. masses --      4.9729                 6.7318                 3.3495
 Frc consts  --      0.1214                 0.2730                 1.2079
 IR Inten    --      0.0527                 0.2043                53.0229

                      4                      5                      6
                     B1                     A2                     A1
 Frequencies --    841.5972               929.9742               964.4920
 Red. masses --      1.2002                 1.4537                 1.3432
 Frc consts  --      0.5009                 0.7407                 0.7362
 IR Inten    --     60.9062                 0.0000                68.6425

                      7                      8                      9
                     B2                     B2                     A1
 Frequencies --   1001.6772              1074.0187              1271.1574
 Red. masses --      1.3163                 7.4536                 7.9406
 Frc consts  --      0.7782                 5.0657                 7.5597
 IR Inten    --     16.5116                49.9941               163.2763

                     10                     11                     12
                     A1                     B2                     A1
 Frequencies --   1635.0666              3055.2996              3096.9505
 Red. masses --      6.2389                 1.1000                 1.1513
 Frc consts  --      9.8272                 6.0498                 6.5058
 IR Inten    --    630.4837               388.5356               130.8193

 - Thermochemistry -
 -------------------
 Temperature   298.150 Kelvin.  Pressure   1.00000 Atm.
 Atom     1 has atomic number  6 and mass  12.00000

 Molecular mass:    50.01565 amu.
 Principal axes and moments of inertia in atomic units:
                           1         2         3
     Eigenvalues --    60.27625 219.43940 279.71565
           X            0.00000   0.00000   1.00000
           Y            0.00000   1.00000  -0.00000
           Z            1.00000  -0.00000  -0.00000
 This molecule is an asymmetric top.
 Rotational symmetry number  2.
 Rotational temperatures (Kelvin)      1.43695     0.39470     0.30965
 Rotational constants (GHZ):          29.94116     8.22433     6.45206
 Zero-point vibrational energy      90428.7 (Joules/Mol)
                                   21.61298 (Kcal/Mol)
 Warning -- explicit consideration of   2 degrees of freedom as
           vibrations may cause significant error
 Vibrational temperatures:    292.86   377.48  1125.63  1210.87  1338.02
          (Kelvin)           1387.69  1441.19  1545.27  1828.91  2352.49
                             4395.89  4455.82

 Zero-point correction=                           0.034442 (Hartree/Particle)
 Thermal correction to Energy=                    0.038620
 Thermal correction to Enthalpy=                  0.039565
 Thermal correction to Gibbs Free Energy=         0.009307
 Sum of electronic and zero-point Energies=           -152.448876
 Sum of electronic and thermal Energies=              -152.444698
 Sum of electronic and thermal Enthalpies=            -152.443753
 Sum of electronic and thermal Free Energies=         -152.474011

                     E (Thermal)             CV                S
                      KCal/Mol        Cal/Mol-Kelvin    Cal/Mol-Kelvin
 Total                   24.235             12.569             63.682
 Electronic               0.000              0.000              0.000
 Translational            0.889              2.981             37.653
 Rotational               0.889              2.981             21.453
 Vibrational             22.457              6.607              4.576
 Vibration     1          0.639              1.835              2.101
 Vibration     2          0.670              1.742              1.646

 Optimization completed.
    -- Stationary point found.
 Normal termination of Gaussian 09 at Tue Jul 19 03:33:43 2016.
