 Gaussian 09, Revision E.01,
 Gaussian 09:  EM64L-G09RevE.01 30-Nov-2015

 ---------------------------------------------
 #p b3lyp/6-311++G(3df,2p) freq symmetry=Loose
 ---------------------------------------------

 ---------
 b3lyp opt
 ---------
 Symbolic Z-matrix:
 Charge =  2 Multiplicity = 3

                         Standard orientation:
 ---------------------------------------------------------------------
 Center     Atomic      Atomic             Coordinates (Angstroms)
 Number     Number       Type             X           Y           Z
 ---------------------------------------------------------------------
      1          6           0       -1.171064   -0.173454    0.000000
      2          6           0       -0.000000    0.797335   -0.000000
      3          6           0        1.171116    0.173647   -0.000000
      4          6           0       -0.000061   -0.797608    0.000000
      5          1           0       -2.269333   -0.132335    0.000000
      6          1           0        2.269390    0.132815   -0.000000
 ---------------------------------------------------------------------

 SCF Done:  E(UB3LYP) =  -152.462447513     A.U. after   14 cycles

 The electronic state is 3-A".
 Alpha  occ. eigenvalues --  -10.89346 -10.89329 -10.82886 -10.82881  -1.57407
 Alpha  occ. eigenvalues --   -1.31207  -1.14241  -1.09175  -1.01872  -1.00454
 Alpha  occ. eigenvalues --   -1.00059  -0.91326  -0.80049
 Alpha virt. eigenvalues --   -0.63880  -0.61254  -0.51681  -0.40457  -0.39121
 Alpha virt. eigenvalues --   -0.33547  -0.32650  -0.31321  -0.28717  -0.27531
 Alpha virt. eigenvalues --   -0.24659  -0.24611  -0.22344  -0.21280  -0.20584

  Beta  occ. eigenvalues --  -10.88000 -10.87988 -10.82187 -10.82184  -1.55317
  Beta  occ. eigenvalues --   -1.28617  -1.09482  -1.07803  -1.00454  -0.98887
  Beta  occ. eigenvalues --   -0.95853
  Beta virt. eigenvalues --   -0.75422  -0.68276  -0.59886  -0.54773  -0.45885
  Beta virt. eigenvalues --   -0.38953  -0.37863  -0.32786  -0.31687  -0.30669
  Beta virt. eigenvalues --   -0.28084  -0.26796  -0.24290  -0.23373  -0.21715

 Mulliken charges and spin densities:
               1          2
     1  C   -0.080402   0.377332
     2  C    0.679790   0.622669
     3  C   -0.080373   0.377518
     4  C    0.679430   0.623400
     5  H    0.400759  -0.000449
     6  H    0.400796  -0.000469
 Sum of Mulliken charges =   2.00000   2.00000

 Dipole moment (field-independent basis, Debye):
    X=              0.0002    Y=              0.0002    Z=             -0.0000  Tot=              0.0003
 Quadrupole moment (field-independent basis, Debye-Ang):
   XX=              1.9907   YY=            -13.3786   ZZ=            -18.3499
   XY=              1.2190   XZ=              0.0000   YZ=              0.0000

  Exact polarizability:  38.624   1.556  26.885   0.000   0.000  18.083
 Approx polarizability:  66.410  -2.226  60.816   0.000  -0.000  26.831

                      1                      2                      3
                     A"                     A'                     A"
 Frequencies --    403.4895               469.6705               662.0978
 Red. masses --      3.5194                 7.1479                 1.3249
 Frc consts  --      0.3376                 0.9290                 0.3422
 IR Inten    --      9.1317                 6.5069                83.9323

                      4                      5                      6
                     A"                     A'                     A'
 Frequencies --    693.2526               742.4379               797.9989
 Red. masses --      1.2963                 4.2372                10.0556
 Frc consts  --      0.3671                 1.3761                 3.7728
 IR Inten    --      0.0012                 0.0000                 0.0000

                      7                      8                      9
                     A'                     A'                     A'
 Frequencies --    955.8023               994.7754              1478.3216
 Red. masses --      1.1097                 1.4239                 6.7667
 Frc consts  --      0.5973                 0.8302                 8.7129
 IR Inten    --     86.7235                 0.0000                 0.0079

                     10                     11                     12
                     A'                     A'                     A'
 Frequencies --   1494.9878              3058.7609              3080.8885
 Red. masses --      7.1420                 1.1151                 1.1244
 Frc consts  --      9.4046                 6.1467                 6.2883
 IR Inten    --     66.0905               825.2655                 0.0015

 - Thermochemistry -
 -------------------
 Temperature   298.150 Kelvin.  Pressure   1.00000 Atm.
 Atom     1 has atomic number  6 and mass  12.00000

 Molecular mass:    50.01565 amu.
 Principal axes and moments of inertia in atomic units:
                           1         2         3
     Eigenvalues --    53.42200 158.40211 211.82411
           X            0.98178  -0.19004   0.00000
           Y            0.19004   0.98178   0.00000
           Z           -0.00000  -0.00000   1.00000
 This molecule is an asymmetric top.
 Rotational symmetry number  1.
 Rotational temperatures (Kelvin)      1.62131     0.54680     0.40889
 Rotational constants (GHZ):          33.78274    11.39342     8.52000
 Zero-point vibrational energy      88718.0 (Joules/Mol)
                                   21.20410 (Kcal/Mol)
 Warning -- explicit consideration of   2 degrees of freedom as
           vibrations may cause significant error
 Vibrational temperatures:    580.53   675.75   952.61   997.43  1068.20
          (Kelvin)           1148.14  1375.18  1431.26  2126.97  2150.95
                             4400.87  4432.71

 Zero-point correction=                           0.033791 (Hartree/Particle)
 Thermal correction to Energy=                    0.037689
 Thermal correction to Enthalpy=                  0.038633
 Thermal correction to Gibbs Free Energy=         0.007747
 Sum of electronic and zero-point Energies=           -152.428657
 Sum of electronic and thermal Energies=              -152.424759
 Sum of electronic and thermal Enthalpies=            -152.423815
 Sum of electronic and thermal Free Energies=         -152.454700

                     E (Thermal)             CV                S
                      KCal/Mol        Cal/Mol-Kelvin    Cal/Mol-Kelvin
 Total                   23.650             12.860             65.004
 Electronic               0.000              0.000              2.183
 Translational            0.889              2.981             37.653
 Rotational               0.889              2.981             22.110
 Vibrational             21.872              6.898              3.058
 Vibration     1          0.769              1.463              0.950
 Vibration     2          0.827              1.317              0.738

 Optimization completed.
    -- Stationary point found.
 Normal termination of Gaussian 09 at Tue Jul 19 04:21:49 2016.
