 Gaussian 09, Revision E.01,
 Gaussian 09:  EM64L-G09RevE.01 30-Nov-2015

 ---------------------------------------------
 #p b3lyp/6-311++G(3df,2p) freq symmetry=Loose
 ---------------------------------------------

 ---------
 b3lyp opt
 ---------
 Symbolic Z-matrix:
 Charge =  1 Multiplicity = 2

                         Standard orientation:
 ---------------------------------------------------------------------
 Center     Atomic      Atomic             Coordinates (Angstroms)
 Number     Number       Type             X           Y           Z
 ---------------------------------------------------------------------
      1          6           0       -1.144853    0.000000    0.000000
      2          6           0       -0.000000    0.788987    0.000000
      3          6           0        1.144853   -0.000000    0.000000
      4          6           0       -0.000000   -0.788987    0.000000
      5          1           0       -2.221046    0.000000    0.000000
      6          1           0        2.221046   -0.000000    0.000000
 ---------------------------------------------------------------------

 SCF Done:  E(UB3LYP) =  -153.133600963     A.U. after   10 cycles

 The electronic state is 2-B2G.
 Alpha  occ. eigenvalues --  -10.55417 -10.55400 -10.52782 -10.52774  -1.29282
 Alpha  occ. eigenvalues --   -1.02030  -0.83812  -0.83696  -0.75674  -0.72480
 Alpha  occ. eigenvalues --   -0.70887  -0.57206  -0.51724
 Alpha virt. eigenvalues --   -0.34620  -0.30389  -0.22963  -0.16332  -0.13740
 Alpha virt. eigenvalues --   -0.13576  -0.13430  -0.11355  -0.08977  -0.06717
 Alpha virt. eigenvalues --   -0.06439  -0.06355  -0.04275  -0.04115  -0.02465

  Beta  occ. eigenvalues --  -10.55578 -10.55561 -10.51807 -10.51802  -1.28380
  Beta  occ. eigenvalues --   -0.99433  -0.83543  -0.82424  -0.75062  -0.70162
  Beta  occ. eigenvalues --   -0.69216  -0.57470
  Beta virt. eigenvalues --   -0.38765  -0.35204  -0.29863  -0.18639  -0.15728
  Beta virt. eigenvalues --   -0.13447  -0.13298  -0.13086  -0.10590  -0.08985
  Beta virt. eigenvalues --   -0.06703  -0.06154  -0.05613  -0.04361  -0.03838

 Mulliken charges and spin densities:
               1          2
     1  C   -0.115358   0.659308
     2  C    0.291154  -0.139773
     3  C   -0.115358   0.659308
     4  C    0.291154  -0.139773
     5  H    0.324204  -0.019534
     6  H    0.324204  -0.019534
 Sum of Mulliken charges =   1.00000   1.00000

 Dipole moment (field-independent basis, Debye):
    X=              0.0000    Y=             -0.0000    Z=             -0.0000  Tot=              0.0000
 Quadrupole moment (field-independent basis, Debye-Ang):
   XX=             -7.3573   YY=            -20.8183   ZZ=            -20.5549
   XY=             -0.0000   XZ=             -0.0000   YZ=             -0.0000

  Exact polarizability:  41.425  -0.000  33.614   0.000   0.000  21.070
 Approx polarizability:  67.749   0.000  78.853  -0.000  -0.000  31.617

                      1                      2                      3
                     B2G                    B1U                    B1U
 Frequencies --    490.6308               531.2535               550.6691
 Red. masses --      1.2921                 4.2256                 1.2464
 Frc consts  --      0.1833                 0.7027                 0.2227
 IR Inten    --      0.0000                26.3775                38.8833

                      4                      5                      6
                     B2U                    B1G                    AG
 Frequencies --    744.1313               760.7561               865.9716
 Red. masses --      4.5590                 5.9551                 9.4623
 Frc consts  --      1.4874                 2.0306                 4.1808
 IR Inten    --     70.7496                 0.0000                 0.0000

                      7                      8                      9
                     B2U                    B1G                    AG
 Frequencies --   1039.7395              1056.9071              1368.0034
 Red. masses --      1.2201                 1.3383                 6.1956
 Frc consts  --      0.7771                 0.8808                 6.8314
 IR Inten    --      9.8356                 0.0000                 0.0000

                     10                     11                     12
                     B3U                    B3U                    AG
 Frequencies --   1408.4025              3285.1347              3302.7054
 Red. masses --      7.4784                 1.1047                 1.1213
 Frc consts  --      8.7400                 7.0243                 7.2063
 IR Inten    --     20.7885               272.2824                 0.0000

 - Thermochemistry -
 -------------------
 Temperature   298.150 Kelvin.  Pressure   1.00000 Atm.
 Atom     1 has atomic number  6 and mass  12.00000

 Molecular mass:    50.01565 amu.
 Principal axes and moments of inertia in atomic units:
                           1         2         3
     Eigenvalues --    53.35168 147.84134 201.19303
           X            1.00000   0.00000   0.00000
           Y           -0.00000   1.00000   0.00000
           Z           -0.00000   0.00000   1.00000
 This molecule is an asymmetric top.
 Rotational symmetry number  4.
 Rotational temperatures (Kelvin)      1.62345     0.58586     0.43050
 Rotational constants (GHZ):          33.82726    12.20728     8.97020
 Zero-point vibrational energy      92138.2 (Joules/Mol)
                                   22.02156 (Kcal/Mol)
 Warning -- explicit consideration of   3 degrees of freedom as
           vibrations may cause significant error
 Vibrational temperatures:    705.91   764.35   792.29  1070.64  1094.56
          (Kelvin)           1245.94  1495.95  1520.65  1968.25  2026.37
                             4726.57  4751.85

 Zero-point correction=                           0.035094 (Hartree/Particle)
 Thermal correction to Energy=                    0.038873
 Thermal correction to Enthalpy=                  0.039817
 Thermal correction to Gibbs Free Energy=         0.010870
 Sum of electronic and zero-point Energies=           -153.098507
 Sum of electronic and thermal Energies=              -153.094728
 Sum of electronic and thermal Enthalpies=            -153.093783
 Sum of electronic and thermal Free Energies=         -153.122731

                     E (Thermal)             CV                S
                      KCal/Mol        Cal/Mol-Kelvin    Cal/Mol-Kelvin
 Total                   24.393             12.440             60.925
 Electronic               0.000              0.000              1.377
 Translational            0.889              2.981             37.653
 Rotational               0.889              2.981             19.234
 Vibrational             22.616              6.478              2.660
 Vibration     1          0.846              1.271              0.682
 Vibration     2          0.886              1.181              0.584
 Vibration     3          0.906              1.138              0.543

 Optimization completed.
    -- Stationary point found.
 Normal termination of Gaussian 09 at Tue Jul 19 03:42:00 2016.
