 Gaussian 09, Revision E.01,
 Gaussian 09:  EM64L-G09RevE.01 30-Nov-2015

 ---------------------------------------------
 #p b3lyp/6-311++G(3df,2p) freq symmetry=Loose
 ---------------------------------------------

 ---------
 b3lyp opt
 ---------
 Symbolic Z-matrix:
 Charge =  0 Multiplicity = 3

                         Standard orientation:
 ---------------------------------------------------------------------
 Center     Atomic      Atomic             Coordinates (Angstroms)
 Number     Number       Type             X           Y           Z
 ---------------------------------------------------------------------
      1          6           0        0.000000    1.072960   -0.122044
      2          6           0       -0.890702    0.000000    0.134489
      3          6           0       -0.000000   -1.072960   -0.122044
      4          6           0        0.890702   -0.000000    0.134489
      5          1           0        0.000000    2.144558   -0.074668
      6          1           0       -0.000000   -2.144558   -0.074668
 ---------------------------------------------------------------------

 SCF Done:  E(UB3LYP) =  -153.411363900     A.U. after   13 cycles

 The electronic state is 3-A2.
 Alpha  occ. eigenvalues --  -10.24088 -10.24084 -10.23545 -10.23535  -0.96397
 Alpha  occ. eigenvalues --   -0.71099  -0.59071  -0.57389  -0.45185  -0.44177
 Alpha  occ. eigenvalues --   -0.42741  -0.31727  -0.23996  -0.21363
 Alpha virt. eigenvalues --   -0.05157  -0.00463   0.00420   0.00990   0.03783
 Alpha virt. eigenvalues --    0.04561   0.06908   0.07532   0.08814   0.09515
 Alpha virt. eigenvalues --    0.10260   0.10674   0.12163   0.12191   0.12505

  Beta  occ. eigenvalues --  -10.23422 -10.23416 -10.22529 -10.22523  -0.94366
  Beta  occ. eigenvalues --   -0.68324  -0.56580  -0.56002  -0.44384  -0.41076
  Beta  occ. eigenvalues --   -0.38099  -0.28518
  Beta virt. eigenvalues --   -0.11675  -0.09536  -0.04487   0.00170   0.01070
  Beta virt. eigenvalues --    0.03276   0.04024   0.05146   0.07536   0.07936
  Beta virt. eigenvalues --    0.09585   0.10558   0.10807   0.10818   0.12404

 Mulliken charges and spin densities:
               1          2
     1  C   -0.124525   0.666687
     2  C   -0.090841   0.342045
     3  C   -0.124525   0.666687
     4  C   -0.090841   0.342045
     5  H    0.215366  -0.008732
     6  H    0.215366  -0.008732
 Sum of Mulliken charges =  -0.00000   2.00000

 Dipole moment (field-independent basis, Debye):
    X=              0.0000    Y=             -0.0000    Z=             -0.6197  Tot=              0.6197
 Quadrupole moment (field-independent basis, Debye-Ang):
   XX=            -27.9136   YY=            -17.2761   ZZ=            -24.9260
   XY=              0.0000   XZ=             -0.0000   YZ=              0.0000

  Exact polarizability:  53.022  -0.000  50.599   0.000  -0.000  30.216
 Approx polarizability: 109.454  -0.000  81.199  -0.000  -0.000  43.174

                      1                      2                      3
                     B2                     A1                     A1
 Frequencies --    582.4390               582.6255               660.1304
 Red. masses --      1.3270                 2.1520                 2.0972
 Frc consts  --      0.2652                 0.4304                 0.5384
 IR Inten    --     31.3308                16.5353                23.1085

                      4                      5                      6
                     A1                     B1                     A2
 Frequencies --    820.4468               837.2011              1040.2927
 Red. masses --      4.9285                 2.4253                 2.4131
 Frc consts  --      1.9546                 1.0015                 1.5386
 IR Inten    --     12.0689                72.6868                 0.0000

                      7                      8                      9
                     A2                     B1                     B2
 Frequencies --   1076.3206              1153.0588              1209.0430
 Red. masses --      1.9587                 1.5973                 7.1043
 Frc consts  --      1.3369                 1.2512                 6.1186
 IR Inten    --      0.0000                 0.0146                 0.8768

                     10                     11                     12
                     A1                     B2                     A1
 Frequencies --   1313.6627              3295.3038              3301.5947
 Red. masses --      6.6974                 1.0952                 1.1061
 Frc consts  --      6.8096                 7.0069                 7.1036
 IR Inten    --      0.3687                11.1030                 0.2705

 - Thermochemistry -
 -------------------
 Temperature   298.150 Kelvin.  Pressure   1.00000 Atm.
 Atom     1 has atomic number  6 and mass  12.00000

 Molecular mass:    50.01565 amu.
 Principal axes and moments of inertia in atomic units:
                           1         2         3
     Eigenvalues --    70.85974 134.63791 199.76703
           X            0.00000   1.00000   0.00000
           Y            1.00000  -0.00000   0.00000
           Z           -0.00000  -0.00000   1.00000
 This molecule is an asymmetric top.
 Rotational symmetry number  2.
 Rotational temperatures (Kelvin)      1.22233     0.64331     0.43357
 Rotational constants (GHZ):          25.46920    13.40441     9.03423
 Zero-point vibrational energy      94936.4 (Joules/Mol)
                                   22.69033 (Kcal/Mol)
 Warning -- explicit consideration of   2 degrees of freedom as
           vibrations may cause significant error
 Vibrational temperatures:    838.00   838.27   949.78  1180.44  1204.54
          (Kelvin)           1496.75  1548.58  1658.99  1739.54  1890.07
                             4741.20  4750.25

 Zero-point correction=                           0.036159 (Hartree/Particle)
 Thermal correction to Energy=                    0.039708
 Thermal correction to Enthalpy=                  0.040652
 Thermal correction to Gibbs Free Energy=         0.010918
 Sum of electronic and zero-point Energies=           -153.375205
 Sum of electronic and thermal Energies=              -153.371656
 Sum of electronic and thermal Enthalpies=            -153.370712
 Sum of electronic and thermal Free Energies=         -153.400446

                     E (Thermal)             CV                S
                      KCal/Mol        Cal/Mol-Kelvin    Cal/Mol-Kelvin
 Total                   24.917             11.431             62.582
 Electronic               0.000              0.000              2.183
 Translational            0.889              2.981             37.653
 Rotational               0.889              2.981             20.793
 Vibrational             23.140              5.469              1.953
 Vibration     1          0.939              1.069              0.481
 Vibration     2          0.939              1.069              0.481

 Optimization completed.
    -- Stationary point found.
 Normal termination of Gaussian 09 at Tue Jul 19 03:47:05 2016.
