 Gaussian 09, Revision E.01,
 Gaussian 09:  EM64L-G09RevE.01 30-Nov-2015

 ---------------------------------------------
 #p b3lyp/6-311++G(3df,2p) freq symmetry=Loose
 ---------------------------------------------

 ---------
 b3lyp opt
 ---------
 Symbolic Z-matrix:
 Charge =  2 Multiplicity = 3

                         Standard orientation:
 ---------------------------------------------------------------------
 Center     Atomic      Atomic             Coordinates (Angstroms)
 Number     Number       Type             X           Y           Z
 ---------------------------------------------------------------------
      1          6           0        1.753669   -0.517321   -0.000433
      2          6           0        0.641106    0.354840    0.000216
      3          6           0       -0.752406    0.048578   -0.001207
      4          6           0       -1.976596   -0.202083    0.000534
      5          1           0        1.002281    0.944775    0.924083
      6          1           0        1.003084    0.951140   -0.918746
 ---------------------------------------------------------------------

 SCF Done:  E(UB3LYP) =  -152.339413549     A.U. after   29 cycles

 The electronic state is 3-A.
 Alpha  occ. eigenvalues --  -10.89308 -10.83716 -10.79642 -10.76651  -1.39462
 Alpha  occ. eigenvalues --   -1.32798  -1.15638  -1.01655  -0.99832  -0.92214
 Alpha  occ. eigenvalues --   -0.88563  -0.83858  -0.83710
 Alpha virt. eigenvalues --   -0.65055  -0.63118  -0.53940  -0.51025  -0.38135
 Alpha virt. eigenvalues --   -0.33383  -0.33184  -0.29296  -0.27270  -0.25952
 Alpha virt. eigenvalues --   -0.23889  -0.21869  -0.21254  -0.20746  -0.18739

  Beta  occ. eigenvalues --  -10.89157 -10.80463 -10.78864 -10.76628  -1.38498
  Beta  occ. eigenvalues --   -1.27989  -1.14149  -1.00997  -0.99727  -0.84635
  Beta  occ. eigenvalues --   -0.81228
  Beta virt. eigenvalues --   -0.71355  -0.67631  -0.64364  -0.62980  -0.47628
  Beta virt. eigenvalues --   -0.45829  -0.37319  -0.32740  -0.32189  -0.29033
  Beta virt. eigenvalues --   -0.26577  -0.25877  -0.23105  -0.20770  -0.20567

 Mulliken charges and spin densities:
               1          2
     1  C    0.270949   0.093088
     2  C   -0.260608  -0.020156
     3  C    0.767075   0.475779
     4  C    0.520789   1.421112
     5  H    0.351000   0.015063
     6  H    0.350796   0.015114
 Sum of Mulliken charges =   2.00000   2.00000

 Dipole moment (field-independent basis, Debye):
    X=              0.3486    Y=              0.9081    Z=              0.0044  Tot=              0.9728
 Quadrupole moment (field-independent basis, Debye-Ang):
   XX=              4.5160   YY=            -14.4144   ZZ=            -16.3570
   XY=              2.5210   XZ=              0.0009   YZ=              0.0018

  Exact polarizability:  62.594  -1.046  25.461  -0.012  -0.009  25.607
 Approx polarizability: 114.033  -6.143  43.508  -0.059  -0.003  36.402

                      1                      2                      3
                      A                      A                      A
 Frequencies --    227.5847               249.4610               419.8411
 Red. masses --      9.7896                 3.5199                 1.9061
 Frc consts  --      0.2987                 0.1291                 0.1980
 IR Inten    --      3.6232                10.9689                 3.4852

                      4                      5                      6
                      A                      A                      A
 Frequencies --    468.9127               759.4991               934.4014
 Red. masses --      5.0471                 3.0488                 1.7195
 Frc consts  --      0.6538                 1.0362                 0.8846
 IR Inten    --      4.1388                 6.7599                 4.3279

                      7                      8                      9
                      A                      A                      A
 Frequencies --    935.1252              1194.1055              1363.4498
 Red. masses --      1.1840                 1.2307                 4.0029
 Frc consts  --      0.6100                 1.0339                 4.3843
 IR Inten    --     10.0350               139.7604               311.6857

                     10                     11                     12
                      A                      A                      A
 Frequencies --   2057.1051              2548.2560              2550.9535
 Red. masses --     11.8962                 1.0712                 1.0702
 Frc consts  --     29.6600                 4.0984                 4.1031
 IR Inten    --     22.7147               319.2507               319.7000

 - Thermochemistry -
 -------------------
 Temperature   298.150 Kelvin.  Pressure   1.00000 Atm.
 Atom     1 has atomic number  6 and mass  12.00000

 Molecular mass:    50.01565 amu.
 Principal axes and moments of inertia in atomic units:
                           1         2         3
     Eigenvalues --    30.89041 354.30021 372.96805
           X            0.99977   0.02166   0.00005
           Y           -0.02166   0.99977  -0.00010
           Z           -0.00005   0.00009   1.00000
 This molecule is an asymmetric top.
 Rotational symmetry number  1.
 Rotational temperatures (Kelvin)      2.80391     0.24446     0.23223
 Rotational constants (GHZ):          58.42400     5.09382     4.83886
 Zero-point vibrational energy      81996.2 (Joules/Mol)
                                   19.59756 (Kcal/Mol)
 Warning -- explicit consideration of   4 degrees of freedom as
           vibrations may cause significant error
 Vibrational temperatures:    327.44   358.92   604.06   674.66  1092.75
          (Kelvin)           1344.39  1345.43  1718.05  1961.70  2959.71
                             3666.37  3670.25

 Zero-point correction=                           0.031231 (Hartree/Particle)
 Thermal correction to Energy=                    0.035820
 Thermal correction to Enthalpy=                  0.036764
 Thermal correction to Gibbs Free Energy=         0.004180
 Sum of electronic and zero-point Energies=           -152.308183
 Sum of electronic and thermal Energies=              -152.303594
 Sum of electronic and thermal Enthalpies=            -152.302649
 Sum of electronic and thermal Free Energies=         -152.335234

                     E (Thermal)             CV                S
                      KCal/Mol        Cal/Mol-Kelvin    Cal/Mol-Kelvin
 Total                   22.477             14.240             68.580
 Electronic               0.000              0.000              2.183
 Translational            0.889              2.981             37.653
 Rotational               0.889              2.981             22.928
 Vibrational             20.700              8.278              5.816
 Vibration     1          0.651              1.799              1.898
 Vibration     2          0.662              1.764              1.734
 Vibration     3          0.783              1.427              0.893
 Vibration     4          0.826              1.319              0.741

 Normal termination of Gaussian 09 at Sun Jun 19 01:07:08 2016.
