 Gaussian 09, Revision E.01,
 Gaussian 09:  EM64L-G09RevE.01 30-Nov-2015

 ---------------------------------------------
 #p b3lyp/6-311++G(3df,2p) freq symmetry=Loose
 ---------------------------------------------

 ---------
 b3lyp opt
 ---------
 Symbolic Z-matrix:
 Charge =  2 Multiplicity = 1

                         Standard orientation:
 ---------------------------------------------------------------------
 Center     Atomic      Atomic             Coordinates (Angstroms)
 Number     Number       Type             X           Y           Z
 ---------------------------------------------------------------------
      1          6           0        0.000000    0.000000   -1.810830
      2          6           0        0.000000    0.000000   -0.430783
      3          6           0       -0.000000   -0.000000    2.220891
      4          6           0       -0.000000   -0.000000    0.810646
      5          1           0        0.000000    0.954926   -2.369767
      6          1           0       -0.000000   -0.954926   -2.369767
 ---------------------------------------------------------------------

 SCF Done:  E(RB3LYP) =  -152.479885698     A.U. after   12 cycles

 The electronic state is 1-A1.
 Alpha  occ. eigenvalues --  -10.86420 -10.81735 -10.80117 -10.76670  -1.36716
 Alpha  occ. eigenvalues --   -1.29271  -1.20587  -1.03295  -0.98535  -0.88844
 Alpha  occ. eigenvalues --   -0.85363  -0.82794
 Alpha virt. eigenvalues --   -0.72179  -0.65087  -0.59527  -0.44010  -0.39861
 Alpha virt. eigenvalues --   -0.36452  -0.33634  -0.29027  -0.28921  -0.26473
 Alpha virt. eigenvalues --   -0.25205  -0.24031  -0.23726  -0.20840  -0.19422

 Mulliken charges:
               1
     1  C   -0.138636
     2  C    0.501771
     3  C    0.122794
     4  C    0.838000
     5  H    0.338036
     6  H    0.338036
 Sum of Mulliken charges =   2.00000

 Dipole moment (field-independent basis, Debye):
    X=             -0.0000    Y=              0.0000    Z=             -3.2501  Tot=              3.2501
 Quadrupole moment (field-independent basis, Debye-Ang):
   XX=            -17.4574   YY=            -15.9781   ZZ=             13.7700
   XY=              0.0000   XZ=              0.0000   YZ=             -0.0000

  Exact polarizability:  20.675  -0.000  23.001   0.000  -0.000  74.313
 Approx polarizability:  30.813   0.000  32.666   0.000   0.000 184.080

                      1                      2                      3
                     B1                     B2                     B1
 Frequencies --    130.8526               144.2879               337.4358
 Red. masses --      7.0938                 6.0078                 6.3434
 Frc consts  --      0.0716                 0.0737                 0.4256
 IR Inten    --      0.2625                 3.0204                19.2739

                      4                      5                      6
                     B2                     A1                     B2
 Frequencies --    390.6512               824.6204               962.7487
 Red. masses --      3.2493                 6.2762                 1.5540
 Frc consts  --      0.2922                 2.5145                 0.8486
 IR Inten    --      3.1745                21.2012                 2.0644

                      7                      8                      9
                     B1                     A1                     A1
 Frequencies --   1126.9569              1230.4438              1367.5186
 Red. masses --      1.3687                 6.4986                 1.1794
 Frc consts  --      1.0242                 5.7969                 1.2995
 IR Inten    --     15.2683               853.4501                 7.4695

                     10                     11                     12
                     A1                     A1                     B2
 Frequencies --   2093.3771              2924.0523              3025.3976
 Red. masses --     11.9064                 1.0496                 1.1218
 Frc consts  --     30.7416                 5.2875                 6.0499
 IR Inten    --    197.8039               358.8618               222.9058

 - Thermochemistry -
 -------------------
 Temperature   298.150 Kelvin.  Pressure   1.00000 Atm.
 Atom     1 has atomic number  6 and mass  12.00000

 Molecular mass:    50.01565 amu.
 Principal axes and moments of inertia in atomic units:
                           1         2         3
     Eigenvalues --     6.56375 426.84063 433.40437
           X            0.00000  -0.00000   1.00000
           Y            0.00000   1.00000   0.00000
           Z            1.00000   0.00000   0.00000
 This molecule is an asymmetric top.
 Rotational symmetry number  2.
 Rotational temperatures (Kelvin)     13.19579     0.20292     0.19985
 Rotational constants (GHZ):         274.95590     4.22814     4.16410
 Zero-point vibrational energy      87078.2 (Joules/Mol)
                                   20.81220 (Kcal/Mol)
 Warning -- explicit consideration of   4 degrees of freedom as
           vibrations may cause significant error
 Vibrational temperatures:    188.27   207.60   485.49   562.06  1186.44
          (Kelvin)           1385.18  1621.44  1770.33  1967.55  3011.90
                             4207.05  4352.87

 Zero-point correction=                           0.033166 (Hartree/Particle)
 Thermal correction to Energy=                    0.038184
 Thermal correction to Enthalpy=                  0.039128
 Thermal correction to Gibbs Free Energy=         0.007622
 Sum of electronic and zero-point Energies=           -152.446719
 Sum of electronic and thermal Energies=              -152.441702
 Sum of electronic and thermal Enthalpies=            -152.440758
 Sum of electronic and thermal Free Energies=         -152.472264

                     E (Thermal)             CV                S
                      KCal/Mol        Cal/Mol-Kelvin    Cal/Mol-Kelvin
 Total                   23.961             14.485             66.311
 Electronic               0.000              0.000              0.000
 Translational            0.889              2.981             37.653
 Rotational               0.889              2.981             20.346
 Vibrational             22.183              8.523              8.312
 Vibration     1          0.612              1.922              2.933
 Vibration     2          0.616              1.909              2.746
 Vibration     3          0.718              1.601              1.224
 Vibration     4          0.758              1.490              0.998

 Optimization completed.
    -- Stationary point found.
 Normal termination of Gaussian 09 at Tue Jul 19 03:35:36 2016.
