 Gaussian 09, Revision E.01,
 Gaussian 09:  EM64L-G09RevE.01 30-Nov-2015

 ---------------------------------------------
 #p b3lyp/6-311++G(3df,2p) freq symmetry=Loose
 ---------------------------------------------

 ---------
 b3lyp opt
 ---------
 Symbolic Z-matrix:
 Charge =  0 Multiplicity = 3

                         Standard orientation:
 ---------------------------------------------------------------------
 Center     Atomic      Atomic             Coordinates (Angstroms)
 Number     Number       Type             X           Y           Z
 ---------------------------------------------------------------------
      1          6           0        1.775355   -0.500619   -0.042142
      2          6           0        0.631123    0.403787   -0.010097
      3          6           0       -0.725337   -0.078941   -0.046936
      4          6           0       -1.972020   -0.152164    0.021833
      5          1           0        0.956118    0.640126    1.048117
      6          1           0        0.789159    1.327495   -0.584067
 ---------------------------------------------------------------------

 SCF Done:  E(UB3LYP) =  -153.292550807     A.U. after   28 cycles

 The electronic state is 3-A.
 Alpha  occ. eigenvalues --  -10.28241 -10.26122 -10.23280 -10.23065  -0.87474
 Alpha  occ. eigenvalues --   -0.78247  -0.62644  -0.54140  -0.50365  -0.37482
 Alpha  occ. eigenvalues --   -0.34334  -0.31364  -0.31305  -0.25638
 Alpha virt. eigenvalues --   -0.12831  -0.03958  -0.01216   0.00659   0.02452
 Alpha virt. eigenvalues --    0.03609   0.04063   0.06117   0.07051   0.07311
 Alpha virt. eigenvalues --    0.08087   0.09436   0.10435   0.11170   0.12277

  Beta  occ. eigenvalues --  -10.26635 -10.26186 -10.22457 -10.22198  -0.85879
  Beta  occ. eigenvalues --   -0.75074  -0.59720  -0.52284  -0.49740  -0.32717
  Beta  occ. eigenvalues --   -0.30294  -0.30091
  Beta virt. eigenvalues --   -0.20700  -0.11115  -0.09378  -0.02633  -0.00479
  Beta virt. eigenvalues --    0.02554   0.02924   0.04165   0.04433   0.06365
  Beta virt. eigenvalues --    0.07321   0.07816   0.08237   0.09807   0.10840

 Mulliken charges and spin densities:
               1          2
     1  C   -0.367086   1.061618
     2  C   -0.141546  -0.068583
     3  C    0.581725   0.360462
     4  C   -0.465534   0.586667
     5  H    0.212579   0.005030
     6  H    0.179862   0.054806
 Sum of Mulliken charges =  -0.00000   2.00000

 Dipole moment (field-independent basis, Debye):
    X=              1.3918    Y=              1.5711    Z=              0.0755  Tot=              2.1002
 Quadrupole moment (field-independent basis, Debye-Ang):
   XX=            -33.9734   YY=            -23.8502   ZZ=            -22.9445
   XY=              3.6193   XZ=              0.8739   YZ=              0.6446

  Exact polarizability: 119.164   0.971  39.469   0.772  -1.547  37.731
 Approx polarizability: 169.580  -7.532  54.429  -2.118   1.226  53.598

                      1                      2                      3
                      A                      A                      A
 Frequencies --    181.7797               226.8084               388.1210
 Red. masses --      6.7039                 5.1651                 1.7618
 Frc consts  --      0.1305                 0.1565                 0.1564
 IR Inten    --      7.3913                27.9528                 1.6333

                      4                      5                      6
                      A                      A                      A
 Frequencies --    512.7692               893.9064               967.3421
 Red. masses --      6.7043                 5.7329                 1.4657
 Frc consts  --      1.0386                 2.6990                 0.8081
 IR Inten    --     47.7747                40.7963                11.4943

                      7                      8                      9
                      A                      A                      A
 Frequencies --   1096.2972              1172.1806              1306.3570
 Red. masses --      1.6826                 1.8416                 1.1714
 Frc consts  --      1.1915                 1.4908                 1.1778
 IR Inten    --     16.5206               308.2168                17.4428

                     10                     11                     12
                      A                      A                      A
 Frequencies --   1600.4459              2732.5551              2971.8666
 Red. masses --      8.7035                 1.0684                 1.0805
 Frc consts  --     13.1349                 4.7003                 5.6224
 IR Inten    --   1410.6918                61.6824                 0.4863

 - Thermochemistry -
 -------------------
 Temperature   298.150 Kelvin.  Pressure   1.00000 Atm.
 Atom     1 has atomic number  6 and mass  12.00000

 Molecular mass:    50.01565 amu.
 Principal axes and moments of inertia in atomic units:
                           1         2         3
     Eigenvalues --    31.76392 352.12258 373.19308
           X            0.99980   0.01919   0.00555
           Y           -0.01912   0.99973  -0.01283
           Z           -0.00580   0.01272   0.99990
 This molecule is an asymmetric top.
 Rotational symmetry number  1.
 Rotational temperatures (Kelvin)      2.72680     0.24598     0.23209
 Rotational constants (GHZ):          56.81734     5.12532     4.83594
 Zero-point vibrational energy      84040.2 (Joules/Mol)
                                   20.08610 (Kcal/Mol)
 Warning -- explicit consideration of   4 degrees of freedom as
           vibrations may cause significant error
 Vibrational temperatures:    261.54   326.33   558.42   737.76  1286.13
          (Kelvin)           1391.79  1577.33  1686.50  1879.55  2302.68
                             3931.53  4275.85

 Zero-point correction=                           0.032009 (Hartree/Particle)
 Thermal correction to Energy=                    0.036643
 Thermal correction to Enthalpy=                  0.037587
 Thermal correction to Gibbs Free Energy=         0.004789
 Sum of electronic and zero-point Energies=           -153.260542
 Sum of electronic and thermal Energies=              -153.255908
 Sum of electronic and thermal Enthalpies=            -153.254964
 Sum of electronic and thermal Free Energies=         -153.287761

                     E (Thermal)             CV                S
                      KCal/Mol        Cal/Mol-Kelvin    Cal/Mol-Kelvin
 Total                   22.994             13.972             69.028
 Electronic               0.000              0.000              2.183
 Translational            0.889              2.981             37.653
 Rotational               0.889              2.981             22.950
 Vibrational             21.216              8.010              6.242
 Vibration     1          0.630              1.865              2.310
 Vibration     2          0.650              1.800              1.904
 Vibration     3          0.756              1.496              1.007
 Vibration     4          0.868              1.222              0.627

 Optimization completed.
    -- Stationary point found.
 Normal termination of Gaussian 09 at Sun Jun 19 00:49:40 2016.
