 Gaussian 09, Revision E.01,
 Gaussian 09:  EM64L-G09RevE.01 30-Nov-2015

 ------------------------------------------------------
 #p b3lyp/6-311++G(3df,2p) freq IOp(2/17=3) IOp(2/18=3)
 ------------------------------------------------------

 ---------
 b3lyp opt
 ---------
 Symbolic Z-matrix:
 Charge =  1 Multiplicity = 2

                         Standard orientation:
 ---------------------------------------------------------------------
 Center     Atomic      Atomic             Coordinates (Angstroms)
 Number     Number       Type             X           Y           Z
 ---------------------------------------------------------------------
      1          6           0       -0.000000   -0.000000    1.890638
      2          6           0       -0.000000   -0.000000    0.661803
      3          6           0        0.000000   -0.000000   -0.661803
      4          6           0        0.000000   -0.000000   -1.890638
      5          1           0       -0.000000   -0.000000    2.963444
      6          1           0        0.000000   -0.000000   -2.963444
 ---------------------------------------------------------------------

 SCF Done:  E(UB3LYP) =  -153.179592856     A.U. after   11 cycles

 Unable to determine electronic state:  an orbital has unidentified symmetry.
 Alpha  occ. eigenvalues --  -10.49626 -10.49620 -10.48375 -10.48285  -1.09042
 Alpha  occ. eigenvalues --   -1.03581  -0.91548  -0.79594  -0.78017  -0.64347
 Alpha  occ. eigenvalues --   -0.62758  -0.55372  -0.53119
 Alpha virt. eigenvalues --   -0.31431  -0.29785  -0.15113  -0.13768  -0.13129
 Alpha virt. eigenvalues --   -0.12700  -0.12083  -0.09611  -0.09547  -0.09278
 Alpha virt. eigenvalues --   -0.04670  -0.04081  -0.03556  -0.03468  -0.00924

  Beta  occ. eigenvalues --  -10.48943 -10.48938 -10.48262 -10.48168  -1.07733
  Beta  occ. eigenvalues --   -1.01154  -0.90638  -0.78877  -0.77463  -0.62481
  Beta  occ. eigenvalues --   -0.60537  -0.52284
  Beta virt. eigenvalues --   -0.45035  -0.29221  -0.27320  -0.15014  -0.13366
  Beta virt. eigenvalues --   -0.12371  -0.11957  -0.11195  -0.09241  -0.09177
  Beta virt. eigenvalues --   -0.09169  -0.03876  -0.03280  -0.03247  -0.02937

 Mulliken charges and spin densities:
               1          2
     1  C    0.327002   0.289402
     2  C   -0.203962   0.223451
     3  C   -0.203962   0.223451
     4  C    0.327002   0.289402
     5  H    0.376961  -0.012853
     6  H    0.376961  -0.012853
 Sum of Mulliken charges =   1.00000   1.00000

 Dipole moment (field-independent basis, Debye):
    X=              0.0000    Y=             -0.0000    Z=             -0.0000  Tot=              0.0000
 Quadrupole moment (field-independent basis, Debye-Ang):
   XX=            -22.0096   YY=            -20.3218   ZZ=              7.6068
   XY=              0.0000   XZ=             -0.0000   YZ=             -0.0000

  Exact polarizability:  22.918   0.000  21.958  -0.000  -0.000  86.861
 Approx polarizability:  30.459  -0.000  30.200  -0.000   0.000 190.306

                      1                      2                      3
                     ?A                     ?A                     ?B
 Frequencies --    212.4696               218.7051               502.0504
 Red. masses --      3.3349                 3.9314                 4.1110
 Frc consts  --      0.0887                 0.1108                 0.6105
 IR Inten    --     16.6519                17.0190                 0.0000

                      4                      5                      6
                     ?B                     ?B                     ?A
 Frequencies --    536.2552               662.9063               665.1038
 Red. masses --      7.8263                 1.2397                 1.2746
 Frc consts  --      1.3260                 0.3210                 0.3322
 IR Inten    --      0.0000                 0.0000                85.7221

                      7                      8                      9
                     ?A                     ?B                     SGG
 Frequencies --    775.7276               777.9680               958.5433
 Red. masses --      1.3530                 1.4468                 6.6796
 Frc consts  --      0.4797                 0.5159                 3.6160
 IR Inten    --     29.2170                 0.0000                 0.0000

                     10                     11                     12
                     SGU                    SGG                    SGU
 Frequencies --   1918.4854              2247.4860              3357.2758
 Red. masses --      5.9621                 7.0250                 1.1478
 Frc consts  --     12.9291                20.9068                 7.6225
 IR Inten    --    293.2461                 0.0000               369.9129

                     13
                     SGG
 Frequencies --   3362.5124
 Red. masses --      1.1536
 Frc consts  --      7.6849
 IR Inten    --      0.0000

 - Thermochemistry -
 -------------------
 Temperature   298.150 Kelvin.  Pressure   1.00000 Atm.
 Atom     1 has atomic number  6 and mass  12.00000

 Molecular mass:    50.01565 amu.
 Principal axes and moments of inertia in atomic units:
                           1         2         3
     Eigenvalues --     0.00000 407.10608 407.10608
           X           -0.00000   1.00000   0.00001
           Y            0.00000  -0.00001   1.00000
           Z            1.00000   0.00000   0.00000
 This molecule is a prolate symmetric top.
 Rotational symmetry number  2.
 Rotational temperature (Kelvin)      0.21275
 Rotational constant (GHZ):           4.433098
 Zero-point vibrational energy      96870.5 (Joules/Mol)
                                   23.15261 (Kcal/Mol)
 Warning -- explicit consideration of   4 degrees of freedom as
           vibrations may cause significant error
 Vibrational temperatures:    305.70   314.67   722.34   771.55   953.77
          (Kelvin)            956.93  1116.10  1119.32  1379.13  2760.27
                             3233.63  4830.36  4837.90

 Zero-point correction=                           0.036896 (Hartree/Particle)
 Thermal correction to Energy=                    0.041222
 Thermal correction to Enthalpy=                  0.042166
 Thermal correction to Gibbs Free Energy=         0.013408
 Sum of electronic and zero-point Energies=           -153.142697
 Sum of electronic and thermal Energies=              -153.138371
 Sum of electronic and thermal Enthalpies=            -153.137427
 Sum of electronic and thermal Free Energies=         -153.166185

                     E (Thermal)             CV                S
                      KCal/Mol        Cal/Mol-Kelvin    Cal/Mol-Kelvin
 Total                   25.867             14.642             60.527
 Electronic               0.000              0.000              1.377
 Translational            0.889              2.981             37.653
 Rotational               0.592              1.987             15.008
 Vibrational             24.386              9.674              6.489
 Vibration     1          0.644              1.822              2.022
 Vibration     2          0.646              1.813              1.970
 Vibration     3          0.857              1.245              0.653
 Vibration     4          0.891              1.170              0.573

 Optimization completed.
    -- Stationary point found.
 Normal termination of Gaussian 09 at Thu Jan 31 04:16:59 2019.
