 Gaussian 09, Revision E.01,
 Gaussian 09:  EM64L-G09RevE.01 30-Nov-2015

 ---------------------------------------------
 #p b3lyp/6-311++G(3df,2p) freq symmetry=Loose
 ---------------------------------------------

 ---------
 b3lyp opt
 ---------
 Symbolic Z-matrix:
 Charge =  0 Multiplicity = 3

                         Standard orientation:
 ---------------------------------------------------------------------
 Center     Atomic      Atomic             Coordinates (Angstroms)
 Number     Number       Type             X           Y           Z
 ---------------------------------------------------------------------
      1          6           0        0.000000    0.000000    1.483320
      2          6           0        0.000000    0.000000    0.091546
      3          6           0       -0.678712    0.000000   -1.125748
      4          6           0        0.678712   -0.000000   -1.125748
      5          1           0        0.933200   -0.000000    2.029888
      6          1           0       -0.933200    0.000000    2.029888
 ---------------------------------------------------------------------

 SCF Done:  E(UB3LYP) =  -153.405829956     A.U. after   13 cycles

 The electronic state is 3-A2.
 Alpha  occ. eigenvalues --  -10.26941 -10.25146 -10.22536 -10.22464  -0.95307
 Alpha  occ. eigenvalues --   -0.79453  -0.56715  -0.53576  -0.45877  -0.44342
 Alpha  occ. eigenvalues --   -0.42681  -0.29360  -0.29187  -0.25895
 Alpha virt. eigenvalues --   -0.02605  -0.01128  -0.01117   0.01697   0.04360
 Alpha virt. eigenvalues --    0.05415   0.05426   0.06018   0.07780   0.08523
 Alpha virt. eigenvalues --    0.10941   0.11384   0.11819   0.12056   0.12572

  Beta  occ. eigenvalues --  -10.26526 -10.24029 -10.21578 -10.21504  -0.93772
  Beta  occ. eigenvalues --   -0.76214  -0.54866  -0.51240  -0.43663  -0.40664
  Beta  occ. eigenvalues --   -0.39807  -0.26187
  Beta virt. eigenvalues --   -0.16940  -0.14237  -0.00856   0.00039   0.00950
  Beta virt. eigenvalues --    0.01875   0.04686   0.05532   0.06256   0.07407
  Beta virt. eigenvalues --    0.08047   0.09098   0.11370   0.11918   0.12328

 Mulliken charges and spin densities:
               1          2
     1  C   -0.433401   0.801612
     2  C    0.599944   0.182751
     3  C   -0.279741   0.513187
     4  C   -0.279741   0.513187
     5  H    0.196469  -0.005369
     6  H    0.196469  -0.005369
 Sum of Mulliken charges =  -0.00000   2.00000

 Dipole moment (field-independent basis, Debye):
    X=              0.0000    Y=              0.0000    Z=              3.4474  Tot=              3.4474
 Quadrupole moment (field-independent basis, Debye-Ang):
   XX=            -26.5155   YY=            -23.8023   ZZ=            -22.3052
   XY=              0.0000   XZ=             -0.0000   YZ=             -0.0000

  Exact polarizability:  57.018   0.000  30.859   0.000  -0.000  59.789
 Approx polarizability:  86.630  -0.000  44.439  -0.000   0.000  90.480

                      1                      2                      3
                     B1                     B2                     A2
 Frequencies --    305.3585               407.0428               484.4975
 Red. masses --      3.2030                 4.4872                 1.1525
 Frc consts  --      0.1760                 0.4380                 0.1594
 IR Inten    --     55.9489                 0.0001                 0.0000

                      4                      5                      6
                     B1                     B2                     A1
 Frequencies --    596.9086               772.1130               867.6384
 Red. masses --     11.6277                 1.4485                 5.2647
 Frc consts  --      2.4410                 0.5088                 2.3351
 IR Inten    --    371.2349                43.2357                12.9626

                      7                      8                      9
                     B1                     A1                     A1
 Frequencies --   1021.2462              1361.7374              1451.4332
 Red. masses --      1.4341                 5.8718                 1.2531
 Frc consts  --      0.8812                 6.4152                 1.5554
 IR Inten    --     13.7311                36.2811                 8.7940

                     10                     11                     12
                     A1                     A1                     B1
 Frequencies --   1605.4637              3134.9343              3239.6506
 Red. masses --     11.4885                 1.0498                 1.1192
 Frc consts  --     17.4468                 6.0789                 6.9210
 IR Inten    --      3.9578                 0.0274                 0.0006

 - Thermochemistry -
 -------------------
 Temperature   298.150 Kelvin.  Pressure   1.00000 Atm.
 Atom     1 has atomic number  6 and mass  12.00000

 Molecular mass:    50.01565 amu.
 Principal axes and moments of inertia in atomic units:
                           1         2         3
     Eigenvalues --    45.74874 231.76136 277.51010
           X            0.00000   1.00000   0.00000
           Y            0.00000  -0.00000   1.00000
           Z            1.00000  -0.00000  -0.00000
 This molecule is an asymmetric top.
 Rotational symmetry number  2.
 Rotational temperatures (Kelvin)      1.89325     0.37372     0.31211
 Rotational constants (GHZ):          39.44898     7.78707     6.50334
 Zero-point vibrational energy      91203.4 (Joules/Mol)
                                   21.79814 (Kcal/Mol)
 Warning -- explicit consideration of   4 degrees of freedom as
           vibrations may cause significant error
 Vibrational temperatures:    439.34   585.64   697.08   858.82  1110.90
          (Kelvin)           1248.34  1469.34  1959.23  2088.29  2309.90
                             4510.47  4661.13

 Zero-point correction=                           0.034738 (Hartree/Particle)
 Thermal correction to Energy=                    0.038883
 Thermal correction to Enthalpy=                  0.039827
 Thermal correction to Gibbs Free Energy=         0.008917
 Sum of electronic and zero-point Energies=           -153.371092
 Sum of electronic and thermal Energies=              -153.366947
 Sum of electronic and thermal Enthalpies=            -153.366002
 Sum of electronic and thermal Free Energies=         -153.396913

                     E (Thermal)             CV                S
                      KCal/Mol        Cal/Mol-Kelvin    Cal/Mol-Kelvin
 Total                   24.400             13.262             65.057
 Electronic               0.000              0.000              2.183
 Translational            0.889              2.981             37.653
 Rotational               0.889              2.981             21.225
 Vibrational             22.622              7.300              3.996
 Vibration     1          0.696              1.664              1.387
 Vibration     2          0.772              1.455              0.937
 Vibration     3          0.841              1.284              0.698
 Vibration     4          0.955              1.038              0.455

 Optimization completed.
    -- Stationary point found.
 Normal termination of Gaussian 09 at Tue Jul 19 03:48:31 2016.
