 Gaussian 09, Revision E.01,
 Gaussian 09:  EM64L-G09RevE.01 30-Nov-2015

 ---------------------------------------------
 #p b3lyp/6-311++G(3df,2p) freq symmetry=Loose
 ---------------------------------------------

 ---------
 b3lyp opt
 ---------
 Symbolic Z-matrix:
 Charge =  3 Multiplicity = 4

                         Standard orientation:
 ---------------------------------------------------------------------
 Center     Atomic      Atomic             Coordinates (Angstroms)
 Number     Number       Type             X           Y           Z
 ---------------------------------------------------------------------
      1          6           0        0.469157   -1.674043    0.000000
      2          6           0       -0.300879   -0.583398    0.000000
      3          6           0       -0.099865    0.774204    0.000000
      4          6           0        0.000000    2.089351    0.000000
      5          1           0        1.014696   -2.677862    0.000000
      6          1           0       -1.425176   -0.958828    0.000000
 ---------------------------------------------------------------------

 SCF Done:  E(UB3LYP) =  -151.554161464     A.U. after   15 cycles

 The electronic state is 4-A".
 Alpha  occ. eigenvalues --  -11.17455 -11.14406 -11.12001 -11.04431  -1.65967
 Alpha  occ. eigenvalues --   -1.60124  -1.45145  -1.29974  -1.25477  -1.19941
 Alpha  occ. eigenvalues --   -1.17301  -1.13344  -1.09094
 Alpha virt. eigenvalues --   -0.90931  -0.87424  -0.83199  -0.70615  -0.61912
 Alpha virt. eigenvalues --   -0.55409  -0.53736  -0.49852  -0.45542  -0.44132
 Alpha virt. eigenvalues --   -0.43043  -0.42021  -0.39581  -0.37774  -0.37371

  Beta  occ. eigenvalues --  -11.13515 -11.13373 -11.10793 -11.04416  -1.62858
  Beta  occ. eigenvalues --   -1.53956  -1.42662  -1.28849  -1.23784  -1.12657
  Beta virt. eigenvalues --   -0.97200  -0.96406  -0.93004  -0.89188  -0.79840
  Beta virt. eigenvalues --   -0.72738  -0.65223  -0.60246  -0.54048  -0.52448
  Beta virt. eigenvalues --   -0.48313  -0.44720  -0.43761  -0.41605  -0.41312

 Mulliken charges and spin densities:
               1          2
     1  C    0.478890   0.467422
     2  C    0.093342   0.037381
     3  C    0.817993   0.757608
     4  C    0.743876   1.724866
     5  H    0.517856  -0.008788
     6  H    0.348043   0.021511
 Sum of Mulliken charges =   3.00000   3.00000

 Dipole moment (field-independent basis, Debye):
    X=              0.3995    Y=             -1.5077    Z=              0.0000  Tot=              1.5597
 Quadrupole moment (field-independent basis, Debye-Ang):
   XX=             -8.5490   YY=             32.0292   ZZ=            -17.0169
   XY=             -5.2217   XZ=              0.0000   YZ=              0.0000

  Exact polarizability:  22.569  -3.984  65.029  -0.000   0.000  16.355
 Approx polarizability:  36.624  -9.758 127.429  -0.000  -0.000  22.002

                      1                      2                      3
                     A'                     A"                     A'
 Frequencies --    232.0451               330.9882               461.4115
 Red. masses --      4.0948                 3.6519                 3.7255
 Frc consts  --      0.1299                 0.2357                 0.4673
 IR Inten    --     19.9278                42.1416                 4.7790

                      4                      5                      6
                     A"                     A"                     A'
 Frequencies --    609.1761               719.6661               837.5744
 Red. masses --      1.5506                 1.6739                 2.0264
 Frc consts  --      0.3390                 0.5108                 0.8376
 IR Inten    --     80.7872                 1.5647                28.4735

                      7                      8                      9
                     A'                     A'                     A'
 Frequencies --    908.3427              1013.4945              1454.7745
 Red. masses --      2.0968                 1.5614                 5.3763
 Frc consts  --      1.0193                 0.9449                 6.7039
 IR Inten    --      4.8199                10.6457               674.9481

                     10                     11                     12
                     A'                     A'                     A'
 Frequencies --   1838.0524              2238.7738              2692.9741
 Red. masses --     10.0141                 1.0690                 1.1468
 Frc consts  --     19.9333                 3.1567                 4.9002
 IR Inten    --     14.1896               811.7124               725.3176

 - Thermochemistry -
 -------------------
 Temperature   298.150 Kelvin.  Pressure   1.00000 Atm.
 Atom     1 has atomic number  6 and mass  12.00000

 Molecular mass:    50.01565 amu.
 Principal axes and moments of inertia in atomic units:
                           1         2         3
     Eigenvalues --    21.39941 378.96208 400.36149
           X           -0.09670   0.99531   0.00000
           Y            0.99531   0.09670   0.00000
           Z           -0.00000   0.00000   1.00000
 This molecule is an asymmetric top.
 Rotational symmetry number  1.
 Rotational temperatures (Kelvin)      4.04749     0.22856     0.21634
 Rotational constants (GHZ):          84.33602     4.76233     4.50778
 Zero-point vibrational energy      79774.6 (Joules/Mol)
                                   19.06659 (Kcal/Mol)
 Warning -- explicit consideration of   4 degrees of freedom as
           vibrations may cause significant error
 Vibrational temperatures:    333.86   476.22   663.87   876.47  1035.44
          (Kelvin)           1205.08  1306.90  1458.19  2093.09  2644.54
                             3221.09  3874.58

 Zero-point correction=                           0.030385 (Hartree/Particle)
 Thermal correction to Energy=                    0.034789
 Thermal correction to Enthalpy=                  0.035733
 Thermal correction to Gibbs Free Energy=         0.003365
 Sum of electronic and zero-point Energies=           -151.523777
 Sum of electronic and thermal Energies=              -151.519372
 Sum of electronic and thermal Enthalpies=            -151.518428
 Sum of electronic and thermal Free Energies=         -151.550797

                     E (Thermal)             CV                S
                      KCal/Mol        Cal/Mol-Kelvin    Cal/Mol-Kelvin
 Total                   21.831             14.065             68.126
 Electronic               0.000              0.000              2.755
 Translational            0.889              2.981             37.653
 Rotational               0.889              2.981             22.700
 Vibrational             20.053              8.103              5.018
 Vibration     1          0.653              1.792              1.863
 Vibration     2          0.713              1.614              1.255
 Vibration     3          0.819              1.336              0.762
 Vibration     4          0.968              1.012              0.434

 Optimization completed.
    -- Stationary point found.
 Normal termination of Gaussian 09 at Sun Jun 19 01:11:35 2016.
