 Gaussian 09, Revision E.01,
 Gaussian 09:  EM64L-G09RevE.01 30-Nov-2015

 ---------------------------------------------
 #p b3lyp/6-311++G(3df,2p) freq symmetry=Loose
 ---------------------------------------------

 ---------
 b3lyp opt
 ---------
 Symbolic Z-matrix:
 Charge =  3 Multiplicity = 2

                         Standard orientation:
 ---------------------------------------------------------------------
 Center     Atomic      Atomic             Coordinates (Angstroms)
 Number     Number       Type             X           Y           Z
 ---------------------------------------------------------------------
      1          6           0       -0.000000    0.000000   -1.850812
      2          6           0       -0.000000    0.000000   -0.402271
      3          6           0        0.000000   -0.000000    0.877537
      4          6           0        0.000000   -0.000000    2.183283
      5          1           0       -0.000000    0.984502   -2.423212
      6          1           0       -0.000000   -0.984502   -2.423212
 ---------------------------------------------------------------------

 SCF Done:  E(UB3LYP) =  -151.575013176     A.U. after   18 cycles

 The electronic state is 2-A1.
 Alpha  occ. eigenvalues --  -11.21491 -11.12281 -11.08615 -11.05997  -1.64194
 Alpha  occ. eigenvalues --   -1.56689  -1.47897  -1.26143  -1.21664  -1.20498
 Alpha  occ. eigenvalues --   -1.15709  -1.13761
 Alpha virt. eigenvalues --   -0.99637  -0.94232  -0.85962  -0.70614  -0.67146
 Alpha virt. eigenvalues --   -0.61064  -0.54902  -0.50741  -0.47582  -0.44809
 Alpha virt. eigenvalues --   -0.43365  -0.42311  -0.41708  -0.39899  -0.39615

  Beta  occ. eigenvalues --  -11.18192 -11.13082 -11.08692 -11.05566  -1.63739
  Beta  occ. eigenvalues --   -1.55314  -1.47417  -1.26590  -1.21355  -1.15514
  Beta  occ. eigenvalues --   -1.12141
  Beta virt. eigenvalues --   -0.97532  -0.95929  -0.91780  -0.84478  -0.68457
  Beta virt. eigenvalues --   -0.65381  -0.62006  -0.54817  -0.50907  -0.47698
  Beta virt. eigenvalues --   -0.44779  -0.43451  -0.42479  -0.41206  -0.40256

 Mulliken charges and spin densities:
               1          2
     1  C    0.044003  -0.055846
     2  C    0.574786  -0.329595
     3  C    0.925198   0.082906
     4  C    0.654364   1.319647
     5  H    0.400824  -0.008556
     6  H    0.400824  -0.008556
 Sum of Mulliken charges =   3.00000   1.00000

 Dipole moment (field-independent basis, Debye):
    X=             -0.0000    Y=             -0.0000    Z=             -0.8673  Tot=              0.8673
 Quadrupole moment (field-independent basis, Debye-Ang):
   XX=            -15.4355   YY=            -13.1280   ZZ=             38.8812
   XY=              0.0000   XZ=              0.0000   YZ=              0.0000

  Exact polarizability:  16.140  -0.000  18.787  -0.000  -0.000  68.657
 Approx polarizability:  22.557   0.000  25.217   0.000   0.000 181.532

                      1                      2                      3
                     B1                     B2                     B1
 Frequencies --    204.8529               205.9370               424.7778
 Red. masses --      6.0578                 4.9586                 7.4261
 Frc consts  --      0.1498                 0.1239                 0.7895
 IR Inten    --     25.0662                26.8706                 0.0514

                      4                      5                      6
                     B2                     A1                     B2
 Frequencies --    430.2698               725.0269               909.1242
 Red. masses --      3.5563                 7.7234                 1.5745
 Frc consts  --      0.3879                 2.3920                 0.7667
 IR Inten    --      0.0033                18.4381                 4.6088

                      7                      8                      9
                     B1                     A1                     A1
 Frequencies --   1090.9305              1207.4114              1315.0380
 Red. masses --      1.3768                 1.5140                 2.7827
 Frc consts  --      0.9654                 1.3004                 2.8353
 IR Inten    --     28.3238                 6.8476               371.2641

                     10                     11                     12
                     A1                     A1                     B2
 Frequencies --   2007.1997              2606.2386              2706.2814
 Red. masses --     11.1938                 1.0426                 1.1269
 Frc consts  --     26.5710                 4.1724                 4.8627
 IR Inten    --    636.2740               900.8199               492.6967

 - Thermochemistry -
 -------------------
 Temperature   298.150 Kelvin.  Pressure   1.00000 Atm.
 Atom     1 has atomic number  6 and mass  12.00000

 Molecular mass:    50.01565 amu.
 Principal axes and moments of inertia in atomic units:
                           1         2         3
     Eigenvalues --     6.97663 431.60956 438.58619
           X            0.00000  -0.00000   1.00000
           Y            0.00000   1.00000   0.00000
           Z            1.00000  -0.00000  -0.00000
 This molecule is an asymmetric top.
 Rotational symmetry number  2.
 Rotational temperatures (Kelvin)     12.41485     0.20068     0.19748
 Rotational constants (GHZ):         258.68382     4.18142     4.11491
 Zero-point vibrational energy      82740.2 (Joules/Mol)
                                   19.77539 (Kcal/Mol)
 Warning -- explicit consideration of   4 degrees of freedom as
           vibrations may cause significant error
 Vibrational temperatures:    294.74   296.30   611.16   619.06  1043.15
          (Kelvin)           1308.03  1569.60  1737.19  1892.04  2887.91
                             3749.79  3893.73

 Zero-point correction=                           0.031514 (Hartree/Particle)
 Thermal correction to Energy=                    0.036227
 Thermal correction to Enthalpy=                  0.037171
 Thermal correction to Gibbs Free Energy=         0.005857
 Sum of electronic and zero-point Energies=           -151.543499
 Sum of electronic and thermal Energies=              -151.538786
 Sum of electronic and thermal Enthalpies=            -151.537842
 Sum of electronic and thermal Free Energies=         -151.569156

                     E (Thermal)             CV                S
                      KCal/Mol        Cal/Mol-Kelvin    Cal/Mol-Kelvin
 Total                   22.733             14.359             65.906
 Electronic               0.000              0.000              1.377
 Translational            0.889              2.981             37.653
 Rotational               0.889              2.981             20.429
 Vibrational             20.955              8.397              6.446
 Vibration     1          0.640              1.833              2.089
 Vibration     2          0.640              1.831              2.079
 Vibration     3          0.787              1.416              0.876
 Vibration     4          0.791              1.404              0.858

 Optimization completed.
    -- Stationary point found.
 Normal termination of Gaussian 09 at Tue Jul 19 04:36:41 2016.
