 Gaussian 09, Revision E.01,
 Gaussian 09:  EM64L-G09RevE.01 30-Nov-2015

 ---------------------------------------------
 #p b3lyp/6-311++G(3df,2p) freq symmetry=Loose
 ---------------------------------------------

 ---------
 b3lyp opt
 ---------
 Symbolic Z-matrix:
 Charge =  3 Multiplicity = 4

                         Standard orientation:
 ---------------------------------------------------------------------
 Center     Atomic      Atomic             Coordinates (Angstroms)
 Number     Number       Type             X           Y           Z
 ---------------------------------------------------------------------
      1          6           0        0.000000    0.000000    1.511327
      2          6           0        0.000000    0.000000    0.151796
      3          6           0        0.696239   -0.000000   -1.207340
      4          6           0       -0.696239    0.000000   -1.207340
      5          1           0        0.000000   -0.939711    2.254682
      6          1           0        0.000000    0.939711    2.254682
 ---------------------------------------------------------------------

 SCF Done:  E(UB3LYP) =  -151.463513229     A.U. after   14 cycles

 The electronic state is 4-A2.
 Alpha  occ. eigenvalues --  -11.18237 -11.18177 -11.13767 -11.11018  -1.77222
 Alpha  occ. eigenvalues --   -1.59561  -1.35262  -1.33802  -1.27333  -1.24831
 Alpha  occ. eigenvalues --   -1.17927  -1.16383  -1.12549
 Alpha virt. eigenvalues --   -0.92849  -0.88579  -0.86142  -0.67402  -0.65041
 Alpha virt. eigenvalues --   -0.57147  -0.55419  -0.52619  -0.48985  -0.46259
 Alpha virt. eigenvalues --   -0.45375  -0.44445  -0.42406  -0.41260  -0.40564

  Beta  occ. eigenvalues --  -11.15682 -11.15640 -11.13554 -11.10316  -1.73422
  Beta  occ. eigenvalues --   -1.56830  -1.32394  -1.26041  -1.24196  -1.20422
  Beta virt. eigenvalues --   -1.06299  -0.97717  -0.95179  -0.86062  -0.85068
  Beta virt. eigenvalues --   -0.76650  -0.64561  -0.60082  -0.55577  -0.53106
  Beta virt. eigenvalues --   -0.51509  -0.46773  -0.45358  -0.44936  -0.42899

 Mulliken charges and spin densities:
               1          2
     1  C    0.019140   0.420180
     2  C    0.633432   0.123888
     3  C    0.742537   1.144735
     4  C    0.742537   1.144735
     5  H    0.431177   0.083231
     6  H    0.431177   0.083231
 Sum of Mulliken charges =   3.00000   3.00000

 Dipole moment (field-independent basis, Debye):
    X=             -0.0000    Y=             -0.0000    Z=              3.5096  Tot=              3.5096
 Quadrupole moment (field-independent basis, Debye-Ang):
   XX=            -11.9078   YY=            -12.1244   ZZ=             20.5983
   XY=              0.0000   XZ=             -0.0000   YZ=             -0.0000

  Exact polarizability:  22.796  -0.000  19.789  -0.000  -0.000  60.729
 Approx polarizability:  42.884  -0.000  29.526   0.000  -0.000 140.038

                      1                      2                      3
                     B1                     B2                     A2
 Frequencies --    308.6828               322.2946               548.6835
 Red. masses --      3.9223                 2.4463                 1.1473
 Frc consts  --      0.2202                 0.1497                 0.2035
 IR Inten    --     36.9126                32.6053                 0.0000

                      4                      5                      6
                     B1                     A1                     B2
 Frequencies --    570.0716               582.1615               593.5517
 Red. masses --      9.1094                 4.0318                 1.8602
 Frc consts  --      1.7442                 0.8051                 0.3861
 IR Inten    --     84.2325               758.8573                56.5884

                      7                      8                      9
                     A1                     B1                     A1
 Frequencies --    799.1100               893.9684              1227.6691
 Red. masses --      1.4306                 1.5676                 5.5913
 Frc consts  --      0.5383                 0.7381                 4.9650
 IR Inten    --    441.7999                34.6925                89.0292

                     10                     11                     12
                     A1                     B2                     A1
 Frequencies --   1419.1357              1978.8643              2137.7569
 Red. masses --      5.9447                 1.0781                 1.1065
 Frc consts  --      7.0539                 2.4874                 2.9793
 IR Inten    --    343.9895               930.7205              1783.2247

 - Thermochemistry -
 -------------------
 Temperature   298.150 Kelvin.  Pressure   1.00000 Atm.
 Atom     1 has atomic number  6 and mass  12.00000

 Molecular mass:    50.01565 amu.
 Principal axes and moments of inertia in atomic units:
                           1         2         3
     Eigenvalues --    47.90191 265.31719 300.50660
           X           -0.00000   1.00000   0.00000
           Y           -0.00000  -0.00000   1.00000
           Z            1.00000   0.00000   0.00000
 This molecule is an asymmetric top.
 Rotational symmetry number  2.
 Rotational temperatures (Kelvin)      1.80815     0.32645     0.28823
 Rotational constants (GHZ):          37.67576     6.80220     6.00566
 Zero-point vibrational energy      68079.2 (Joules/Mol)
                                   16.27131 (Kcal/Mol)
 Warning -- explicit consideration of   6 degrees of freedom as
           vibrations may cause significant error
 Vibrational temperatures:    444.13   463.71   789.43   820.20   837.60
          (Kelvin)            853.99  1149.74  1286.22  1766.34  2041.82
                             2847.14  3075.75

 Zero-point correction=                           0.025930 (Hartree/Particle)
 Thermal correction to Energy=                    0.030423
 Thermal correction to Enthalpy=                  0.031367
 Thermal correction to Gibbs Free Energy=        -0.000447
 Sum of electronic and zero-point Energies=           -151.437583
 Sum of electronic and thermal Energies=              -151.433090
 Sum of electronic and thermal Enthalpies=            -151.432146
 Sum of electronic and thermal Free Energies=         -151.463961

                     E (Thermal)             CV                S
                      KCal/Mol        Cal/Mol-Kelvin    Cal/Mol-Kelvin
 Total                   19.091             15.071             66.960
 Electronic               0.000              0.000              2.755
 Translational            0.889              2.981             37.653
 Rotational               0.889              2.981             21.484
 Vibrational             17.313              9.109              5.068
 Vibration     1          0.698              1.657              1.369
 Vibration     2          0.707              1.631              1.298
 Vibration     3          0.904              1.143              0.547
 Vibration     4          0.926              1.096              0.504
 Vibration     5          0.939              1.070              0.481
 Vibration     6          0.951              1.046              0.461

 Optimization completed.
    -- Stationary point found.
 Normal termination of Gaussian 09 at Tue Jul 19 05:16:05 2016.
