 Gaussian 09, Revision E.01,
 Gaussian 09:  EM64L-G09RevE.01 30-Nov-2015

 ------------------------------------------------------
 #p b3lyp/6-311++G(3df,2p) freq IOp(2/17=3) IOp(2/18=3)
 ------------------------------------------------------

 ---------
 b3lyp opt
 ---------
 Symbolic Z-matrix:
 Charge =  2 Multiplicity = 3

                         Standard orientation:
 ---------------------------------------------------------------------
 Center     Atomic      Atomic             Coordinates (Angstroms)
 Number     Number       Type             X           Y           Z
 ---------------------------------------------------------------------
      1          6           0        0.000000   -0.000000    1.916504
      2          6           0       -0.000000    0.000000    0.646022
      3          6           0        0.000000   -0.000000   -0.646022
      4          6           0        0.000000   -0.000000   -1.916504
      5          1           0        0.000000   -0.000000    3.013127
      6          1           0        0.000000   -0.000000   -3.013127
 ---------------------------------------------------------------------

 SCF Done:  E(UB3LYP) =  -152.565899245     A.U. after   11 cycles

 The electronic state is 3-SGG.
 Alpha  occ. eigenvalues --  -10.81498 -10.81492 -10.77805 -10.77693  -1.37408
 Alpha  occ. eigenvalues --   -1.32256  -1.20026  -1.04971  -1.03716  -0.90994
 Alpha  occ. eigenvalues --   -0.90994  -0.81967  -0.81967
 Alpha virt. eigenvalues --   -0.59262  -0.59262  -0.38991  -0.38991  -0.36157
 Alpha virt. eigenvalues --   -0.33671  -0.33269  -0.27642  -0.25922  -0.25922
 Alpha virt. eigenvalues --   -0.24291  -0.21606  -0.20787  -0.20787  -0.17123

  Beta  occ. eigenvalues --  -10.79991 -10.79986 -10.77635 -10.77514  -1.35004
  Beta  occ. eigenvalues --   -1.27314  -1.18092  -1.03389  -1.02438  -0.87121
  Beta  occ. eigenvalues --   -0.87121
  Beta virt. eigenvalues --   -0.70309  -0.70309  -0.53748  -0.53748  -0.35876
  Beta virt. eigenvalues --   -0.35876  -0.34069  -0.33304  -0.31906  -0.26934
  Beta virt. eigenvalues --   -0.25415  -0.25415  -0.23591  -0.21284  -0.19756

 Mulliken charges and spin densities:
               1          2
     1  C    0.495962   0.607542
     2  C    0.044649   0.417716
     3  C    0.044649   0.417716
     4  C    0.495962   0.607542
     5  H    0.459388  -0.025258
     6  H    0.459388  -0.025258
 Sum of Mulliken charges =   2.00000   2.00000

 Dipole moment (field-independent basis, Debye):
    X=              0.0000    Y=             -0.0000    Z=              0.0000  Tot=              0.0000
 Quadrupole moment (field-independent basis, Debye-Ang):
   XX=            -18.3449   YY=            -18.3449   ZZ=             27.5718
   XY=             -0.0000   XZ=             -0.0000   YZ=              0.0000

  Exact polarizability:  18.314  -0.000  18.314  -0.000   0.000  81.545
 Approx polarizability:  24.845  -0.000  24.845  -0.000   0.000 190.387

                      1                      2                      3
                     PIU                    PIU                    PIG
 Frequencies --    203.4725               203.4725               490.3472
 Red. masses --      3.4204                 3.4204                 4.3423
 Frc consts  --      0.0834                 0.0834                 0.6151
 IR Inten    --     31.0297                31.0297                 0.0000

                      4                      5                      6
                     PIG                    PIU                    PIU
 Frequencies --    490.3472               725.2729               725.2729
 Red. masses --      4.3423                 1.3394                 1.3394
 Frc consts  --      0.6151                 0.4151                 0.4151
 IR Inten    --      0.0000                37.4982                37.4982

                      7                      8                      9
                     PIG                    PIG                    SGG
 Frequencies --    728.3413               728.3413               963.5127
 Red. masses --      1.4236                 1.4236                 6.3219
 Frc consts  --      0.4449                 0.4449                 3.4579
 IR Inten    --      0.0000                 0.0000                 0.0000

                     10                     11                     12
                     SGU                    SGG                    SGU
 Frequencies --   1684.9150              2171.8482              3119.9698
 Red. masses --      6.0315                 7.4575                 1.1453
 Frc consts  --     10.0886                20.7253                 6.5685
 IR Inten    --    635.5273                 0.0000               879.1221

                     13
                     SGG
 Frequencies --   3132.2491
 Red. masses --      1.1539
 Frc consts  --      6.6701
 IR Inten    --      0.0000

 - Thermochemistry -
 -------------------
 Temperature   298.150 Kelvin.  Pressure   1.00000 Atm.
 Atom     1 has atomic number  6 and mass  12.00000

 Molecular mass:    50.01565 amu.
 Principal axes and moments of inertia in atomic units:
                           1         2         3
     Eigenvalues --     0.00000 415.91439 415.91439
           X           -0.00000   0.58516   0.81092
           Y            0.00000   0.81092  -0.58516
           Z            1.00000   0.00000   0.00000
 This molecule is a prolate symmetric top.
 Rotational symmetry number  2.
 Rotational temperature (Kelvin)      0.20825
 Rotational constant (GHZ):           4.339213
 Zero-point vibrational energy      91917.2 (Joules/Mol)
                                   21.96875 (Kcal/Mol)
 Warning -- explicit consideration of   4 degrees of freedom as
           vibrations may cause significant error
 Vibrational temperatures:    292.75   292.75   705.50   705.50  1043.50
          (Kelvin)           1043.50  1047.92  1047.92  1386.28  2424.21
                             3124.80  4488.94  4506.60

 Zero-point correction=                           0.035009 (Hartree/Particle)
 Thermal correction to Energy=                    0.039397
 Thermal correction to Enthalpy=                  0.040342
 Thermal correction to Gibbs Free Energy=         0.011039
 Sum of electronic and zero-point Energies=           -152.530890
 Sum of electronic and thermal Energies=              -152.526502
 Sum of electronic and thermal Enthalpies=            -152.525558
 Sum of electronic and thermal Free Energies=         -152.554860

                     E (Thermal)             CV                S
                      KCal/Mol        Cal/Mol-Kelvin    Cal/Mol-Kelvin
 Total                   24.722             14.760             61.672
 Electronic               0.000              0.000              2.183
 Translational            0.889              2.981             37.653
 Rotational               0.592              1.987             15.050
 Vibrational             23.241              9.792              6.786
 Vibration     1          0.639              1.835              2.101
 Vibration     2          0.639              1.835              2.101
 Vibration     3          0.846              1.271              0.683
 Vibration     4          0.846              1.271              0.683

 Optimization completed.
    -- Stationary point found.
 Normal termination of Gaussian 09 at Thu Jan 31 04:20:50 2019.
