 Gaussian 09, Revision E.01,
 Gaussian 09:  EM64L-G09RevE.01 30-Nov-2015

 ---------------------------------------------
 #p b3lyp/6-311++G(3df,2p) freq symmetry=Loose
 ---------------------------------------------

 ---------
 b3lyp opt
 ---------
 Symbolic Z-matrix:
 Charge =  1 Multiplicity = 4

                         Standard orientation:
 ---------------------------------------------------------------------
 Center     Atomic      Atomic             Coordinates (Angstroms)
 Number     Number       Type             X           Y           Z
 ---------------------------------------------------------------------
      1          6           0       -0.000000    0.000000    1.489784
      2          6           0       -0.000000    0.000000    0.103385
      3          6           0        0.675118   -0.000000   -1.135160
      4          6           0       -0.675118    0.000000   -1.135160
      5          1           0       -0.938261    0.000000    2.031450
      6          1           0        0.938261   -0.000000    2.031450
 ---------------------------------------------------------------------

 SCF Done:  E(UB3LYP) =  -153.052064812     A.U. after   13 cycles

 The electronic state is 4-A2.
 Alpha  occ. eigenvalues --  -10.55891 -10.55814 -10.53467 -10.48092  -1.24100
 Alpha  occ. eigenvalues --   -1.03199  -0.81423  -0.80315  -0.72053  -0.69678
 Alpha  occ. eigenvalues --   -0.69340  -0.62351  -0.54596  -0.53047
 Alpha virt. eigenvalues --   -0.30893  -0.25523  -0.16139  -0.13825  -0.11788
 Alpha virt. eigenvalues --   -0.10904  -0.10497  -0.10361  -0.08362  -0.07022
 Alpha virt. eigenvalues --   -0.06038  -0.04898  -0.03960  -0.03317  -0.02063

  Beta  occ. eigenvalues --  -10.53846 -10.53782 -10.53039 -10.47013  -1.21162
  Beta  occ. eigenvalues --   -0.99541  -0.77472  -0.75309  -0.67830  -0.66387
  Beta  occ. eigenvalues --   -0.65898
  Beta virt. eigenvalues --   -0.44501  -0.40413  -0.39090  -0.25746  -0.21089
  Beta virt. eigenvalues --   -0.15341  -0.12206  -0.11023  -0.09728  -0.09726
  Beta virt. eigenvalues --   -0.09678  -0.07869  -0.05329  -0.04713  -0.03914

 Mulliken charges and spin densities:
               1          2
     1  C   -0.340390   0.710894
     2  C    0.426537   0.039612
     3  C    0.211130   1.125905
     4  C    0.211130   1.125905
     5  H    0.245797  -0.001158
     6  H    0.245797  -0.001158
 Sum of Mulliken charges =   1.00000   3.00000

 Dipole moment (field-independent basis, Debye):
    X=             -0.0000    Y=             -0.0000    Z=              1.1536  Tot=              1.1536
 Quadrupole moment (field-independent basis, Debye-Ang):
   XX=            -17.2697   YY=            -20.6318   ZZ=            -10.3723
   XY=             -0.0000   XZ=             -0.0000   YZ=             -0.0000

  Exact polarizability:  32.666  -0.000  22.877   0.000  -0.000  52.310
 Approx polarizability:  59.777  -0.000  33.192  -0.000  -0.000  79.995

                      1                      2                      3
                     B1                     B2                     A2
 Frequencies --    359.4162               428.4172               473.0126
 Red. masses --      3.3270                 5.4747                 1.1556
 Frc consts  --      0.2532                 0.5920                 0.1523
 IR Inten    --      3.0121                 3.1838                 0.0000

                      4                      5                      6
                     A1                     B2                     B1
 Frequencies --    867.3195               872.2840               941.4037
 Red. masses --      5.6123                 1.3664                 2.2569
 Frc consts  --      2.4874                 0.6125                 1.1784
 IR Inten    --      7.5978                26.3777                15.7811

                      7                      8                      9
                     B1                     A1                     A1
 Frequencies --   1098.7438              1419.5130              1455.0185
 Red. masses --      2.8185                 2.2336                 1.8797
 Frc consts  --      2.0047                 2.6518                 2.3447
 IR Inten    --     49.3693                 1.8376                32.3319

                     10                     11                     12
                     A1                     A1                     B1
 Frequencies --   1631.5425              3127.0376              3241.8302
 Red. masses --     11.4097                 1.0501                 1.1221
 Frc consts  --     17.8945                 6.0497                 6.9477
 IR Inten    --     17.8788                56.3556                28.9034

 - Thermochemistry -
 -------------------
 Temperature   298.150 Kelvin.  Pressure   1.00000 Atm.
 Atom     1 has atomic number  6 and mass  12.00000

 Molecular mass:    50.01565 amu.
 Principal axes and moments of inertia in atomic units:
                           1         2         3
     Eigenvalues --    45.39990 234.55147 279.95137
           X           -0.00000   1.00000   0.00000
           Y           -0.00000  -0.00000   1.00000
           Z            1.00000   0.00000   0.00000
 This molecule is an asymmetric top.
 Rotational symmetry number  2.
 Rotational temperatures (Kelvin)      1.90780     0.36927     0.30939
 Rotational constants (GHZ):          39.75210     7.69444     6.44662
 Zero-point vibrational energy      95196.1 (Joules/Mol)
                                   22.75240 (Kcal/Mol)
 Warning -- explicit consideration of   3 degrees of freedom as
           vibrations may cause significant error
 Vibrational temperatures:    517.12   616.40   680.56  1247.88  1255.02
          (Kelvin)           1354.47  1580.85  2042.36  2093.44  2347.42
                             4499.10  4664.26

 Zero-point correction=                           0.036258 (Hartree/Particle)
 Thermal correction to Energy=                    0.040177
 Thermal correction to Enthalpy=                  0.041121
 Thermal correction to Gibbs Free Energy=         0.010287
 Sum of electronic and zero-point Energies=           -153.015807
 Sum of electronic and thermal Energies=              -153.011888
 Sum of electronic and thermal Enthalpies=            -153.010943
 Sum of electronic and thermal Free Energies=         -153.041778

                     E (Thermal)             CV                S
                      KCal/Mol        Cal/Mol-Kelvin    Cal/Mol-Kelvin
 Total                   25.212             12.282             64.897
 Electronic               0.000              0.000              2.755
 Translational            0.889              2.981             37.653
 Rotational               0.889              2.981             21.238
 Vibrational             23.434              6.320              3.251
 Vibration     1          0.734              1.556              1.125
 Vibration     2          0.790              1.408              0.864
 Vibration     3          0.830              1.310              0.729

 Optimization completed.
    -- Stationary point found.
 Normal termination of Gaussian 09 at Tue Jul 19 04:10:00 2016.
