 Gaussian 09, Revision E.01,
 Gaussian 09:  EM64L-G09RevE.01 30-Nov-2015

 ---------------------------------------------
 #p b3lyp/6-311++G(3df,2p) freq symmetry=Loose
 ---------------------------------------------

 ---------
 b3lyp opt
 ---------
 Symbolic Z-matrix:
 Charge =  3 Multiplicity = 2

                         Standard orientation:
 ---------------------------------------------------------------------
 Center     Atomic      Atomic             Coordinates (Angstroms)
 Number     Number       Type             X           Y           Z
 ---------------------------------------------------------------------
      1          6           0       -0.419477    1.826691    0.000000
      2          6           0       -0.000000    0.575753   -0.000000
      3          6           0        0.508059   -0.649656   -0.000000
      4          6           0       -0.233793   -2.100188    0.000000
      5          1           0       -0.780405    2.905058    0.000000
      6          1           0        1.651668   -0.820660   -0.000000
 ---------------------------------------------------------------------

 SCF Done:  E(UB3LYP) =  -151.555684246     A.U. after   25 cycles

 The electronic state is 2-A'.
 Alpha  occ. eigenvalues --  -11.21827 -11.12134 -11.06606 -11.05910  -1.62785
 Alpha  occ. eigenvalues --   -1.54419  -1.41904  -1.28309  -1.25004  -1.14368
 Alpha  occ. eigenvalues --   -1.12981  -1.08660
 Alpha virt. eigenvalues --   -0.97004  -0.91202  -0.86532  -0.81327  -0.69064
 Alpha virt. eigenvalues --   -0.63158  -0.57628  -0.53294  -0.51001  -0.44645
 Alpha virt. eigenvalues --   -0.43847  -0.43347  -0.42835  -0.41281  -0.39759

  Beta  occ. eigenvalues --  -11.21590 -11.11048 -11.06146 -11.05985  -1.60943
  Beta  occ. eigenvalues --   -1.52256  -1.41102  -1.27128  -1.24229  -1.12271
  Beta  occ. eigenvalues --   -1.10988
  Beta virt. eigenvalues --   -0.96877  -0.96530  -0.90760  -0.86204  -0.75583
  Beta virt. eigenvalues --   -0.68323  -0.61713  -0.56323  -0.52738  -0.50402
  Beta virt. eigenvalues --   -0.44276  -0.43369  -0.43276  -0.42301  -0.40985

 Mulliken charges and spin densities:
               1          2
     1  C    0.606859   0.575843
     2  C    0.450143   0.455637
     3  C    0.198919  -0.181192
     4  C    0.869573   0.125846
     5  H    0.530568  -0.016953
     6  H    0.343938   0.040819
 Sum of Mulliken charges =   3.00000   1.00000

 Dipole moment (field-independent basis, Debye):
    X=             -0.2105    Y=              0.6447    Z=              0.0000  Tot=              0.6782
 Quadrupole moment (field-independent basis, Debye-Ang):
   XX=             -8.9147   YY=             32.0468   ZZ=            -16.1684
   XY=             -8.0967   XZ=             -0.0000   YZ=              0.0000

  Exact polarizability:  25.124  -6.753  72.813   0.000   0.000  18.379
 Approx polarizability:  42.157 -19.944 177.254  -0.000   0.000  26.877

                      1                      2                      3
                     A'                     A"                     A'
 Frequencies --    198.3580               286.8253               460.7461
 Red. masses --      5.0723                 2.6968                 5.8869
 Frc consts  --      0.1176                 0.1307                 0.7363
 IR Inten    --     12.0085                48.6823                83.4140

                      4                      5                      6
                     A'                     A"                     A'
 Frequencies --    589.9271               657.7146               664.4664
 Red. masses --      5.5205                 1.7921                 1.3851
 Frc consts  --      1.1319                 0.4568                 0.3603
 IR Inten    --    225.0393                 6.4586                30.8471

                      7                      8                      9
                     A"                     A'                     A'
 Frequencies --    851.9375               973.8843              1105.4099
 Red. masses --      1.3983                 1.2507                 4.5684
 Frc consts  --      0.5980                 0.6989                 3.2890
 IR Inten    --     12.3010                 9.6277               549.0974

                     10                     11                     12
                     A'                     A'                     A'
 Frequencies --   1783.8784              2461.4675              2749.6529
 Red. masses --      6.8463                 1.0817                 1.1670
 Frc consts  --     12.8362                 3.8616                 5.1984
 IR Inten    --    325.6656               698.8406               674.8342

 - Thermochemistry -
 -------------------
 Temperature   298.150 Kelvin.  Pressure   1.00000 Atm.
 Atom     1 has atomic number  6 and mass  12.00000

 Molecular mass:    50.01565 amu.
 Principal axes and moments of inertia in atomic units:
                           1         2         3
     Eigenvalues --    28.74588 400.94375 429.68963
           X           -0.10566   0.99440   0.00000
           Y            0.99440   0.10566   0.00000
           Z           -0.00000  -0.00000   1.00000
 This molecule is an asymmetric top.
 Rotational symmetry number  1.
 Rotational temperatures (Kelvin)      3.01309     0.21602     0.20157
 Rotational constants (GHZ):          62.78261     4.50123     4.20010
 Zero-point vibrational energy      76466.9 (Joules/Mol)
                                   18.27603 (Kcal/Mol)
 Warning -- explicit consideration of   4 degrees of freedom as
           vibrations may cause significant error
 Vibrational temperatures:    285.39   412.68   662.91   848.77   946.30
          (Kelvin)            956.02  1225.75  1401.20  1590.44  2566.60
                             3541.50  3956.13

 Zero-point correction=                           0.029125 (Hartree/Particle)
 Thermal correction to Energy=                    0.033768
 Thermal correction to Enthalpy=                  0.034712
 Thermal correction to Gibbs Free Energy=         0.002369
 Sum of electronic and zero-point Energies=           -151.526560
 Sum of electronic and thermal Energies=              -151.521916
 Sum of electronic and thermal Enthalpies=            -151.520972
 Sum of electronic and thermal Free Energies=         -151.553315

                     E (Thermal)             CV                S
                      KCal/Mol        Cal/Mol-Kelvin    Cal/Mol-Kelvin
 Total                   21.190             14.984             68.071
 Electronic               0.000              0.000              1.377
 Translational            0.889              2.981             37.653
 Rotational               0.889              2.981             23.120
 Vibrational             19.412              9.022              5.921
 Vibration     1          0.637              1.842              2.148
 Vibration     2          0.684              1.698              1.493
 Vibration     3          0.819              1.337              0.764
 Vibration     4          0.947              1.053              0.467

 Optimization completed.
    -- Stationary point found.
 Normal termination of Gaussian 09 at Tue Jul 19 04:59:46 2016.
