 Gaussian 09, Revision E.01,
 Gaussian 09:  EM64L-G09RevE.01 30-Nov-2015

 ---------------------------------------------
 #p b3lyp/6-311++G(3df,2p) freq symmetry=Loose
 ---------------------------------------------

 ---------
 b3lyp opt
 ---------
 Symbolic Z-matrix:
 Charge =  2 Multiplicity = 3

                         Standard orientation:
 ---------------------------------------------------------------------
 Center     Atomic      Atomic             Coordinates (Angstroms)
 Number     Number       Type             X           Y           Z
 ---------------------------------------------------------------------
      1          6           0        0.005040    1.501600    0.000000
      2          6           0        0.000000    0.105845    0.000000
      3          6           0        0.655814   -1.148428    0.000000
      4          6           0       -0.663464   -1.144344   -0.000000
      5          1           0        0.007829    2.055978    0.955703
      6          1           0        0.007829    2.055978   -0.955703
 ---------------------------------------------------------------------

 SCF Done:  E(UB3LYP) =  -152.452809679     A.U. after   14 cycles

 The electronic state is 3-A'.
 Alpha  occ. eigenvalues --  -10.85556 -10.85457 -10.83999 -10.81777  -1.52238
 Alpha  occ. eigenvalues --   -1.32044  -1.07863  -1.07325  -1.00138  -0.99625
 Alpha  occ. eigenvalues --   -0.92114  -0.89397  -0.84723
 Alpha virt. eigenvalues --   -0.66573  -0.58733  -0.55431  -0.37748  -0.33743
 Alpha virt. eigenvalues --   -0.32418  -0.29930  -0.29351  -0.27419  -0.27107
 Alpha virt. eigenvalues --   -0.25872  -0.23521  -0.21920  -0.21579  -0.21014

  Beta  occ. eigenvalues --  -10.83892 -10.83603 -10.83524 -10.81339  -1.50581
  Beta  occ. eigenvalues --   -1.30181  -1.06566  -1.01253  -0.99782  -0.97124
  Beta  occ. eigenvalues --   -0.90763
  Beta virt. eigenvalues --   -0.70689  -0.69866  -0.60347  -0.57816  -0.51110
  Beta virt. eigenvalues --   -0.36791  -0.31328  -0.29852  -0.29811  -0.28477
  Beta virt. eigenvalues --   -0.26701  -0.26381  -0.25771  -0.23058  -0.21487

 Mulliken charges and spin densities:
               1          2
     1  C   -0.087818   0.285071
     2  C    0.513523  -0.119523
     3  C    0.457610   0.925123
     4  C    0.458075   0.924842
     5  H    0.329305  -0.007756
     6  H    0.329305  -0.007756
 Sum of Mulliken charges =   2.00000   2.00000

 Dipole moment (field-independent basis, Debye):
    X=              0.0089    Y=              2.3588    Z=             -0.0000  Tot=              2.3588
 Quadrupole moment (field-independent basis, Debye-Ang):
   XX=            -14.8239   YY=              3.4987   ZZ=            -15.4835
   XY=              0.0657   XZ=             -0.0000   YZ=             -0.0000

  Exact polarizability:  24.410   0.102  53.866  -0.000  -0.000  20.821
 Approx polarizability:  46.074   0.180  98.797  -0.000  -0.000  29.882

                      1                      2                      3
                     A'                     A"                     A"
 Frequencies --    312.5054               358.3930               393.2122
 Red. masses --      4.7747                 1.1682                 2.7803
 Frc consts  --      0.2747                 0.0884                 0.2533
 IR Inten    --     11.8271                 0.0000                 8.7264

                      4                      5                      6
                     A'                     A'                     A"
 Frequencies --    853.7901               876.8898               960.4986
 Red. masses --      5.5724                 7.9015                 1.5745
 Frc consts  --      2.3933                 3.5797                 0.8558
 IR Inten    --      8.7622                64.4665                 0.0387

                      7                      8                      9
                     A'                     A'                     A'
 Frequencies --   1116.1142              1320.1767              1370.1148
 Red. masses --      1.4748                 6.0777                 1.2271
 Frc consts  --      1.0824                 6.2410                 1.3572
 IR Inten    --      1.6677               142.4724                15.5591

                     10                     11                     12
                     A'                     A'                     A"
 Frequencies --   1734.2130              2939.8194              3045.2048
 Red. masses --     11.6337                 1.0494                 1.1232
 Frc consts  --     20.6145                 5.3435                 6.1368
 IR Inten    --     16.6035               311.5458               202.7548

 - Thermochemistry -
 -------------------
 Temperature   298.150 Kelvin.  Pressure   1.00000 Atm.
 Atom     1 has atomic number  6 and mass  12.00000

 Molecular mass:    50.01565 amu.
 Principal axes and moments of inertia in atomic units:
                           1         2         3
     Eigenvalues --    43.86732 245.55412 276.27256
           X            0.00345   0.99999   0.00000
           Y            0.99999  -0.00345   0.00000
           Z           -0.00000  -0.00000   1.00000
 This molecule is an asymmetric top.
 Rotational symmetry number  1.
 Rotational temperatures (Kelvin)      1.97445     0.35273     0.31351
 Rotational constants (GHZ):          41.14090     7.34967     6.53247
 Zero-point vibrational energy      91400.3 (Joules/Mol)
                                   21.84519 (Kcal/Mol)
 Warning -- explicit consideration of   3 degrees of freedom as
           vibrations may cause significant error
 Vibrational temperatures:    449.63   515.65   565.74  1228.41  1261.65
          (Kelvin)           1381.94  1605.84  1899.44  1971.29  2495.14
                             4229.74  4381.36

 Zero-point correction=                           0.034813 (Hartree/Particle)
 Thermal correction to Energy=                    0.038928
 Thermal correction to Enthalpy=                  0.039872
 Thermal correction to Gibbs Free Energy=         0.008298
 Sum of electronic and zero-point Energies=           -152.417997
 Sum of electronic and thermal Energies=              -152.413882
 Sum of electronic and thermal Enthalpies=            -152.412938
 Sum of electronic and thermal Free Energies=         -152.444512

                     E (Thermal)             CV                S
                      KCal/Mol        Cal/Mol-Kelvin    Cal/Mol-Kelvin
 Total                   24.428             12.730             66.454
 Electronic               0.000              0.000              2.183
 Translational            0.889              2.981             37.653
 Rotational               0.889              2.981             22.614
 Vibrational             22.650              6.768              4.005
 Vibration     1          0.701              1.650              1.349
 Vibration     2          0.733              1.558              1.129
 Vibration     3          0.760              1.485              0.988

 Optimization completed.
    -- Stationary point found.
 Normal termination of Gaussian 09 at Tue Jul 19 04:21:49 2016.
