 Gaussian 09, Revision E.01,
 Gaussian 09:  EM64L-G09RevE.01 30-Nov-2015

 ------------------------------------------------------
 #p b3lyp/6-311++G(3df,2p) freq IOp(2/17=3) IOp(2/18=3)
 ------------------------------------------------------

 ---------
 b3lyp opt
 ---------
 Symbolic Z-matrix:
 Charge =  0 Multiplicity = 1

                         Standard orientation:
 ---------------------------------------------------------------------
 Center     Atomic      Atomic             Coordinates (Angstroms)
 Number     Number       Type             X           Y           Z
 ---------------------------------------------------------------------
      1          6           0        0.000000   -0.000000    1.885686
      2          6           0        0.000000    0.000000    0.681494
      3          6           0        0.000000   -0.000000   -0.681494
      4          6           0        0.000000   -0.000000   -1.885686
      5          1           0        0.000000   -0.000000    2.947537
      6          1           0        0.000000   -0.000000   -2.947537
 ---------------------------------------------------------------------

 SCF Done:  E(RB3LYP) =  -153.542169905     A.U. after    9 cycles

 The electronic state is 1-SGG.
 Alpha  occ. eigenvalues --  -10.20685 -10.20618 -10.19703 -10.19700  -0.81355
 Alpha  occ. eigenvalues --   -0.75681  -0.64188  -0.54771  -0.52624  -0.36788
 Alpha  occ. eigenvalues --   -0.36788  -0.27501  -0.27501
 Alpha virt. eigenvalues --   -0.04216  -0.04216   0.00029   0.00647   0.04027
 Alpha virt. eigenvalues --    0.06108   0.06108   0.06228   0.06228   0.07694
 Alpha virt. eigenvalues --    0.11264   0.11393   0.13984   0.13984   0.16225

 Mulliken charges:
               1
     1  C    0.191654
     2  C   -0.494420
     3  C   -0.494420
     4  C    0.191654
     5  H    0.302766
     6  H    0.302766
 Sum of Mulliken charges =  -0.00000

 Dipole moment (field-independent basis, Debye):
    X=              0.0000    Y=             -0.0000    Z=              0.0000  Tot=              0.0000
 Quadrupole moment (field-independent basis, Debye-Ang):
   XX=            -24.8018   YY=            -24.8018   ZZ=            -12.3308
   XY=              0.0000   XZ=             -0.0000   YZ=             -0.0000

  Exact polarizability:  29.514   0.000  29.514  -0.000  -0.000  88.799
 Approx polarizability:  39.685  -0.000  39.685  -0.000   0.000 179.171

                      1                      2                      3
                     PIU                    PIU                    PIG
 Frequencies --    237.2721               237.2721               546.7495
 Red. masses --      3.7545                 3.7545                 6.5462
 Frc consts  --      0.1245                 0.1245                 1.1530
 IR Inten    --      9.0118                 9.0118                 0.0000

                      4                      5                      6
                     PIG                    PIG                    PIG
 Frequencies --    546.7495               665.0690               665.0690
 Red. masses --      6.5462                 1.2768                 1.2768
 Frc consts  --      1.1530                 0.3328                 0.3328
 IR Inten    --      0.0000                 0.0000                 0.0000

                      7                      8                      9
                     PIU                    PIU                    SGG
 Frequencies --    667.7853               667.7853               916.0571
 Red. masses --      1.2943                 1.2943                 6.9943
 Frc consts  --      0.3401                 0.3401                 3.4581
 IR Inten    --     85.4474                85.4474                 0.0000

                     10                     11                     12
                     SGU                    SGG                    SGG
 Frequencies --   2108.2614              2276.9575              3461.2539
 Red. masses --      5.7122                 6.6866                 1.1542
 Frc consts  --     14.9589                20.4251                 8.1473
 IR Inten    --      5.3684                 0.0000                 0.0000

                     13
                     SGU
 Frequencies --   3463.0528
 Red. masses --      1.1576
 Frc consts  --      8.1793
 IR Inten    --    187.9349

 - Thermochemistry -
 -------------------
 Temperature   298.150 Kelvin.  Pressure   1.00000 Atm.
 Atom     1 has atomic number  6 and mass  12.00000

 Molecular mass:    50.01565 amu.
 Principal axes and moments of inertia in atomic units:
                           1         2         3
     Eigenvalues --     0.00000 407.09351 407.09351
           X           -0.00000   1.00000   0.00058
           Y            0.00000  -0.00058   1.00000
           Z            1.00000   0.00000   0.00000
 This molecule is a prolate symmetric top.
 Rotational symmetry number  2.
 Rotational temperature (Kelvin)      0.21276
 Rotational constant (GHZ):           4.433235
 Zero-point vibrational energy      98448.7 (Joules/Mol)
                                   23.52980 (Kcal/Mol)
 Warning -- explicit consideration of   4 degrees of freedom as
           vibrations may cause significant error
 Vibrational temperatures:    341.38   341.38   786.65   786.65   956.88
          (Kelvin)            956.88   960.79   960.79  1318.00  3033.31
                             3276.03  4979.97  4982.55

 Zero-point correction=                           0.037497 (Hartree/Particle)
 Thermal correction to Energy=                    0.041809
 Thermal correction to Enthalpy=                  0.042753
 Thermal correction to Gibbs Free Energy=         0.014752
 Sum of electronic and zero-point Energies=           -153.504673
 Sum of electronic and thermal Energies=              -153.500361
 Sum of electronic and thermal Enthalpies=            -153.499416
 Sum of electronic and thermal Free Energies=         -153.527418

                     E (Thermal)             CV                S
                      KCal/Mol        Cal/Mol-Kelvin    Cal/Mol-Kelvin
 Total                   26.236             14.899             58.935
 Electronic               0.000              0.000              0.000
 Translational            0.889              2.981             37.653
 Rotational               0.592              1.987             15.007
 Vibrational             24.755              9.931              6.274
 Vibration     1          0.656              1.784              1.823
 Vibration     2          0.656              1.784              1.823
 Vibration     3          0.902              1.147              0.551
 Vibration     4          0.902              1.147              0.551

 Optimization completed.
    -- Stationary point found.
 Normal termination of Gaussian 09 at Thu Jan 31 04:16:37 2019.
