 Gaussian 09, Revision E.01,
 Gaussian 09:  EM64L-G09RevE.01 30-Nov-2015

 ------------------------------------------------------
 #p b3lyp/6-311++G(3df,2p) freq IOp(2/17=3) IOp(2/18=3)
 ------------------------------------------------------

 ---------
 b3lyp opt
 ---------
 Symbolic Z-matrix:
 Charge =  0 Multiplicity = 1

                         Standard orientation:
 ---------------------------------------------------------------------
 Center     Atomic      Atomic             Coordinates (Angstroms)
 Number     Number       Type             X           Y           Z
 ---------------------------------------------------------------------
      1          6           0        0.640749   -0.000000   -0.876984
      2          6           0       -0.640749    0.000000   -0.876984
      3          6           0       -0.000000    0.000000    0.457627
      4          6           0       -0.000000    0.000000    1.744247
      5          1           0        1.607092   -0.000000   -1.343719
      6          1           0       -1.607092    0.000000   -1.343719
 ---------------------------------------------------------------------

 SCF Done:  E(RB3LYP) =  -153.428152546     A.U. after   11 cycles

 The electronic state is 1-A1.
 Alpha  occ. eigenvalues --  -10.26288 -10.26165 -10.20256 -10.19354  -0.94412
 Alpha  occ. eigenvalues --   -0.72102  -0.63025  -0.59070  -0.45779  -0.41693
 Alpha  occ. eigenvalues --   -0.36905  -0.27514  -0.23659
 Alpha virt. eigenvalues --   -0.09233  -0.05775  -0.01232   0.00461   0.02999
 Alpha virt. eigenvalues --    0.03420   0.04939   0.06430   0.07273   0.07902
 Alpha virt. eigenvalues --    0.09500   0.10304   0.10338   0.10409   0.12985

 Mulliken charges:
               1
     1  C   -0.022337
     2  C   -0.022337
     3  C    0.541826
     4  C   -1.031587
     5  H    0.267218
     6  H    0.267218
 Sum of Mulliken charges =  -0.00000

 Dipole moment (field-independent basis, Debye):
    X=              0.0000    Y=              0.0000    Z=             -5.1769  Tot=              5.1769
 Quadrupole moment (field-independent basis, Debye-Ang):
   XX=            -18.1311   YY=            -25.3766   ZZ=            -29.9739
   XY=             -0.0000   XZ=             -0.0000   YZ=             -0.0000

  Exact polarizability:  41.277  -0.000  30.796   0.000   0.000  61.604
 Approx polarizability:  68.373  -0.000  43.260   0.000  -0.000  99.113

                      1                      2                      3
                     B1                     B2                     B2
 Frequencies --    182.5386               376.5098               662.6190
 Red. masses --      5.3608                 5.9069                 1.2330
 Frc consts  --      0.1052                 0.4934                 0.3190
 IR Inten    --      5.9632                 5.1689                53.9838

                      4                      5                      6
                     B1                     A2                     A1
 Frequencies --    738.0181               816.9831               829.9560
 Red. masses --      7.1102                 1.4749                 2.6498
 Frc consts  --      2.2817                 0.5800                 1.0754
 IR Inten    --      0.0174                 0.0000                 2.5853

                      7                      8                      9
                     A1                     B1                     A1
 Frequencies --    973.3706               995.0457              1605.3553
 Red. masses --      1.4960                 1.3229                 7.2402
 Frc consts  --      0.8351                 0.7717                10.9936
 IR Inten    --      1.8915                20.5437                86.9779

                     10                     11                     12
                     A1                     B1                     A1
 Frequencies --   1865.0941              3274.9685              3327.5809
 Red. masses --      6.7357                 1.0844                 1.1555
 Frc consts  --     13.8049                 6.8528                 7.5382
 IR Inten    --     15.3379                29.2368                12.4945

 - Thermochemistry -
 -------------------
 Temperature   298.150 Kelvin.  Pressure   1.00000 Atm.
 Atom     1 has atomic number  6 and mass  12.00000

 Molecular mass:    50.01565 amu.
 Principal axes and moments of inertia in atomic units:
                           1         2         3
     Eigenvalues --    53.77792 217.75462 271.53254
           X           -0.00000   1.00000   0.00000
           Y           -0.00000  -0.00000   1.00000
           Z            1.00000   0.00000   0.00000
 This molecule is an asymmetric top.
 Rotational symmetry number  2.
 Rotational temperatures (Kelvin)      1.61058     0.39776     0.31898
 Rotational constants (GHZ):          33.55915     8.28796     6.64650
 Zero-point vibrational energy      93596.1 (Joules/Mol)
                                   22.37000 (Kcal/Mol)
 Warning -- explicit consideration of   2 degrees of freedom as
           vibrations may cause significant error
 Vibrational temperatures:    262.63   541.71   953.36  1061.84  1175.45
          (Kelvin)           1194.12  1400.46  1431.65  2309.75  2683.45
                             4711.94  4787.64

 Zero-point correction=                           0.035649 (Hartree/Particle)
 Thermal correction to Energy=                    0.039856
 Thermal correction to Enthalpy=                  0.040800
 Thermal correction to Gibbs Free Energy=         0.010622
 Sum of electronic and zero-point Energies=           -153.392504
 Sum of electronic and thermal Energies=              -153.388296
 Sum of electronic and thermal Enthalpies=            -153.387352
 Sum of electronic and thermal Free Energies=         -153.417530

                     E (Thermal)             CV                S
                      KCal/Mol        Cal/Mol-Kelvin    Cal/Mol-Kelvin
 Total                   25.010             13.093             63.516
 Electronic               0.000              0.000              0.000
 Translational            0.889              2.981             37.653
 Rotational               0.889              2.981             21.302
 Vibrational             23.233              7.132              4.561
 Vibration     1          0.630              1.864              2.302
 Vibration     2          0.747              1.520              1.053

 Optimization completed.
    -- Stationary point found.
 Normal termination of Gaussian 09 at Thu Jan 31 04:17:17 2019.
