 Gaussian 09, Revision E.01,
 Gaussian 09:  EM64L-G09RevE.01 30-Nov-2015

 ---------------------------------------------
 #p b3lyp/6-311++G(3df,2p) freq symmetry=Loose
 ---------------------------------------------

 ---------
 b3lyp opt
 ---------
 Symbolic Z-matrix:
 Charge =  0 Multiplicity = 1

                         Standard orientation:
 ---------------------------------------------------------------------
 Center     Atomic      Atomic             Coordinates (Angstroms)
 Number     Number       Type             X           Y           Z
 ---------------------------------------------------------------------
      1          6           0        0.609129   -0.987013    0.000000
      2          6           0        0.609129    0.562369    0.000000
      3          6           0       -0.609129    0.987013    0.000000
      4          6           0       -0.609129   -0.562369    0.000000
      5          1           0        1.338411   -1.764216    0.000000
      6          1           0       -1.338411    1.764216    0.000000
 ---------------------------------------------------------------------

 SCF Done:  E(RB3LYP) =  -153.440081776     A.U. after   10 cycles

 The electronic state is 1-AG.
 Alpha  occ. eigenvalues --  -10.24898 -10.24886 -10.21708 -10.21704  -0.96005
 Alpha  occ. eigenvalues --   -0.72360  -0.57104  -0.55840  -0.46747  -0.42333
 Alpha  occ. eigenvalues --   -0.41324  -0.29884  -0.22968
 Alpha virt. eigenvalues --   -0.06136  -0.04324   0.00026   0.01135   0.03230
 Alpha virt. eigenvalues --    0.03564   0.05579   0.06999   0.07038   0.08759
 Alpha virt. eigenvalues --    0.09200   0.10418   0.11186   0.11284   0.11657

 Mulliken charges:
               1
     1  C   -0.008658
     2  C   -0.254793
     3  C   -0.008658
     4  C   -0.254793
     5  H    0.263452
     6  H    0.263452
 Sum of Mulliken charges =  -0.00000

 Dipole moment (field-independent basis, Debye):
    X=              0.0000    Y=              0.0000    Z=              0.0000  Tot=              0.0000
 Quadrupole moment (field-independent basis, Debye-Ang):
   XX=            -22.4074   YY=            -20.8365   ZZ=            -25.2993
   XY=             -4.6573   XZ=             -0.0000   YZ=              0.0000

  Exact polarizability:  45.447  -3.442  51.010  -0.000   0.000  30.405
 Approx polarizability:  94.066   2.549  83.852  -0.000   0.000  43.457

                      1                      2                      3
                     BG                     AU                     BU
 Frequencies --    365.6452               423.1624               424.7722
 Red. masses --      1.2960                 2.2870                 7.7864
 Frc consts  --      0.1021                 0.2413                 0.8278
 IR Inten    --      0.0000                77.8372                72.8787

                      4                      5                      6
                     AU                     AG                     AG
 Frequencies --    533.9222               625.8939               880.2799
 Red. masses --      1.6620                10.5942                 5.0112
 Frc consts  --      0.2791                 2.4452                 2.2879
 IR Inten    --     57.6299                 0.0000                 0.0000

                      7                      8                      9
                     BU                     AG                     AG
 Frequencies --   1002.8962              1020.3006              1624.3538
 Red. masses --      1.0963                 1.3254                 7.2686
 Frc consts  --      0.6496                 0.8129                11.2997
 IR Inten    --     10.7970                 0.0000                 0.0000

                     10                     11                     12
                     BU                     BU                     AG
 Frequencies --   1707.8635              3384.2455              3387.5984
 Red. masses --      7.2188                 1.1127                 1.1169
 Frc consts  --     12.4057                 7.5083                 7.5520
 IR Inten    --     36.8779                80.2870                 0.0000

 - Thermochemistry -
 -------------------
 Temperature   298.150 Kelvin.  Pressure   1.00000 Atm.
 Atom     1 has atomic number  6 and mass  12.00000

 Molecular mass:    50.01565 amu.
 Principal axes and moments of inertia in atomic units:
                           1         2         3
     Eigenvalues --    56.45546 153.04128 209.49674
           X           -0.45549   0.89024   0.00000
           Y            0.89024   0.45549   0.00000
           Z            0.00000   0.00000   1.00000
 This molecule is an asymmetric top.
 Rotational symmetry number  2.
 Rotational temperatures (Kelvin)      1.53420     0.56595     0.41344
 Rotational constants (GHZ):          31.96752    11.79251     8.61465
 Zero-point vibrational energy      91998.4 (Joules/Mol)
                                   21.98815 (Kcal/Mol)
 Warning -- explicit consideration of   4 degrees of freedom as
           vibrations may cause significant error
 Vibrational temperatures:    526.08   608.84   611.15   768.19   900.52
          (Kelvin)           1266.52  1442.94  1467.98  2337.08  2457.23
                             4869.17  4873.99

 Zero-point correction=                           0.035040 (Hartree/Particle)
 Thermal correction to Energy=                    0.039271
 Thermal correction to Enthalpy=                  0.040215
 Thermal correction to Gibbs Free Energy=         0.010482
 Sum of electronic and zero-point Energies=           -153.405041
 Sum of electronic and thermal Energies=              -153.400811
 Sum of electronic and thermal Enthalpies=            -153.399867
 Sum of electronic and thermal Free Energies=         -153.429599

                     E (Thermal)             CV                S
                      KCal/Mol        Cal/Mol-Kelvin    Cal/Mol-Kelvin
 Total                   24.643             13.834             62.577
 Electronic               0.000              0.000              0.000
 Translational            0.889              2.981             37.653
 Rotational               0.889              2.981             20.742
 Vibrational             22.865              7.872              4.182
 Vibration     1          0.739              1.543              1.098
 Vibration     2          0.785              1.420              0.881
 Vibration     3          0.787              1.416              0.876
 Vibration     4          0.889              1.175              0.579

 Optimization completed.
    -- Stationary point found.
 Normal termination of Gaussian 09 at Tue Jul 19 03:28:53 2016.
