 Gaussian 09, Revision E.01,
 Gaussian 09:  EM64L-G09RevE.01 30-Nov-2015

 ---------------------------------------------
 #p b3lyp/6-311++G(3df,2p) freq symmetry=Loose
 ---------------------------------------------

 ---------
 b3lyp opt
 ---------
 Symbolic Z-matrix:
 Charge =  1 Multiplicity = 2

                         Standard orientation:
 ---------------------------------------------------------------------
 Center     Atomic      Atomic             Coordinates (Angstroms)
 Number     Number       Type             X           Y           Z
 ---------------------------------------------------------------------
      1          6           0       -0.676432    1.386874    0.000000
      2          6           0        0.000000    0.315848    0.000000
      3          6           0       -0.086379   -1.146894   -0.000000
      4          6           0        1.128315   -0.629058   -0.000000
      5          1           0       -1.275716    2.279615    0.000000
      6          1           0       -0.917310   -1.840237   -0.000000
 ---------------------------------------------------------------------

 SCF Done:  E(UB3LYP) =  -153.100219072     A.U. after   17 cycles

 The electronic state is 2-A".
 Alpha  occ. eigenvalues --  -10.52865 -10.52639 -10.52520 -10.50298  -1.20728
 Alpha  occ. eigenvalues --   -1.05089  -0.85463  -0.82539  -0.72082  -0.68401
 Alpha  occ. eigenvalues --   -0.66387  -0.55019  -0.52875
 Alpha virt. eigenvalues --   -0.36732  -0.27938  -0.23484  -0.15966  -0.15791
 Alpha virt. eigenvalues --   -0.13817  -0.12606  -0.10540  -0.09920  -0.06417
 Alpha virt. eigenvalues --   -0.06307  -0.05529  -0.04758  -0.03346  -0.03343

  Beta  occ. eigenvalues --  -10.52812 -10.52114 -10.51519 -10.50296  -1.20022
  Beta  occ. eigenvalues --   -1.01804  -0.85015  -0.81269  -0.71993  -0.66073
  Beta  occ. eigenvalues --   -0.65131  -0.52672
  Beta virt. eigenvalues --   -0.43355  -0.35416  -0.25739  -0.20428  -0.15659
  Beta virt. eigenvalues --   -0.15271  -0.13377  -0.12558  -0.09878  -0.09792
  Beta virt. eigenvalues --   -0.06266  -0.05723  -0.05141  -0.04564  -0.03150

 Mulliken charges and spin densities:
               1          2
     1  C    0.252394   0.738088
     2  C   -0.037362  -0.030655
     3  C    0.168613   0.298102
     4  C   -0.111900   0.022399
     5  H    0.403737  -0.021667
     6  H    0.324518  -0.006267
 Sum of Mulliken charges =   1.00000   1.00000

 Dipole moment (field-independent basis, Debye):
    X=             -3.2270    Y=              0.6390    Z=              0.0000  Tot=              3.2897
 Quadrupole moment (field-independent basis, Debye-Ang):
   XX=            -18.4008   YY=             -6.4445   ZZ=            -20.6822
   XY=             -2.7661   XZ=              0.0000   YZ=              0.0000

  Exact polarizability:  41.522 -14.561  53.756   0.000  -0.000  23.040
 Approx polarizability:  91.118 -52.788 122.268  -0.000   0.000  33.589

                      1                      2                      3
                     A'                     A"                     A"
 Frequencies --    287.3119               394.6631               530.1404
 Red. masses --      3.1924                 3.0705                 1.5383
 Frc consts  --      0.1553                 0.2818                 0.2547
 IR Inten    --     11.3710                11.3007                19.0449

                      4                      5                      6
                     A'                     A'                     A"
 Frequencies --    588.4255               709.0013               790.0157
 Red. masses --      3.2102                 1.9202                 1.3499
 Frc consts  --      0.6549                 0.5687                 0.4964
 IR Inten    --     58.0400                24.5961                32.5531

                      7                      8                      9
                     A'                     A'                     A'
 Frequencies --    843.4591               965.1023              1502.6302
 Red. masses --      6.3539                 1.2572                 6.7291
 Frc consts  --      2.6633                 0.6899                 8.9518
 IR Inten    --      5.0577                15.7997                 4.9905

                     10                     11                     12
                     A'                     A'                     A'
 Frequencies --   1691.7003              3237.3675              3318.5751
 Red. masses --      6.7625                 1.1195                 1.1238
 Frc consts  --     11.4026                 6.9128                 7.2918
 IR Inten    --     51.8495               130.0991               260.4089

 - Thermochemistry -
 -------------------
 Temperature   298.150 Kelvin.  Pressure   1.00000 Atm.
 Atom     1 has atomic number  6 and mass  12.00000

 Molecular mass:    50.01565 amu.
 Principal axes and moments of inertia in atomic units:
                           1         2         3
     Eigenvalues --    48.04557 225.88571 273.93128
           X           -0.44353   0.89626   0.00000
           Y            0.89626   0.44353   0.00000
           Z            0.00000   0.00000   1.00000
 This molecule is an asymmetric top.
 Rotational symmetry number  1.
 Rotational temperatures (Kelvin)      1.80274     0.38344     0.31619
 Rotational constants (GHZ):          37.56312     7.98962     6.58830
 Zero-point vibrational energy      88872.9 (Joules/Mol)
                                   21.24114 (Kcal/Mol)
 Warning -- explicit consideration of   4 degrees of freedom as
           vibrations may cause significant error
 Vibrational temperatures:    413.38   567.83   762.75   846.61  1020.09
          (Kelvin)           1136.66  1213.55  1388.57  2161.95  2433.98
                             4657.84  4774.68

 Zero-point correction=                           0.033850 (Hartree/Particle)
 Thermal correction to Energy=                    0.038109
 Thermal correction to Enthalpy=                  0.039053
 Thermal correction to Gibbs Free Energy=         0.007703
 Sum of electronic and zero-point Energies=           -153.066369
 Sum of electronic and thermal Energies=              -153.062110
 Sum of electronic and thermal Enthalpies=            -153.061166
 Sum of electronic and thermal Free Energies=         -153.092516

                     E (Thermal)             CV                S
                      KCal/Mol        Cal/Mol-Kelvin    Cal/Mol-Kelvin
 Total                   23.914             13.971             65.982
 Electronic               0.000              0.000              1.377
 Translational            0.889              2.981             37.653
 Rotational               0.889              2.981             22.613
 Vibrational             22.136              8.009              4.339
 Vibration     1          0.684              1.697              1.490
 Vibration     2          0.762              1.482              0.982
 Vibration     3          0.885              1.183              0.587
 Vibration     4          0.946              1.056              0.470

 Normal termination of Gaussian 09 at Tue Jul 19 03:31:29 2016.
