 Gaussian 09, Revision E.01,
 Gaussian 09:  EM64L-G09RevE.01 30-Nov-2015

 ---------------------------------------------
 #p b3lyp/6-311++G(3df,2p) freq symmetry=Loose
 ---------------------------------------------

 ---------
 b3lyp opt
 ---------
 Symbolic Z-matrix:
 Charge =  3 Multiplicity = 2

                         Standard orientation:
 ---------------------------------------------------------------------
 Center     Atomic      Atomic             Coordinates (Angstroms)
 Number     Number       Type             X           Y           Z
 ---------------------------------------------------------------------
      1          6           0       -1.179101    0.000000    0.000000
      2          6           0       -0.000000    0.818610    0.000000
      3          6           0        1.179101   -0.000000    0.000000
      4          6           0       -0.000000   -0.818610    0.000000
      5          1           0       -2.326719    0.000000    0.000000
      6          1           0        2.326719   -0.000000    0.000000
 ---------------------------------------------------------------------

 SCF Done:  E(UB3LYP) =  -151.570749653     A.U. after   11 cycles

 The electronic state is 2-AG.
 Alpha  occ. eigenvalues --  -11.22317 -11.22304 -11.17617 -11.17613  -1.87607
 Alpha  occ. eigenvalues --   -1.59190  -1.45048  -1.35598  -1.29873  -1.28718
 Alpha  occ. eigenvalues --   -1.27677  -1.20312
 Alpha virt. eigenvalues --   -0.98517  -0.95510  -0.92512  -0.78723  -0.67348
 Alpha virt. eigenvalues --   -0.63968  -0.57635  -0.56892  -0.55717  -0.53270
 Alpha virt. eigenvalues --   -0.47611  -0.45288  -0.44266  -0.43188  -0.41737

  Beta  occ. eigenvalues --  -11.20991 -11.20985 -11.17716 -11.17712  -1.86790
  Beta  occ. eigenvalues --   -1.59072  -1.40853  -1.35278  -1.29384  -1.28391
  Beta  occ. eigenvalues --   -1.26808
  Beta virt. eigenvalues --   -1.04084  -0.98879  -0.92669  -0.85228  -0.77684
  Beta virt. eigenvalues --   -0.66980  -0.63401  -0.56678  -0.55870  -0.55313
  Beta virt. eigenvalues --   -0.51690  -0.47466  -0.45048  -0.43967  -0.41768

 Mulliken charges and spin densities:
               1          2
     1  C   -0.007493  -0.005961
     2  C    1.036466   0.490699
     3  C   -0.007493  -0.005961
     4  C    1.036466   0.490699
     5  H    0.471027   0.015261
     6  H    0.471027   0.015261
 Sum of Mulliken charges =   3.00000   1.00000

 Dipole moment (field-independent basis, Debye):
    X=             -0.0000    Y=              0.0000    Z=             -0.0000  Tot=              0.0000
 Quadrupole moment (field-independent basis, Debye-Ang):
   XX=             12.3263   YY=             -9.7286   ZZ=            -15.4728
   XY=             -0.0000   XZ=             -0.0000   YZ=             -0.0000

  Exact polarizability:  34.445  -0.000  24.608   0.000  -0.000  15.505
 Approx polarizability:  59.115  -0.000  61.118  -0.000  -0.000  23.889

                      1                      2                      3
                     B1U                    B2U                    B1U
 Frequencies --    371.9435               654.2443               835.8258
 Red. masses --      2.5119                 4.3983                 1.5605
 Frc consts  --      0.2047                 1.1092                 0.6423
 IR Inten    --     20.3619                 6.4268                50.5730

                      4                      5                      6
                     AG                     B1G                    B2G
 Frequencies --    850.2910               854.4586               926.2432
 Red. masses --      7.7386                 1.7661                 1.3017
 Frc consts  --      3.2965                 0.7597                 0.6580
 IR Inten    --      0.0000                 0.0000                 0.0000

                      7                      8                      9
                     B2U                    B1G                    AG
 Frequencies --    969.1164              1096.4090              1228.1387
 Red. masses --      1.2322                 2.8983                 6.6313
 Frc consts  --      0.6818                 2.0527                 5.8931
 IR Inten    --    127.3561                 0.0000                 0.0000

                     10                     11                     12
                     B3U                    B3U                    AG
 Frequencies --   1265.1177              2600.0389              2644.2185
 Red. masses --      6.4507                 1.1313                 1.1378
 Frc consts  --      6.0830                 4.5061                 4.6872
 IR Inten    --    465.0373              1317.9762                 0.0000

 - Thermochemistry -
 -------------------
 Temperature   298.150 Kelvin.  Pressure   1.00000 Atm.
 Atom     1 has atomic number  6 and mass  12.00000

 Molecular mass:    50.01565 amu.
 Principal axes and moments of inertia in atomic units:
                           1         2         3
     Eigenvalues --    57.43314 158.12187 215.55501
           X            1.00000   0.00000   0.00000
           Y           -0.00000   1.00000   0.00000
           Z           -0.00000   0.00000   1.00000
 This molecule is an asymmetric top.
 Rotational symmetry number  4.
 Rotational temperatures (Kelvin)      1.50808     0.54777     0.40182
 Rotational constants (GHZ):          31.42334    11.41361     8.37253
 Zero-point vibrational energy      85509.3 (Joules/Mol)
                                   20.43722 (Kcal/Mol)
 Warning -- explicit consideration of   1 degrees of freedom as
           vibrations may cause significant error
 Vibrational temperatures:    535.14   941.31  1202.57  1223.38  1229.37
          (Kelvin)           1332.66  1394.34  1577.49  1767.02  1820.22
                             3740.87  3804.44

 Zero-point correction=                           0.032569 (Hartree/Particle)
 Thermal correction to Energy=                    0.036213
 Thermal correction to Enthalpy=                  0.037157
 Thermal correction to Gibbs Free Energy=         0.008273
 Sum of electronic and zero-point Energies=           -151.538181
 Sum of electronic and thermal Energies=              -151.534537
 Sum of electronic and thermal Enthalpies=            -151.533593
 Sum of electronic and thermal Free Energies=         -151.562476

                     E (Thermal)             CV                S
                      KCal/Mol        Cal/Mol-Kelvin    Cal/Mol-Kelvin
 Total                   22.724             11.657             60.791
 Electronic               0.000              0.000              1.377
 Translational            0.889              2.981             37.653
 Rotational               0.889              2.981             19.443
 Vibrational             20.946              5.695              2.318
 Vibration     1          0.744              1.530              1.072

 Optimization completed.
    -- Stationary point found.
 Normal termination of Gaussian 09 at Tue Jul 19 04:46:35 2016.
