 Gaussian 09, Revision E.01,
 Gaussian 09:  EM64L-G09RevE.01 30-Nov-2015

 ---------------------------------------------
 #p b3lyp/6-311++G(3df,2p) freq symmetry=Loose
 ---------------------------------------------

 ---------
 b3lyp opt
 ---------
 Symbolic Z-matrix:
 Charge =  1 Multiplicity = 4

                         Standard orientation:
 ---------------------------------------------------------------------
 Center     Atomic      Atomic             Coordinates (Angstroms)
 Number     Number       Type             X           Y           Z
 ---------------------------------------------------------------------
      1          6           0       -0.000000   -1.101120   -0.130188
      2          6           0        0.848630    0.000000    0.142473
      3          6           0        0.000000    1.101120   -0.130188
      4          6           0       -0.848630   -0.000000    0.142473
      5          1           0       -0.000000   -2.177101   -0.073708
      6          1           0        0.000000    2.177101   -0.073708
 ---------------------------------------------------------------------

 SCF Done:  E(UB3LYP) =  -153.036160717     A.U. after   13 cycles

 The electronic state is 4-A2.
 Alpha  occ. eigenvalues --  -10.56366 -10.56363 -10.50266 -10.50260  -1.25698
 Alpha  occ. eigenvalues --   -0.98297  -0.87714  -0.81702  -0.72141  -0.71951
 Alpha  occ. eigenvalues --   -0.70113  -0.63900  -0.50293  -0.49186
 Alpha virt. eigenvalues --   -0.32129  -0.26529  -0.15186  -0.14030  -0.13375
 Alpha virt. eigenvalues --   -0.12301  -0.10988  -0.08737  -0.06384  -0.06355
 Alpha virt. eigenvalues --   -0.05670  -0.05035  -0.03639  -0.02572  -0.02433

  Beta  occ. eigenvalues --  -10.54546 -10.54543 -10.49236 -10.49232  -1.22709
  Beta  occ. eigenvalues --   -0.95248  -0.81313  -0.79962  -0.70725  -0.67784
  Beta  occ. eigenvalues --   -0.65058
  Beta virt. eigenvalues --   -0.46476  -0.36383  -0.34064  -0.26200  -0.19944
  Beta virt. eigenvalues --   -0.14527  -0.13288  -0.12994  -0.11121  -0.09606
  Beta virt. eigenvalues --   -0.08584  -0.05811  -0.05707  -0.04826  -0.04240

 Mulliken charges and spin densities:
               1          2
     1  C   -0.195429   0.537333
     2  C    0.416641   0.959885
     3  C   -0.195429   0.537333
     4  C    0.416641   0.959885
     5  H    0.278789   0.002782
     6  H    0.278789   0.002782
 Sum of Mulliken charges =   1.00000   3.00000

 Dipole moment (field-independent basis, Debye):
    X=              0.0000    Y=              0.0000    Z=             -0.1217  Tot=              0.1217
 Quadrupole moment (field-independent basis, Debye-Ang):
   XX=            -17.8604   YY=             -9.3050   ZZ=            -21.3740
   XY=              0.0000   XZ=              0.0000   YZ=              0.0000

  Exact polarizability:  31.438   0.000  43.589  -0.000  -0.000  23.025
 Approx polarizability:  61.678   0.000  73.642  -0.000   0.000  33.443

                      1                      2                      3
                     A1                     B2                     A1
 Frequencies --    563.2056               610.4091               691.0950
 Red. masses --      2.0430                 1.3306                 2.0640
 Frc consts  --      0.3818                 0.2921                 0.5808
 IR Inten    --     19.7903                34.7238                47.5332

                      4                      5                      6
                     B1                     A1                     A2
 Frequencies --    862.9664               891.9241               929.5982
 Red. masses --      1.6857                 5.4868                 9.9848
 Frc consts  --      0.7396                 2.5717                 5.0837
 IR Inten    --     17.1737                12.5621                 0.0000

                      7                      8                      9
                     A2                     B1                     B2
 Frequencies --   1016.8309              1172.0102              1201.1252
 Red. masses --      1.2192                 2.2465                 6.8190
 Frc consts  --      0.7427                 1.8181                 5.7962
 IR Inten    --      0.0000                51.7013                 4.3527

                     10                     11                     12
                     A1                     B2                     A1
 Frequencies --   1318.9339              3257.1184              3270.2980
 Red. masses --      7.1096                 1.0951                 1.1099
 Frc consts  --      7.2869                 6.8448                 6.9938
 IR Inten    --      0.2193               275.7713                 0.2592

 - Thermochemistry -
 -------------------
 Temperature   298.150 Kelvin.  Pressure   1.00000 Atm.
 Atom     1 has atomic number  6 and mass  12.00000

 Molecular mass:    50.01565 amu.
 Principal axes and moments of inertia in atomic units:
                           1         2         3
     Eigenvalues --    64.95274 141.26184 199.75482
           X            0.00000   1.00000   0.00000
           Y            1.00000  -0.00000   0.00000
           Z           -0.00000  -0.00000   1.00000
 This molecule is an asymmetric top.
 Rotational symmetry number  2.
 Rotational temperatures (Kelvin)      1.33349     0.61314     0.43360
 Rotational constants (GHZ):          27.78545    12.77586     9.03478
 Zero-point vibrational energy      94418.3 (Joules/Mol)
                                   22.56653 (Kcal/Mol)
 Warning -- explicit consideration of   2 degrees of freedom as
           vibrations may cause significant error
 Vibrational temperatures:    810.33   878.24   994.33  1241.61  1283.28
          (Kelvin)           1337.48  1462.99  1686.26  1728.15  1897.65
                             4686.26  4705.22

 Zero-point correction=                           0.035962 (Hartree/Particle)
 Thermal correction to Energy=                    0.039493
 Thermal correction to Enthalpy=                  0.040437
 Thermal correction to Gibbs Free Energy=         0.010476
 Sum of electronic and zero-point Energies=           -153.000199
 Sum of electronic and thermal Energies=              -152.996668
 Sum of electronic and thermal Enthalpies=            -152.995724
 Sum of electronic and thermal Free Energies=         -153.025685

                     E (Thermal)             CV                S
                      KCal/Mol        Cal/Mol-Kelvin    Cal/Mol-Kelvin
 Total                   24.782             11.380             63.059
 Electronic               0.000              0.000              2.755
 Translational            0.889              2.981             37.653
 Rotational               0.889              2.981             20.755
 Vibrational             23.005              5.418              1.897
 Vibration     1          0.919              1.111              0.517
 Vibration     2          0.969              1.010              0.432

 Optimization completed.
    -- Stationary point found.
 Normal termination of Gaussian 09 at Tue Jul 19 04:09:28 2016.
