 Gaussian 09, Revision E.01,
 Gaussian 09:  EM64L-G09RevE.01 30-Nov-2015

 ------------------------------------------------------
 #p b3lyp/6-311++G(3df,2p) freq IOp(2/17=3) IOp(2/18=3)
 ------------------------------------------------------

 ---------
 b3lyp opt
 ---------
 Symbolic Z-matrix:
 Charge =  2 Multiplicity = 3

                         Standard orientation:
 ---------------------------------------------------------------------
 Center     Atomic      Atomic             Coordinates (Angstroms)
 Number     Number       Type             X           Y           Z
 ---------------------------------------------------------------------
      1          6           0       -0.458882    1.738416    0.000000
      2          6           0        0.000000    0.557609    0.000000
      3          6           0        0.495880   -0.683850    0.000000
      4          6           0       -0.163675   -1.918681    0.000000
      5          1           0       -0.841565    2.765553    0.000000
      6          1           0        1.601632   -0.926518    0.000000
 ---------------------------------------------------------------------

 SCF Done:  E(UB3LYP) =  -152.452210454     A.U. after   22 cycles

 The electronic state is 3-A".
 Alpha  occ. eigenvalues --  -10.87590 -10.81187 -10.78981 -10.77761  -1.38894
 Alpha  occ. eigenvalues --   -1.32144  -1.17211  -1.04731  -1.02032  -0.90907
 Alpha  occ. eigenvalues --   -0.88674  -0.84178  -0.81530
 Alpha virt. eigenvalues --   -0.64407  -0.60624  -0.53529  -0.43272  -0.35964
 Alpha virt. eigenvalues --   -0.33927  -0.31413  -0.27047  -0.26654  -0.26065
 Alpha virt. eigenvalues --   -0.24334  -0.22548  -0.20980  -0.20114  -0.19740

  Beta  occ. eigenvalues --  -10.86212 -10.79768 -10.78645 -10.77484  -1.36629
  Beta  occ. eigenvalues --   -1.27630  -1.15149  -1.03223  -1.00747  -0.87140
  Beta  occ. eigenvalues --   -0.81821
  Beta virt. eigenvalues --   -0.73040  -0.70197  -0.62550  -0.54783  -0.49174
  Beta virt. eigenvalues --   -0.39975  -0.34746  -0.32823  -0.30910  -0.26446
  Beta virt. eigenvalues --   -0.26246  -0.25437  -0.23776  -0.21997  -0.20544

 Mulliken charges and spin densities:
               1          2
     1  C    0.533464   0.739970
     2  C    0.279792   0.431247
     3  C    0.133533   0.044284
     4  C    0.303328   0.773819
     5  H    0.462796  -0.022859
     6  H    0.287086   0.033539
 Sum of Mulliken charges =   2.00000   2.00000

 Dipole moment (field-independent basis, Debye):
    X=              0.2615    Y=              1.3509    Z=              0.0000  Tot=              1.3760
 Quadrupole moment (field-independent basis, Debye-Ang):
   XX=            -11.9977   YY=             11.1641   ZZ=            -18.9593
   XY=             -7.6202   XZ=              0.0000   YZ=              0.0000

  Exact polarizability:  27.850  -4.182 104.466   0.000  -0.000  20.975
 Approx polarizability:  45.661  -7.933 277.136  -0.000  -0.000  28.183

                      1                      2                      3
                     A'                     A"                     A'
 Frequencies --    203.7746               313.8573               457.4233
 Red. masses --      5.3479                 2.5731                 4.7867
 Frc consts  --      0.1308                 0.1493                 0.5901
 IR Inten    --      9.0183                33.3536                 7.1381

                      4                      5                      6
                     A"                     A'                     A"
 Frequencies --    634.2191               716.9342               730.9469
 Red. masses --      1.9550                 1.3306                 1.3484
 Frc consts  --      0.4633                 0.4029                 0.4244
 IR Inten    --      7.0854                17.0785                19.6394

                      7                      8                      9
                     A'                     A'                     A'
 Frequencies --    837.0197              1002.3637              1320.2787
 Red. masses --      2.4028                 1.8118                 6.3460
 Frc consts  --      0.9918                 1.0725                 6.5176
 IR Inten    --    112.8039                10.4159               188.5354

                     10                     11                     12
                     A'                     A'                     A'
 Frequencies --   1920.2790              2708.2585              3131.3276
 Red. masses --      6.9905                 1.0821                 1.1493
 Frc consts  --     15.1875                 4.6761                 6.6394
 IR Inten    --    780.2480               476.7803               336.9031

 - Thermochemistry -
 -------------------
 Temperature   298.150 Kelvin.  Pressure   1.00000 Atm.
 Atom     1 has atomic number  6 and mass  12.00000

 Molecular mass:    50.01565 amu.
 Principal axes and moments of inertia in atomic units:
                           1         2         3
     Eigenvalues --    25.06090 358.39145 383.45235
           X           -0.14888   0.98885   0.00000
           Y            0.98885   0.14888   0.00000
           Z           -0.00000   0.00000   1.00000
 This molecule is an asymmetric top.
 Rotational symmetry number  1.
 Rotational temperatures (Kelvin)      3.45613     0.24167     0.22588
 Rotational constants (GHZ):          72.01423     5.03567     4.70656
 Zero-point vibrational energy      83599.1 (Joules/Mol)
                                   19.98067 (Kcal/Mol)
 Warning -- explicit consideration of   3 degrees of freedom as
           vibrations may cause significant error
 Vibrational temperatures:    293.19   451.57   658.13   912.50  1031.51
          (Kelvin)           1051.67  1204.28  1442.18  1899.58  2762.85
                             3896.58  4505.28

 Zero-point correction=                           0.031841 (Hartree/Particle)
 Thermal correction to Energy=                    0.036354
 Thermal correction to Enthalpy=                  0.037298
 Thermal correction to Gibbs Free Energy=         0.004961
 Sum of electronic and zero-point Energies=           -152.420369
 Sum of electronic and thermal Energies=              -152.415856
 Sum of electronic and thermal Enthalpies=            -152.414912
 Sum of electronic and thermal Free Energies=         -152.447250

                     E (Thermal)             CV                S
                      KCal/Mol        Cal/Mol-Kelvin    Cal/Mol-Kelvin
 Total                   22.813             14.438             68.061
 Electronic               0.000              0.000              2.183
 Translational            0.889              2.981             37.653
 Rotational               0.889              2.981             22.759
 Vibrational             21.035              8.476              5.466
 Vibration     1          0.639              1.835              2.099
 Vibration     2          0.702              1.647              1.342
 Vibration     3          0.816              1.344              0.774

 Optimization completed.
    -- Stationary point found.
 Normal termination of Gaussian 09 at Thu Jan 31 04:22:45 2019.
