 Gaussian 09, Revision E.01,
 Gaussian 09:  EM64L-G09RevE.01 30-Nov-2015

 ------------------------------------------------------
 #p b3lyp/6-311++G(3df,2p) freq IOp(2/17=3) IOp(2/18=3)
 ------------------------------------------------------

 ---------
 b3lyp opt
 ---------
 Symbolic Z-matrix:
 Charge =  3 Multiplicity = 2

                         Standard orientation:
 ---------------------------------------------------------------------
 Center     Atomic      Atomic             Coordinates (Angstroms)
 Number     Number       Type             X           Y           Z
 ---------------------------------------------------------------------
      1          6           0       -0.000000   -0.000000    1.971242
      2          6           0        0.000000   -0.000000    0.638351
      3          6           0        0.000000   -0.000000   -0.638351
      4          6           0        0.000000   -0.000000   -1.971242
      5          1           0       -0.000000   -0.000000    3.114293
      6          1           0        0.000000   -0.000000   -3.114293
 ---------------------------------------------------------------------

 SCF Done:  E(UB3LYP) =  -151.654321111     A.U. after   11 cycles

 Unable to determine electronic state:  an orbital has unidentified symmetry.
 Alpha  occ. eigenvalues --  -11.14483 -11.14480 -11.07015 -11.06889  -1.63508
 Alpha  occ. eigenvalues --   -1.57939  -1.47188  -1.29474  -1.28420  -1.16579
 Alpha  occ. eigenvalues --   -1.14515  -1.07865
 Alpha virt. eigenvalues --   -0.99941  -0.87514  -0.84846  -0.66545  -0.65303
 Alpha virt. eigenvalues --   -0.63608  -0.58643  -0.53138  -0.49260  -0.43725
 Alpha virt. eigenvalues --   -0.42935  -0.42876  -0.40608  -0.38548  -0.38498

  Beta  occ. eigenvalues --  -11.13595 -11.13591 -11.07005 -11.06873  -1.62465
  Beta  occ. eigenvalues --   -1.55370  -1.46145  -1.28532  -1.27641  -1.14361
  Beta  occ. eigenvalues --   -1.13257
  Beta virt. eigenvalues --   -0.98852  -0.96428  -0.83952  -0.81801  -0.64998
  Beta virt. eigenvalues --   -0.63621  -0.62349  -0.57578  -0.53037  -0.48886
  Beta virt. eigenvalues --   -0.43481  -0.42916  -0.42473  -0.40394  -0.38186

 Mulliken charges and spin densities:
               1          2
     1  C    0.553317   0.355775
     2  C    0.416021   0.158388
     3  C    0.416021   0.158388
     4  C    0.553317   0.355775
     5  H    0.530663  -0.014163
     6  H    0.530663  -0.014163
 Sum of Mulliken charges =   3.00000   1.00000

 Dipole moment (field-independent basis, Debye):
    X=              0.0000    Y=             -0.0000    Z=              0.0000  Tot=              0.0000
 Quadrupole moment (field-independent basis, Debye-Ang):
   XX=            -16.8813   YY=            -15.4722   ZZ=             50.7302
   XY=             -0.0000   XZ=             -0.0000   YZ=              0.0000

  Exact polarizability:  16.070   0.000  15.975  -0.000   0.000  78.292
 Approx polarizability:  21.487  -0.000  22.565  -0.000   0.000 229.278

                      1                      2                      3
                     ?A                     ?A                     ?B
 Frequencies --    193.7860               203.1790               413.8445
 Red. masses --      3.1235                 3.4829                 3.8166
 Frc consts  --      0.0691                 0.0847                 0.3851
 IR Inten    --     55.0999                56.7103                 0.0000

                      4                      5                      6
                     ?B                     ?B                     ?A
 Frequencies --    463.7149               663.7591               664.2980
 Red. masses --      4.9691                 1.3710                 1.3301
 Frc consts  --      0.6295                 0.3559                 0.3458
 IR Inten    --      0.0000                 0.0000                60.9087

                      7                      8                      9
                     ?A                     ?B                     SGG
 Frequencies --    870.9057               874.1991               910.5775
 Red. masses --      1.3912                 1.4956                 5.9635
 Frc consts  --      0.6217                 0.6734                 2.9133
 IR Inten    --     21.2891                 0.0000                 0.0000

                     10                     11                     12
                     SGU                    SGG                    SGU
 Frequencies --   1375.2043              2072.4105              2680.6290
 Red. masses --      5.7288                 6.8498                 1.1569
 Frc consts  --      6.3833                17.3333                 4.8980
 IR Inten    --   1276.2901                 0.0000              1637.4653

                     13
                     SGG
 Frequencies --   2709.2190
 Red. masses --      1.1831
 Frc consts  --      5.1164
 IR Inten    --      0.0000

 - Thermochemistry -
 -------------------
 Temperature   298.150 Kelvin.  Pressure   1.00000 Atm.
 Atom     1 has atomic number  6 and mass  12.00000

 Molecular mass:    50.01565 amu.
 Principal axes and moments of inertia in atomic units:
                           1         2         3
     Eigenvalues --     0.00000 437.77083 437.77083
           X           -0.00000   1.00000   0.00005
           Y            0.00000  -0.00005   1.00000
           Z            1.00000   0.00000   0.00000
 This molecule is a prolate symmetric top.
 Rotational symmetry number  2.
 Warning -- assumption of classical behavior for rotation
           may cause significant error
 Rotational temperature (Kelvin)      0.19785
 Rotational constant (GHZ):           4.122571
 Zero-point vibrational energy      84311.2 (Joules/Mol)
                                   20.15085 (Kcal/Mol)
 Warning -- explicit consideration of   4 degrees of freedom as
           vibrations may cause significant error
 Vibrational temperatures:    278.81   292.33   595.43   667.18   955.00
          (Kelvin)            955.78  1253.04  1257.78  1310.12  1978.61
                             2981.73  3856.82  3897.96

 Zero-point correction=                           0.032112 (Hartree/Particle)
 Thermal correction to Energy=                    0.036584
 Thermal correction to Enthalpy=                  0.037528
 Thermal correction to Gibbs Free Energy=         0.008395
 Sum of electronic and zero-point Energies=           -151.622209
 Sum of electronic and thermal Energies=              -151.617737
 Sum of electronic and thermal Enthalpies=            -151.616793
 Sum of electronic and thermal Free Energies=         -151.645926

                     E (Thermal)             CV                S
                      KCal/Mol        Cal/Mol-Kelvin    Cal/Mol-Kelvin
 Total                   22.957             14.911             61.316
 Electronic               0.000              0.000              1.377
 Translational            0.889              2.981             37.653
 Rotational               0.592              1.987             15.152
 Vibrational             21.476              9.943              7.134
 Vibration     1          0.635              1.849              2.191
 Vibration     2          0.639              1.835              2.104
 Vibration     3          0.777              1.440              0.913
 Vibration     4          0.821              1.331              0.755

 Optimization completed.
    -- Stationary point found.
 Normal termination of Gaussian 09 at Thu Jan 31 04:20:23 2019.
