 Gaussian 09, Revision E.01,
 Gaussian 09:  EM64L-G09RevE.01 30-Nov-2015

 ---------------------------------------------
 #p b3lyp/6-311++G(3df,2p) freq symmetry=Loose
 ---------------------------------------------

 ---------
 b3lyp opt
 ---------
 Symbolic Z-matrix:
 Charge =  1 Multiplicity = 4

                         Standard orientation:
 ---------------------------------------------------------------------
 Center     Atomic      Atomic             Coordinates (Angstroms)
 Number     Number       Type             X           Y           Z
 ---------------------------------------------------------------------
      1          6           0        0.000000    1.946089   -0.082805
      2          6           0        0.000000    0.623511   -0.009184
      3          6           0       -0.000000   -0.623511   -0.009184
      4          6           0       -0.000000   -1.946089   -0.082805
      5          1           0       -0.000000    2.823101    0.551934
      6          1           0       -0.000000   -2.823101    0.551934
 ---------------------------------------------------------------------

 SCF Done:  E(UB3LYP) =  -153.078638377     A.U. after   13 cycles

 The electronic state is 4-B1.
 Alpha  occ. eigenvalues --  -10.51869 -10.51864 -10.48633 -10.48470  -1.09666
 Alpha  occ. eigenvalues --   -1.03617  -0.93683  -0.78223  -0.76480  -0.65060
 Alpha  occ. eigenvalues --   -0.64008  -0.57911  -0.54543  -0.45109
 Alpha virt. eigenvalues --   -0.34951  -0.19860  -0.15739  -0.13656  -0.13081
 Alpha virt. eigenvalues --   -0.11278  -0.09646  -0.09484  -0.06623  -0.05576
 Alpha virt. eigenvalues --   -0.05321  -0.03225  -0.03099  -0.02493  -0.01067

  Beta  occ. eigenvalues --  -10.49703 -10.49699 -10.48331 -10.48166  -1.06913
  Beta  occ. eigenvalues --   -0.98368  -0.90223  -0.75907  -0.74572  -0.60551
  Beta  occ. eigenvalues --   -0.58825
  Beta virt. eigenvalues --   -0.42663  -0.41742  -0.29852  -0.28529  -0.15450
  Beta virt. eigenvalues --   -0.15370  -0.12164  -0.11165  -0.10761  -0.09133
  Beta virt. eigenvalues --   -0.08760  -0.05941  -0.03677  -0.03648  -0.02231

 Mulliken charges and spin densities:
               1          2
     1  C   -0.177728   1.107355
     2  C    0.386263   0.384929
     3  C    0.386263   0.384929
     4  C   -0.177728   1.107355
     5  H    0.291465   0.007716
     6  H    0.291465   0.007716
 Sum of Mulliken charges =   1.00000   3.00000

 Dipole moment (field-independent basis, Debye):
    X=             -0.0000    Y=             -0.0000    Z=              1.0677  Tot=              1.0677
 Quadrupole moment (field-independent basis, Debye-Ang):
   XX=            -20.6053   YY=              3.4759   ZZ=            -20.9240
   XY=              0.0000   XZ=             -0.0000   YZ=              0.0000

  Exact polarizability:  23.349  -0.000  91.003   0.000   0.000  24.313
 Approx polarizability:  31.700   0.000 195.077  -0.000   0.000  32.319

                      1                      2                      3
                     B1                     A1                     B2
 Frequencies --    206.9407               220.4213               304.4178
 Red. masses --      6.3165                 3.3204                 2.9689
 Frc consts  --      0.1594                 0.0950                 0.1621
 IR Inten    --      3.6261                14.7525                 6.7761

                      4                      5                      6
                     A2                     B2                     A1
 Frequencies --    498.8643               621.5557               769.6039
 Red. masses --      4.9248                 1.7884                 1.3102
 Frc consts  --      0.7221                 0.4071                 0.4572
 IR Inten    --      0.0000                40.0099                10.2268

                      7                      8                      9
                     A2                     A1                     B2
 Frequencies --    776.1414               952.3622              1331.2255
 Red. masses --      1.3388                 7.5680                 5.5565
 Frc consts  --      0.4752                 4.0442                 5.8017
 IR Inten    --      0.0000                 1.1535               178.2107

                     10                     11                     12
                     A1                     B2                     A1
 Frequencies --   2211.2488              3211.5788              3213.7601
 Red. masses --     10.3862                 1.1005                 1.1049
 Frc consts  --     29.9214                 6.6879                 6.7238
 IR Inten    --      0.1578               129.9824                47.1234

 - Thermochemistry -
 -------------------
 Temperature   298.150 Kelvin.  Pressure   1.00000 Atm.
 Atom     1 has atomic number  6 and mass  12.00000

 Molecular mass:    50.01565 amu.
 Principal axes and moments of inertia in atomic units:
                           1         2         3
     Eigenvalues --     2.70198 415.27647 417.97845
           X           -0.00000   0.00000   1.00000
           Y            1.00000   0.00000  -0.00000
           Z           -0.00000   1.00000  -0.00000
 This molecule is an asymmetric top.
 Rotational symmetry number  2.
 Rotational temperatures (Kelvin)     32.05570     0.20857     0.20722
 Rotational constants (GHZ):         667.93314     4.34588     4.31779
 Zero-point vibrational energy      85641.4 (Joules/Mol)
                                   20.46878 (Kcal/Mol)
 Warning -- explicit consideration of   4 degrees of freedom as
           vibrations may cause significant error
 Vibrational temperatures:    297.74   317.14   437.99   717.75   894.28
          (Kelvin)           1107.29  1116.69  1370.24  1915.33  3181.49
                             4620.74  4623.88

 Zero-point correction=                           0.032619 (Hartree/Particle)
 Thermal correction to Energy=                    0.037547
 Thermal correction to Enthalpy=                  0.038491
 Thermal correction to Gibbs Free Energy=         0.006704
 Sum of electronic and zero-point Energies=           -153.046019
 Sum of electronic and thermal Energies=              -153.041092
 Sum of electronic and thermal Enthalpies=            -153.040148
 Sum of electronic and thermal Free Energies=         -153.071934

                     E (Thermal)             CV                S
                      KCal/Mol        Cal/Mol-Kelvin    Cal/Mol-Kelvin
 Total                   23.561             15.470             66.901
 Electronic               0.000              0.000              2.755
 Translational            0.889              2.981             37.653
 Rotational               0.889              2.981             19.400
 Vibrational             21.783              9.509              7.093
 Vibration     1          0.641              1.830              2.071
 Vibration     2          0.647              1.810              1.956
 Vibration     3          0.695              1.665              1.392
 Vibration     4          0.854              1.253              0.661

 Optimization completed.
    -- Stationary point found.
 Normal termination of Gaussian 09 at Tue Jul 19 03:44:53 2016.
