 Gaussian 09, Revision E.01,
 Gaussian 09:  EM64L-G09RevE.01 30-Nov-2015

 ---------------------------------------------
 #p b3lyp/6-311++G(3df,2p) freq symmetry=Loose
 ---------------------------------------------

 ---------
 b3lyp opt
 ---------
 Symbolic Z-matrix:
 Charge =  3 Multiplicity = 2

                         Standard orientation:
 ---------------------------------------------------------------------
 Center     Atomic      Atomic             Coordinates (Angstroms)
 Number     Number       Type             X           Y           Z
 ---------------------------------------------------------------------
      1          6           0        1.403990    1.286222    0.000000
      2          6           0        0.000000    0.736775    0.000000
      3          6           0       -0.383535   -0.629392   -0.000000
      4          6           0       -0.888110   -1.836935   -0.000000
      5          1           0       -0.397034    1.329993    0.945260
      6          1           0       -0.397034    1.329993   -0.945260
 ---------------------------------------------------------------------

 SCF Done:  E(UB3LYP) =  -151.420499533     A.U. after   28 cycles

 The electronic state is 2-A".
 Alpha  occ. eigenvalues --  -11.21915 -11.16974 -11.10772 -11.03970  -1.64185
 Alpha  occ. eigenvalues --   -1.57723  -1.41718  -1.25861  -1.23620  -1.18844
 Alpha  occ. eigenvalues --   -1.12371  -1.10309
 Alpha virt. eigenvalues --   -1.00676  -0.91648  -0.90803  -0.81316  -0.78322
 Alpha virt. eigenvalues --   -0.60242  -0.58074  -0.55494  -0.48801  -0.48202
 Alpha virt. eigenvalues --   -0.44952  -0.44686  -0.43729  -0.38983  -0.38466

  Beta  occ. eigenvalues --  -11.22669 -11.14166 -11.10148 -11.04095  -1.63485
  Beta  occ. eigenvalues --   -1.55753  -1.41592  -1.26206  -1.22369  -1.15949
  Beta  occ. eigenvalues --   -1.08920
  Beta virt. eigenvalues --   -0.97888  -0.94884  -0.92390  -0.90538  -0.78390
  Beta virt. eigenvalues --   -0.72376  -0.59988  -0.58427  -0.54644  -0.49043
  Beta virt. eigenvalues --   -0.47600  -0.45246  -0.44399  -0.43408  -0.38475

 Mulliken charges and spin densities:
               1          2
     1  C    0.746007  -0.363535
     2  C   -0.151886   0.108688
     3  C    0.820660   0.180066
     4  C    0.767134   1.086550
     5  H    0.409043  -0.005884
     6  H    0.409043  -0.005884
 Sum of Mulliken charges =   3.00000   1.00000

 Dipole moment (field-independent basis, Debye):
    X=              0.0289    Y=              0.7668    Z=              0.0000  Tot=              0.7673
 Quadrupole moment (field-independent basis, Debye-Ang):
   XX=             -3.5395   YY=             14.6412   ZZ=            -12.6830
   XY=             14.0793   XZ=             -0.0000   YZ=             -0.0000

  Exact polarizability:  46.861  30.086  67.805   0.000  -0.000  21.296
 Approx polarizability: 115.972  91.278 157.288  -0.000  -0.000  32.508

                      1                      2                      3
                     A'                     A"                     A'
 Frequencies --    237.4437               320.6339               421.2190
 Red. masses --      9.7647                 3.3447                 7.3666
 Frc consts  --      0.3244                 0.2026                 0.7701
 IR Inten    --      2.2479                23.4140                 2.7637

                      4                      5                      6
                     A"                     A'                     A"
 Frequencies --    585.1514               618.2405               852.5629
 Red. masses --      1.9093                 3.8107                 1.1840
 Frc consts  --      0.3852                 0.8582                 0.5070
 IR Inten    --     17.9898                41.7528                 0.8336

                      7                      8                      9
                     A'                     A'                     A'
 Frequencies --    864.1860               991.9899              1168.0511
 Red. masses --      2.5399                 1.2575                 1.7907
 Frc consts  --      1.1176                 0.7291                 1.4395
 IR Inten    --      6.4094               178.6099               257.9740

                     10                     11                     12
                     A'                     A"                     A'
 Frequencies --   1709.7560              2222.8894              2265.4262
 Red. masses --     11.0062                 1.0887                 1.0563
 Frc consts  --     18.9564                 3.1696                 3.1941
 IR Inten    --    707.5820               634.6835               692.7617

 - Thermochemistry -
 -------------------
 Temperature   298.150 Kelvin.  Pressure   1.00000 Atm.
 Atom     1 has atomic number  6 and mass  12.00000

 Molecular mass:    50.01565 amu.
 Principal axes and moments of inertia in atomic units:
                           1         2         3
     Eigenvalues --    33.61634 372.87770 393.63094
           X            0.53877   0.84245   0.00000
           Y            0.84245  -0.53877   0.00000
           Z           -0.00000  -0.00000   1.00000
 This molecule is an asymmetric top.
 Rotational symmetry number  1.
 Rotational temperatures (Kelvin)      2.57654     0.23228     0.22004
 Rotational constants (GHZ):          53.68643     4.84004     4.58486
 Zero-point vibrational energy      73316.4 (Joules/Mol)
                                   17.52305 (Kcal/Mol)
 Warning -- explicit consideration of   5 degrees of freedom as
           vibrations may cause significant error
 Vibrational temperatures:    341.63   461.32   606.04   841.90   889.51
          (Kelvin)           1226.65  1243.37  1427.25  1680.56  2459.95
                             3198.24  3259.44

 Zero-point correction=                           0.027925 (Hartree/Particle)
 Thermal correction to Energy=                    0.032450
 Thermal correction to Enthalpy=                  0.033394
 Thermal correction to Gibbs Free Energy=         0.001305
 Sum of electronic and zero-point Energies=           -151.392575
 Sum of electronic and thermal Energies=              -151.388049
 Sum of electronic and thermal Enthalpies=            -151.387105
 Sum of electronic and thermal Free Energies=         -151.419194

                     E (Thermal)             CV                S
                      KCal/Mol        Cal/Mol-Kelvin    Cal/Mol-Kelvin
 Total                   20.363             14.636             67.537
 Electronic               0.000              0.000              1.377
 Translational            0.889              2.981             37.653
 Rotational               0.889              2.981             23.116
 Vibrational             18.585              8.674              5.391
 Vibration     1          0.656              1.783              1.822
 Vibration     2          0.706              1.634              1.307
 Vibration     3          0.784              1.424              0.888
 Vibration     4          0.942              1.063              0.476
 Vibration     5          0.978              0.993              0.419

 Optimization completed.
    -- Stationary point found.
 Normal termination of Gaussian 09 at Tue Jul 19 05:00:08 2016.
