 Gaussian 09, Revision E.01,
 Gaussian 09:  EM64L-G09RevE.01 30-Nov-2015

 ---------------------------------------------
 #p b3lyp/6-311++G(3df,2p) freq symmetry=Loose
 ---------------------------------------------

 ---------
 b3lyp opt
 ---------
 Symbolic Z-matrix:
 Charge =  0 Multiplicity = 1

                         Standard orientation:
 ---------------------------------------------------------------------
 Center     Atomic      Atomic             Coordinates (Angstroms)
 Number     Number       Type             X           Y           Z
 ---------------------------------------------------------------------
      1          6           0       -1.299639    0.515344   -0.000135
      2          6           0        0.000666    0.001358    0.000457
      3          6           0        1.299047   -0.516092   -0.000130
      4          6           0        1.373258    0.800542   -0.000120
      5          6           0       -1.373017   -0.800925   -0.000119
      6          1           0        1.701849   -1.513802    0.000172
      7          1           0       -1.703745    1.512442    0.000117
 ---------------------------------------------------------------------

 SCF Done:  E(RB3LYP) =  -191.502235940     A.U. after   12 cycles

 The electronic state is 1-A.
 Alpha  occ. eigenvalues --  -10.29205 -10.24006 -10.23989 -10.23317 -10.23292
 Alpha  occ. eigenvalues --   -0.96389  -0.88726  -0.62092  -0.58950  -0.53763
 Alpha  occ. eigenvalues --   -0.49015  -0.44063  -0.35231  -0.32707  -0.32415
 Alpha  occ. eigenvalues --   -0.26499
 Alpha virt. eigenvalues --   -0.04636  -0.04572  -0.04456  -0.00241   0.00086
 Alpha virt. eigenvalues --    0.00344   0.03789   0.04779   0.05057   0.05620
 Alpha virt. eigenvalues --    0.07728   0.08064   0.08675   0.10493   0.10974

 Mulliken charges:
               1
     1  C    0.262430
     2  C    0.236769
     3  C    0.271623
     4  C   -0.638694
     5  C   -0.635959
     6  H    0.252015
     7  H    0.251817
 Sum of Mulliken charges =  -0.00000

 Dipole moment (field-independent basis, Debye):
    X=             -0.0073    Y=             -0.0037    Z=              0.0009  Tot=              0.0082
 Quadrupole moment (field-independent basis, Debye-Ang):
   XX=            -29.8162   YY=            -31.0760   ZZ=            -29.3812
   XY=            -10.0670   XZ=              0.0001   YZ=             -0.0001

  Exact polarizability:  78.389   5.251  52.346   0.000  -0.000  34.901
 Approx polarizability: 144.081  14.384  85.772   0.000   0.000  53.990

                      1                      2                      3
                      A                      A                      A
 Frequencies --    200.2044               229.2092               434.4714
 Red. masses --      5.0605                 6.4361                 7.3605
 Frc consts  --      0.1195                 0.1992                 0.8186
 IR Inten    --     50.5832                24.9175                45.4293

                      4                      5                      6
                      A                      A                      A
 Frequencies --    451.5000               542.1345               766.1083
 Red. masses --      4.1740                 9.7444                 1.3285
 Frc consts  --      0.5013                 1.6874                 0.4594
 IR Inten    --      2.1003                 0.0411                 0.0050

                      7                      8                      9
                      A                      A                      A
 Frequencies --    834.5078               838.5106               980.8632
 Red. masses --      1.3616                 2.7532                 1.4661
 Frc consts  --      0.5587                 1.1405                 0.8311
 IR Inten    --     56.0031                 0.0006                 9.5224

                     10                     11                     12
                      A                      A                      A
 Frequencies --   1073.2496              1157.7717              1622.8398
 Red. masses --      1.5569                 5.0509                 6.7314
 Frc consts  --      1.0566                 3.9890                10.4450
 IR Inten    --      0.0011                25.1781                 0.0001

                     13                     14                     15
                      A                      A                      A
 Frequencies --   1709.8743              3264.3928              3267.2980
 Red. masses --      6.6936                 1.1146                 1.1163
 Frc consts  --     11.5303                 6.9980                 7.0211
 IR Inten    --      5.2463                 0.3045                22.0983

 - Thermochemistry -
 -------------------
 Temperature   298.150 Kelvin.  Pressure   1.00000 Atm.
 Atom     1 has atomic number  6 and mass  12.00000

 Molecular mass:    62.01565 amu.
 Principal axes and moments of inertia in atomic units:
                           1         2         3
     Eigenvalues --    92.80470 328.58760 421.39228
           X            0.99698  -0.07767  -0.00000
           Y            0.07767   0.99698   0.00000
           Z            0.00000  -0.00000   1.00000
 This molecule is an asymmetric top.
 Rotational symmetry number  1.
 Rotational temperatures (Kelvin)      0.93329     0.26359     0.20554
 Rotational constants (GHZ):          19.44666     5.49242     4.28281
 Zero-point vibrational energy     103913.2 (Joules/Mol)
                                   24.83586 (Kcal/Mol)
 Warning -- explicit consideration of   5 degrees of freedom as
           vibrations may cause significant error
 Vibrational temperatures:    288.05   329.78   625.11   649.61   780.01
          (Kelvin)           1102.26  1200.67  1206.43  1411.24  1544.16
                             1665.77  2334.90  2460.12  4696.73  4700.91

 Zero-point correction=                           0.039578 (Hartree/Particle)
 Thermal correction to Energy=                    0.044540
 Thermal correction to Enthalpy=                  0.045485
 Thermal correction to Gibbs Free Energy=         0.012510
 Sum of electronic and zero-point Energies=           -191.462657
 Sum of electronic and thermal Energies=              -191.457696
 Sum of electronic and thermal Enthalpies=            -191.456751
 Sum of electronic and thermal Free Energies=         -191.489726

                     E (Thermal)             CV                S
                      KCal/Mol        Cal/Mol-Kelvin    Cal/Mol-Kelvin
 Total                   27.949             16.421             69.401
 Electronic               0.000              0.000              0.000
 Translational            0.889              2.981             38.294
 Rotational               0.889              2.981             24.067
 Vibrational             26.172             10.459              7.040
 Vibration     1          0.638              1.840              2.131
 Vibration     2          0.652              1.796              1.885
 Vibration     3          0.795              1.395              0.844
 Vibration     4          0.810              1.358              0.791
 Vibration     5          0.897              1.157              0.561

 Normal termination of Gaussian 09 at Sun Jun 19 01:21:45 2016.
