 Gaussian 09, Revision E.01,
 Gaussian 09:  EM64L-G09RevE.01 30-Nov-2015

 ---------------------------------------------
 #p b3lyp/6-311++G(3df,2p) freq symmetry=Loose
 ---------------------------------------------

 ---------
 b3lyp opt
 ---------
 Symbolic Z-matrix:
 Charge =  3 Multiplicity = 2

                         Standard orientation:
 ---------------------------------------------------------------------
 Center     Atomic      Atomic             Coordinates (Angstroms)
 Number     Number       Type             X           Y           Z
 ---------------------------------------------------------------------
      1          6           0        0.000000    0.000000    0.444297
      2          6           0        0.000000    0.840034   -0.692593
      3          6           0       -0.000000   -0.000000   -1.815833
      4          6           0       -0.000000   -0.840034   -0.692593
      5          6           0        0.000000    0.000000    1.924325
      6          1           0       -0.979019    0.000000    2.497194
      7          1           0        0.979019   -0.000000    2.497194
 ---------------------------------------------------------------------

 SCF Done:  E(UB3LYP) =  -189.687070811     A.U. after   15 cycles

 The electronic state is 2-A1.
 Alpha  occ. eigenvalues --  -11.11669 -11.11444 -11.08654 -11.08332 -11.08323
 Alpha  occ. eigenvalues --   -1.78960  -1.56180  -1.44765  -1.35943  -1.26054
 Alpha  occ. eigenvalues --   -1.23144  -1.22378  -1.16544  -1.12444  -1.04553
 Alpha virt. eigenvalues --   -0.92346  -0.91568  -0.84812  -0.80681  -0.69650
 Alpha virt. eigenvalues --   -0.59617  -0.53634  -0.53325  -0.48889  -0.48548
 Alpha virt. eigenvalues --   -0.47880  -0.44372  -0.43475  -0.41407  -0.40991

  Beta  occ. eigenvalues --  -11.11334 -11.09572 -11.08654 -11.08005 -11.07997
  Beta  occ. eigenvalues --   -1.78525  -1.55847  -1.43596  -1.35105  -1.25643
  Beta  occ. eigenvalues --   -1.22274  -1.22176  -1.16071  -1.05891
  Beta virt. eigenvalues --   -0.91317  -0.90641  -0.89836  -0.84236  -0.78859
  Beta virt. eigenvalues --   -0.67197  -0.59240  -0.53560  -0.52471  -0.48617
  Beta virt. eigenvalues --   -0.48334  -0.47838  -0.44346  -0.42188  -0.40616

 Mulliken charges and spin densities:
               1          2
     1  C    0.031700  -0.086749
     2  C    1.401964   0.161317
     3  C   -0.253570   0.777480
     4  C    1.401964   0.161317
     5  C   -0.362613  -0.009058
     6  H    0.390278  -0.002154
     7  H    0.390278  -0.002154
 Sum of Mulliken charges =   3.00000   1.00000

 Dipole moment (field-independent basis, Debye):
    X=              0.0000    Y=              0.0000    Z=              4.4595  Tot=              4.4595
 Quadrupole moment (field-independent basis, Debye-Ang):
   XX=            -17.2233   YY=            -17.3835   ZZ=             22.1183
   XY=             -0.0000   XZ=              0.0000   YZ=             -0.0000

  Exact polarizability:  22.572  -0.000  33.372   0.000  -0.000  55.103
 Approx polarizability:  33.648   0.000  91.641   0.000   0.000  98.519

                      1                      2                      3
                     B1                     B2                     A2
 Frequencies --    245.5997               293.2514               373.9584
 Red. masses --      4.6753                 4.3454                 1.1121
 Frc consts  --      0.1662                 0.2202                 0.0916
 IR Inten    --      4.4032                14.6939                 0.0000

                      4                      5                      6
                     B1                     A1                     B2
 Frequencies --    497.9326               529.6428               695.5944
 Red. masses --      3.6786                 9.2487                 8.7397
 Frc consts  --      0.5374                 1.5286                 2.4915
 IR Inten    --      6.2338                43.3518                17.2529

                      7                      8                      9
                     A1                     B1                     B2
 Frequencies --    759.3127               909.8654              1145.2730
 Red. masses --      7.9705                 1.6018                 1.4914
 Frc consts  --      2.7075                 0.7813                 1.1525
 IR Inten    --      1.7018                 1.4574                31.4045

                     10                     11                     12
                     A1                     B2                     A1
 Frequencies --   1266.2450              1269.4246              1393.9798
 Red. masses --      1.1188                 9.8224                11.8560
 Frc consts  --      1.0570                 9.3257                13.5738
 IR Inten    --    160.3386                 2.9333               310.8629

                     13                     14                     15
                     A1                     A1                     B1
 Frequencies --   1474.8577              2653.5028              2757.1523
 Red. masses --      8.6041                 1.0413                 1.1271
 Frc consts  --     11.0269                 4.3199                 5.0482
 IR Inten    --     87.6334               761.3513               435.3151

 - Thermochemistry -
 -------------------
 Temperature   298.150 Kelvin.  Pressure   1.00000 Atm.
 Atom     1 has atomic number  6 and mass  12.00000

 Molecular mass:    62.01565 amu.
 Principal axes and moments of inertia in atomic units:
                           1         2         3
     Eigenvalues --    67.37781 399.92405 453.50358
           X            0.00000  -0.00000   1.00000
           Y            0.00000   1.00000   0.00000
           Z            1.00000  -0.00000  -0.00000
 This molecule is an asymmetric top.
 Rotational symmetry number  2.
 Rotational temperatures (Kelvin)      1.28549     0.21658     0.19099
 Rotational constants (GHZ):          26.78540     4.51271     3.97955
 Zero-point vibrational energy      97289.8 (Joules/Mol)
                                   23.25283 (Kcal/Mol)
 Warning -- explicit consideration of   5 degrees of freedom as
           vibrations may cause significant error
 Vibrational temperatures:    353.36   421.92   538.04   716.41   762.04
          (Kelvin)           1000.80  1092.48  1309.09  1647.79  1821.84
                             1826.42  2005.62  2121.99  3817.79  3966.92

 Zero-point correction=                           0.037056 (Hartree/Particle)
 Thermal correction to Energy=                    0.041891
 Thermal correction to Enthalpy=                  0.042835
 Thermal correction to Gibbs Free Energy=         0.010204
 Sum of electronic and zero-point Energies=           -189.650015
 Sum of electronic and thermal Energies=              -189.645180
 Sum of electronic and thermal Enthalpies=            -189.644236
 Sum of electronic and thermal Free Energies=         -189.676867

                     E (Thermal)             CV                S
                      KCal/Mol        Cal/Mol-Kelvin    Cal/Mol-Kelvin
 Total                   26.287             16.191             68.677
 Electronic               0.000              0.000              1.377
 Translational            0.889              2.981             38.294
 Rotational               0.889              2.981             22.640
 Vibrational             24.509             10.229              6.366
 Vibration     1          0.660              1.770              1.762
 Vibration     2          0.688              1.686              1.455
 Vibration     3          0.745              1.526              1.064
 Vibration     4          0.853              1.255              0.663
 Vibration     5          0.885              1.184              0.588

 Optimization completed.
    -- Stationary point found.
 Normal termination of Gaussian 09 at Tue Jul 19 06:25:57 2016.
