 Gaussian 09, Revision E.01,
 Gaussian 09:  EM64L-G09RevE.01 30-Nov-2015

 ------------------------------------------------------
 #p b3lyp/6-311++G(3df,2p) freq IOp(2/17=3) IOp(2/18=3)
 ------------------------------------------------------

 ---------
 b3lyp opt
 ---------
 Symbolic Z-matrix:
 Charge =  3 Multiplicity = 2

                         Standard orientation:
 ---------------------------------------------------------------------
 Center     Atomic      Atomic             Coordinates (Angstroms)
 Number     Number       Type             X           Y           Z
 ---------------------------------------------------------------------
      1          6           0        0.000000    0.498790    0.000000
      2          6           0        0.210971   -0.496045   -1.080007
      3          6           0       -0.168582   -1.311712   -0.000000
      4          6           0        0.210971   -0.496045    1.080007
      5          6           0       -0.434845    1.984394    0.000000
      6          1           0        0.544836   -0.538091   -2.148064
      7          1           0        0.544836   -0.538091    2.148064
 ---------------------------------------------------------------------

 SCF Done:  E(UB3LYP) =  -189.690676434     A.U. after   18 cycles

 The electronic state is 2-A'.
 Alpha  occ. eigenvalues --  -11.15907 -11.08693 -11.06533 -11.06531 -11.06280
 Alpha  occ. eigenvalues --   -1.74835  -1.50336  -1.45830  -1.31799  -1.27860
 Alpha  occ. eigenvalues --   -1.21129  -1.18745  -1.18127  -1.08982  -1.04877
 Alpha virt. eigenvalues --   -0.91166  -0.89236  -0.87468  -0.80411  -0.72980
 Alpha virt. eigenvalues --   -0.60698  -0.55522  -0.52830  -0.52661  -0.49843
 Alpha virt. eigenvalues --   -0.48818  -0.45389  -0.44084  -0.41608  -0.41517

  Beta  occ. eigenvalues --  -11.15638 -11.07250 -11.06573 -11.06569 -11.05842
  Beta  occ. eigenvalues --   -1.74019  -1.48734  -1.45685  -1.29458  -1.27728
  Beta  occ. eigenvalues --   -1.20497  -1.18564  -1.15487  -1.08829
  Beta virt. eigenvalues --   -0.92204  -0.89089  -0.87634  -0.86930  -0.76722
  Beta virt. eigenvalues --   -0.71009  -0.59723  -0.55187  -0.52370  -0.52148
  Beta virt. eigenvalues --   -0.49103  -0.48553  -0.44746  -0.43950  -0.41362

 Mulliken charges and spin densities:
               1          2
     1  C    0.442871   0.201567
     2  C    0.227863  -0.018002
     3  C    0.628073   0.677285
     4  C    0.227863  -0.018002
     5  C    0.594132   0.149770
     6  H    0.439599   0.003691
     7  H    0.439599   0.003691
 Sum of Mulliken charges =   3.00000   1.00000

 Dipole moment (field-independent basis, Debye):
    X=              0.3452    Y=              0.8957    Z=              0.0000  Tot=              0.9599
 Quadrupole moment (field-independent basis, Debye-Ang):
   XX=            -19.0201   YY=              1.7476   ZZ=             -0.1947
   XY=             -3.9252   XZ=              0.0000   YZ=              0.0000

  Exact polarizability:  23.421  -4.866  63.201  -0.000  -0.000  38.359
 Approx polarizability:  36.583  -9.801 145.983   0.000   0.000  67.343

                      1                      2                      3
                     A'                     A"                     A'
 Frequencies --    273.4137               299.7918               345.0483
 Red. masses --      6.6051                 5.7770                 3.1020
 Frc consts  --      0.2909                 0.3059                 0.2176
 IR Inten    --      0.6813                 1.0351                43.6743

                      4                      5                      6
                     A'                     A'                     A"
 Frequencies --    547.6155               644.2107               782.1440
 Red. masses --      7.6022                 5.5657                 6.0734
 Frc consts  --      1.3432                 1.3609                 2.1890
 IR Inten    --    114.3617                18.5455                35.2910

                      7                      8                      9
                     A'                     A"                     A'
 Frequencies --    871.4161               975.8719              1004.5611
 Red. masses --      1.9030                 1.4285                 1.8177
 Frc consts  --      0.8514                 0.8015                 1.0807
 IR Inten    --    133.4526                 0.0916               131.9713

                     10                     11                     12
                     A"                     A'                     A'
 Frequencies --   1048.0078              1102.2194              1253.7510
 Red. masses --      1.2295                 1.9978                 6.5613
 Frc consts  --      0.7956                 1.4300                 6.0767
 IR Inten    --      1.4057                 3.3083                86.0623

                     13                     14                     15
                     A"                     A"                     A'
 Frequencies --   1307.6634              2868.9241              2885.1386
 Red. masses --      6.5513                 1.1203                 1.1236
 Frc consts  --      6.6004                 5.4329                 5.5104
 IR Inten    --    194.9686               780.2392                78.2604

 - Thermochemistry -
 -------------------
 Temperature   298.150 Kelvin.  Pressure   1.00000 Atm.
 Atom     1 has atomic number  6 and mass  12.00000

 Molecular mass:    62.01565 amu.
 Principal axes and moments of inertia in atomic units:
                           1         2         3
     Eigenvalues --   142.82231 291.45230 414.99223
           X           -0.14298   0.00000   0.98973
           Y            0.98973   0.00000   0.14298
           Z           -0.00000   1.00000   0.00000
 This molecule is an asymmetric top.
 Rotational symmetry number  1.
 Rotational temperatures (Kelvin)      0.60644     0.29718     0.20871
 Rotational constants (GHZ):          12.63627     6.19224     4.34886
 Zero-point vibrational energy      96956.0 (Joules/Mol)
                                   23.17304 (Kcal/Mol)
 Warning -- explicit consideration of   4 degrees of freedom as
           vibrations may cause significant error
 Vibrational temperatures:    393.38   431.33   496.45   787.90   926.87
          (Kelvin)           1125.33  1253.77  1404.06  1445.34  1507.85
                             1585.85  1803.87  1881.43  4127.74  4151.07

 Zero-point correction=                           0.036929 (Hartree/Particle)
 Thermal correction to Energy=                    0.041631
 Thermal correction to Enthalpy=                  0.042576
 Thermal correction to Gibbs Free Energy=         0.009357
 Sum of electronic and zero-point Energies=           -189.653748
 Sum of electronic and thermal Energies=              -189.649045
 Sum of electronic and thermal Enthalpies=            -189.648101
 Sum of electronic and thermal Free Energies=         -189.681319

                     E (Thermal)             CV                S
                      KCal/Mol        Cal/Mol-Kelvin    Cal/Mol-Kelvin
 Total                   26.124             15.948             69.914
 Electronic               0.000              0.000              1.377
 Translational            0.889              2.981             38.294
 Rotational               0.889              2.981             24.361
 Vibrational             24.347              9.987              5.882
 Vibration     1          0.676              1.722              1.575
 Vibration     2          0.692              1.674              1.418
 Vibration     3          0.723              1.585              1.189
 Vibration     4          0.903              1.145              0.549

 Normal termination of Gaussian 09 at Thu Jan 31 05:15:36 2019.
