 Gaussian 09, Revision E.01,
 Gaussian 09:  EM64L-G09RevE.01 30-Nov-2015

 ------------------------------------------------------
 #p b3lyp/6-311++G(3df,2p) freq IOp(2/17=3) IOp(2/18=3)
 ------------------------------------------------------

 ---------
 b3lyp opt
 ---------
 Symbolic Z-matrix:
 Charge =  1 Multiplicity = 4

                         Standard orientation:
 ---------------------------------------------------------------------
 Center     Atomic      Atomic             Coordinates (Angstroms)
 Number     Number       Type             X           Y           Z
 ---------------------------------------------------------------------
      1          6           0       -0.000000    0.640216   -1.447166
      2          6           0       -0.000000   -0.640216   -1.447166
      3          6           0       -0.000000   -0.000000   -0.112521
      4          6           0        0.000000    0.000000    1.167500
      5          6           0        0.000000    0.000000    2.459353
      6          1           0       -0.000000    1.636844   -1.859999
      7          1           0       -0.000000   -1.636844   -1.859999
 ---------------------------------------------------------------------

 SCF Done:  E(UB3LYP) =  -191.121669335     A.U. after   15 cycles

 The electronic state is 4-A2.
 Alpha  occ. eigenvalues --  -10.52015 -10.47796 -10.47671 -10.47624 -10.47242
 Alpha  occ. eigenvalues --   -1.17214  -1.05205  -0.93176  -0.83280  -0.78670
 Alpha  occ. eigenvalues --   -0.67655  -0.65384  -0.64736  -0.63167  -0.56924
 Alpha  occ. eigenvalues --   -0.53469  -0.41845
 Alpha virt. eigenvalues --   -0.26799  -0.25337  -0.14566  -0.14446  -0.13027
 Alpha virt. eigenvalues --   -0.12781  -0.10823  -0.09568  -0.07938  -0.07477
 Alpha virt. eigenvalues --   -0.05559  -0.05351  -0.04553  -0.03121  -0.02386

  Beta  occ. eigenvalues --  -10.48073 -10.47545 -10.47420 -10.47347 -10.46383
  Beta  occ. eigenvalues --   -1.15725  -1.01328  -0.88634  -0.82276  -0.77733
  Beta  occ. eigenvalues --   -0.66222  -0.62610  -0.59363  -0.52624
  Beta virt. eigenvalues --   -0.41361  -0.40242  -0.29044  -0.24358  -0.20021
  Beta virt. eigenvalues --   -0.14214  -0.12810  -0.12319  -0.10363  -0.10360
  Beta virt. eigenvalues --   -0.09451  -0.06664  -0.06639  -0.04833  -0.03950

 Mulliken charges and spin densities:
               1          2
     1  C    0.011725   0.107633
     2  C    0.011725   0.107633
     3  C   -0.399066   0.648080
     4  C    0.387177   0.019293
     5  C    0.341478   2.080179
     6  H    0.323480   0.018590
     7  H    0.323480   0.018590
 Sum of Mulliken charges =   1.00000   3.00000

 Dipole moment (field-independent basis, Debye):
    X=             -0.0000    Y=             -0.0000    Z=             -0.7976  Tot=              0.7976
 Quadrupole moment (field-independent basis, Debye-Ang):
   XX=            -27.3991   YY=            -18.6968   ZZ=             -6.2677
   XY=              0.0000   XZ=              0.0000   YZ=              0.0000

  Exact polarizability:  28.236  -0.000  37.116  -0.000  -0.000  88.131
 Approx polarizability:  38.694   0.000  59.952   0.000   0.000 163.651

                      1                      2                      3
                     B2                     B1                     B1
 Frequencies --    151.8418               215.6486               322.1073
 Red. masses --      4.9365                 7.1786                11.6219
 Frc consts  --      0.0671                 0.1967                 0.7104
 IR Inten    --      6.3465                12.6856                 0.0733

                      4                      5                      6
                     B2                     B2                     A1
 Frequencies --    521.7702               590.8000               697.2212
 Red. masses --      7.0487                 9.9217                 6.8278
 Frc consts  --      1.1306                 2.0404                 1.9556
 IR Inten    --      0.7369                11.7999                12.4494

                      7                      8                      9
                     B1                     A2                     A1
 Frequencies --    709.5164               767.5845               915.4945
 Red. masses --      1.1658                 1.4923                 1.1424
 Frc consts  --      0.3458                 0.5180                 0.5641
 IR Inten    --     66.8130                 0.0000                22.5749

                     10                     11                     12
                     B2                     A1                     A1
 Frequencies --    989.7858              1265.5541              1709.7004
 Red. masses --      1.3069                 8.4840                 5.5383
 Frc consts  --      0.7544                 8.0059                 9.5382
 IR Inten    --     13.0674                70.9827                 4.3283

                     13                     14                     15
                     A1                     B2                     A1
 Frequencies --   1959.7677              3228.8619              3289.3291
 Red. masses --      9.0641                 1.0843                 1.1659
 Frc consts  --     20.5108                 6.6602                 7.4323
 IR Inten    --     12.4749               161.2377               115.2829

 - Thermochemistry -
 -------------------
 Temperature   298.150 Kelvin.  Pressure   1.00000 Atm.
 Atom     1 has atomic number  6 and mass  12.00000

 Molecular mass:    62.01565 amu.
 Principal axes and moments of inertia in atomic units:
                           1         2         3
     Eigenvalues --    54.41404 521.75479 576.16883
           X            0.00000   0.00000   1.00000
           Y            0.00000   1.00000  -0.00000
           Z            1.00000  -0.00000  -0.00000
 This molecule is an asymmetric top.
 Rotational symmetry number  2.
 Rotational temperatures (Kelvin)      1.59175     0.16600     0.15033
 Rotational constants (GHZ):          33.16683     3.45898     3.13231
 Zero-point vibrational energy     103686.2 (Joules/Mol)
                                   24.78160 (Kcal/Mol)
 Warning -- explicit consideration of   5 degrees of freedom as
           vibrations may cause significant error
 Vibrational temperatures:    218.47   310.27   463.44   750.71   850.03
          (Kelvin)           1003.14  1020.83  1104.38  1317.19  1424.08
                             1820.85  2459.87  2819.67  4645.61  4732.60

 Zero-point correction=                           0.039492 (Hartree/Particle)
 Thermal correction to Energy=                    0.044684
 Thermal correction to Enthalpy=                  0.045628
 Thermal correction to Gibbs Free Energy=         0.011371
 Sum of electronic and zero-point Energies=           -191.082177
 Sum of electronic and thermal Energies=              -191.076985
 Sum of electronic and thermal Enthalpies=            -191.076041
 Sum of electronic and thermal Free Energies=         -191.110298

                     E (Thermal)             CV                S
                      KCal/Mol        Cal/Mol-Kelvin    Cal/Mol-Kelvin
 Total                   28.040             16.998             72.100
 Electronic               0.000              0.000              2.755
 Translational            0.889              2.981             38.294
 Rotational               0.889              2.981             22.929
 Vibrational             26.262             11.036              8.122
 Vibration     1          0.619              1.901              2.649
 Vibration     2          0.645              1.817              1.995
 Vibration     3          0.707              1.631              1.299
 Vibration     4          0.877              1.202              0.606
 Vibration     5          0.948              1.051              0.466

 Optimization completed.
    -- Stationary point found.
 Normal termination of Gaussian 09 at Thu Jan 31 04:52:31 2019.
