 Gaussian 09, Revision E.01,
 Gaussian 09:  EM64L-G09RevE.01 30-Nov-2015

 ------------------------------------------------------
 #p b3lyp/6-311++G(3df,2p) freq IOp(2/17=3) IOp(2/18=3)
 ------------------------------------------------------

 ---------
 b3lyp opt
 ---------
 Symbolic Z-matrix:
 Charge =  0 Multiplicity = 1

                         Standard orientation:
 ---------------------------------------------------------------------
 Center     Atomic      Atomic             Coordinates (Angstroms)
 Number     Number       Type             X           Y           Z
 ---------------------------------------------------------------------
      1          6           0       -0.663760    0.000000   -1.400099
      2          6           0        0.663760   -0.000000   -1.400099
      3          6           0        0.000000    0.000000   -0.156330
      4          6           0       -0.000000    0.000000    1.175494
      5          6           0       -0.000000    0.000000    2.434954
      6          1           0       -1.583155    0.000000   -1.961762
      7          1           0        1.583155   -0.000000   -1.961762
 ---------------------------------------------------------------------

 SCF Done:  E(RB3LYP) =  -191.546692682     A.U. after   15 cycles

 The electronic state is 1-A1.
 Alpha  occ. eigenvalues --  -10.28868 -10.28156 -10.28071 -10.16554 -10.14479
 Alpha  occ. eigenvalues --   -0.98924  -0.76318  -0.65232  -0.65096  -0.60730
 Alpha  occ. eigenvalues --   -0.45421  -0.44878  -0.42898  -0.28458  -0.25249
 Alpha  occ. eigenvalues --   -0.25021
 Alpha virt. eigenvalues --   -0.08783  -0.08781  -0.02329  -0.00909   0.01726
 Alpha virt. eigenvalues --    0.02678   0.03020   0.03985   0.06122   0.07931
 Alpha virt. eigenvalues --    0.08102   0.09229   0.09399   0.09626   0.10473

 Mulliken charges:
               1
     1  C    0.033881
     2  C    0.033881
     3  C   -0.553263
     4  C    0.536848
     5  C   -0.581123
     6  H    0.264888
     7  H    0.264888
 Sum of Mulliken charges =  -0.00000

 Dipole moment (field-independent basis, Debye):
    X=             -0.0000    Y=             -0.0000    Z=             -8.3508  Tot=              8.3508
 Quadrupole moment (field-independent basis, Debye-Ang):
   XX=            -25.4753   YY=            -29.0880   ZZ=            -38.7263
   XY=             -0.0000   XZ=             -0.0000   YZ=              0.0000

  Exact polarizability:  47.834  -0.000  36.023   0.000  -0.000  98.539
 Approx polarizability:  74.773  -0.000  53.289  -0.000   0.000 175.670

                      1                      2                      3
                     B2                     B1                     B2
 Frequencies --    157.9433               173.9752               477.8859
 Red. masses --      8.3567                 6.1397                 2.8198
 Frc consts  --      0.1228                 0.1095                 0.3794
 IR Inten    --      1.3644                 0.4055                 8.7619

                      4                      5                      6
                     B1                     A1                     B2
 Frequencies --    501.3614               740.2908               777.5213
 Red. masses --      4.6291                 3.6931                 1.6600
 Frc consts  --      0.6856                 1.1925                 0.5913
 IR Inten    --      0.3084                 0.4382                42.4096

                      7                      8                      9
                     B1                     A2                     A1
 Frequencies --    938.1222               960.0558               973.3474
 Red. masses --      2.0696                 1.4319                 1.2877
 Frc consts  --      1.0731                 0.7776                 0.7188
 IR Inten    --      9.6253                 0.0000                 0.8831

                     10                     11                     12
                     B1                     A1                     A1
 Frequencies --   1126.8720              1465.9770              1680.0212
 Red. masses --      2.8686                 8.3685                 6.3068
 Frc consts  --      2.1462                10.5962                10.4878
 IR Inten    --     17.2366               163.5722                33.9885

                     13                     14                     15
                     A1                     B1                     A1
 Frequencies --   2083.4279              3231.3319              3268.0135
 Red. masses --     11.5966                 1.0896                 1.1407
 Frc consts  --     29.6576                 6.7032                 7.1778
 IR Inten    --    989.9286                 6.2865                11.2424

 - Thermochemistry -
 -------------------
 Temperature   298.150 Kelvin.  Pressure   1.00000 Atm.
 Atom     1 has atomic number  6 and mass  12.00000

 Molecular mass:    62.01565 amu.
 Principal axes and moments of inertia in atomic units:
                           1         2         3
     Eigenvalues --    55.80084 509.17055 564.97139
           X            0.00000   1.00000  -0.00000
           Y            0.00000   0.00000   1.00000
           Z            1.00000   0.00000   0.00000
 This molecule is an asymmetric top.
 Rotational symmetry number  2.
 Rotational temperatures (Kelvin)      1.55220     0.17011     0.15331
 Rotational constants (GHZ):          32.34254     3.54447     3.19439
 Zero-point vibrational energy     110990.4 (Joules/Mol)
                                   26.52734 (Kcal/Mol)
 Warning -- explicit consideration of   4 degrees of freedom as
           vibrations may cause significant error
 Vibrational temperatures:    227.24   250.31   687.57   721.35  1065.11
          (Kelvin)           1118.68  1349.75  1381.30  1400.43  1621.32
                             2109.21  2417.17  2997.58  4649.16  4701.94

 Zero-point correction=                           0.042274 (Hartree/Particle)
 Thermal correction to Energy=                    0.047147
 Thermal correction to Enthalpy=                  0.048091
 Thermal correction to Gibbs Free Energy=         0.015573
 Sum of electronic and zero-point Energies=           -191.504419
 Sum of electronic and thermal Energies=              -191.499546
 Sum of electronic and thermal Enthalpies=            -191.498602
 Sum of electronic and thermal Free Energies=         -191.531119

                     E (Thermal)             CV                S
                      KCal/Mol        Cal/Mol-Kelvin    Cal/Mol-Kelvin
 Total                   29.585             15.389             68.439
 Electronic               0.000              0.000              0.000
 Translational            0.889              2.981             38.294
 Rotational               0.889              2.981             22.911
 Vibrational             27.808              9.428              7.235
 Vibration     1          0.621              1.894              2.574
 Vibration     2          0.627              1.874              2.392
 Vibration     3          0.834              1.299              0.716
 Vibration     4          0.857              1.247              0.655

 Optimization completed.
    -- Stationary point found.
 Normal termination of Gaussian 09 at Thu Jan 31 04:28:49 2019.
