 Gaussian 09, Revision E.01,
 Gaussian 09:  EM64L-G09RevE.01 30-Nov-2015

 ---------------------------------------------
 #p b3lyp/6-311++G(3df,2p) freq symmetry=Loose
 ---------------------------------------------

 ---------
 b3lyp opt
 ---------
 Symbolic Z-matrix:
 Charge =  0 Multiplicity = 3

                         Standard orientation:
 ---------------------------------------------------------------------
 Center     Atomic      Atomic             Coordinates (Angstroms)
 Number     Number       Type             X           Y           Z
 ---------------------------------------------------------------------
      1          6           0       -0.196920   -1.064349    0.000000
      2          6           0       -0.196920   -0.010461    1.042305
      3          6           0       -0.309112    1.037527   -0.000000
      4          6           0       -0.196920   -0.010461   -1.042305
      5          6           0        0.910480    0.048060   -0.000000
      6          1           0       -0.031824   -0.000947    2.103850
      7          1           0       -0.031824   -0.000947   -2.103850
 ---------------------------------------------------------------------

 SCF Done:  E(UB3LYP) =  -191.417265282     A.U. after   14 cycles

 The electronic state is 3-A'.
 Alpha  occ. eigenvalues --  -10.27245 -10.25365 -10.25364 -10.24826 -10.24817
 Alpha  occ. eigenvalues --   -1.06724  -0.73418  -0.69737  -0.58888  -0.57413
 Alpha  occ. eigenvalues --   -0.45548  -0.44219  -0.38946  -0.33802  -0.31918
 Alpha  occ. eigenvalues --   -0.30975  -0.24234
 Alpha virt. eigenvalues --   -0.00007   0.00497   0.00661   0.01971   0.02678
 Alpha virt. eigenvalues --    0.05730   0.06158   0.06299   0.07371   0.08380
 Alpha virt. eigenvalues --    0.08554   0.09081   0.09303   0.11164   0.11432

  Beta  occ. eigenvalues --  -10.26015 -10.25118 -10.25115 -10.23709 -10.23701
  Beta  occ. eigenvalues --   -1.05327  -0.72656  -0.66899  -0.58118  -0.54795
  Beta  occ. eigenvalues --   -0.45134  -0.42725  -0.32539  -0.31277  -0.30397
  Beta virt. eigenvalues --   -0.16719  -0.11395   0.00122   0.00719   0.01726
  Beta virt. eigenvalues --    0.02247   0.03121   0.06101   0.06920   0.07401
  Beta virt. eigenvalues --    0.07666   0.08904   0.09126   0.09601   0.09769

 Mulliken charges and spin densities:
               1          2
     1  C   -0.442006   0.530689
     2  C    0.294146   0.184247
     3  C   -0.442128   0.531212
     4  C    0.294146   0.184247
     5  C   -0.129165   0.570311
     6  H    0.212504  -0.000353
     7  H    0.212504  -0.000353
 Sum of Mulliken charges =  -0.00000   2.00000

 Dipole moment (field-independent basis, Debye):
    X=              0.2641    Y=              0.0160    Z=             -0.0000  Tot=              0.2646
 Quadrupole moment (field-independent basis, Debye-Ang):
   XX=            -31.1667   YY=            -34.2391   ZZ=            -22.2270
   XY=              0.1619   XZ=             -0.0000   YZ=              0.0000

  Exact polarizability:  43.380  -0.917  60.554   0.000   0.000  47.892
 Approx polarizability:  80.576  -1.474 107.757  -0.000  -0.000  74.579

                      1                      2                      3
                     A'                     A'                     A"
 Frequencies --    449.0845               487.8654               528.3717
 Red. masses --     11.4074                 6.9726                 8.2173
 Frc consts  --      1.3555                 0.9778                 1.3516
 IR Inten    --      5.3722                89.6765                 2.3337

                      4                      5                      6
                     A'                     A'                     A"
 Frequencies --    833.8581               910.7622               922.6193
 Red. masses --      2.0982                 2.8917                 1.2980
 Frc consts  --      0.8596                 1.4132                 0.6510
 IR Inten    --     57.1851                28.5975                15.2432

                      7                      8                      9
                     A'                     A"                     A"
 Frequencies --    931.2353              1014.1125              1089.8597
 Red. masses --      3.9976                 3.6373                 1.4949
 Frc consts  --      2.0425                 2.2040                 1.0461
 IR Inten    --      0.5879                 0.0003                 0.0000

                     10                     11                     12
                     A'                     A'                     A"
 Frequencies --   1106.0924              1191.7589              1194.8641
 Red. masses --      2.2692                 1.5623                 6.8267
 Frc consts  --      1.6357                 1.3074                 5.7425
 IR Inten    --      2.8179                 2.7936                 7.1157

                     13                     14                     15
                     A'                     A"                     A'
 Frequencies --   1286.8250              3279.3316              3280.0708
 Red. masses --      7.8888                 1.0965                 1.1033
 Frc consts  --      7.6967                 6.9472                 6.9936
 IR Inten    --      0.1288                 4.4535                 0.8107

 - Thermochemistry -
 -------------------
 Temperature   298.150 Kelvin.  Pressure   1.00000 Atm.
 Atom     1 has atomic number  6 and mass  12.00000

 Molecular mass:    62.01565 amu.
 Principal axes and moments of inertia in atomic units:
                           1         2         3
     Eigenvalues --   139.39374 169.43489 219.89917
           X            0.00000  -0.05378   0.99855
           Y            0.00000   0.99855   0.05378
           Z            1.00000   0.00000  -0.00000
 This molecule is an asymmetric top.
 Rotational symmetry number  1.
 Rotational temperatures (Kelvin)      0.62136     0.51119     0.39388
 Rotational constants (GHZ):          12.94707    10.65153     8.20713
 Zero-point vibrational energy     110694.7 (Joules/Mol)
                                   26.45667 (Kcal/Mol)
 Warning -- explicit consideration of   3 degrees of freedom as
           vibrations may cause significant error
 Vibrational temperatures:    646.13   701.93   760.21  1199.73  1310.38
          (Kelvin)           1327.44  1339.84  1459.08  1568.06  1591.42
                             1714.67  1719.14  1851.45  4718.22  4719.28

 Zero-point correction=                           0.042161 (Hartree/Particle)
 Thermal correction to Energy=                    0.046046
 Thermal correction to Enthalpy=                  0.046990
 Thermal correction to Gibbs Free Energy=         0.015338
 Sum of electronic and zero-point Energies=           -191.375104
 Sum of electronic and thermal Energies=              -191.371220
 Sum of electronic and thermal Enthalpies=            -191.370275
 Sum of electronic and thermal Free Energies=         -191.401927

                     E (Thermal)             CV                S
                      KCal/Mol        Cal/Mol-Kelvin    Cal/Mol-Kelvin
 Total                   28.894             13.298             66.617
 Electronic               0.000              0.000              2.183
 Translational            0.889              2.981             38.294
 Rotational               0.889              2.981             23.167
 Vibrational             27.117              7.337              2.973
 Vibration     1          0.808              1.363              0.799
 Vibration     2          0.844              1.277              0.689
 Vibration     3          0.883              1.187              0.591

 Optimization completed.
    -- Stationary point found.
 Normal termination of Gaussian 09 at Tue Jul 19 08:58:11 2016.
