 Gaussian 09, Revision E.01,
 Gaussian 09:  EM64L-G09RevE.01 30-Nov-2015

 ---------------------------------------------
 #p b3lyp/6-311++G(3df,2p) freq symmetry=Loose
 ---------------------------------------------

 ---------
 b3lyp opt
 ---------
 Symbolic Z-matrix:
 Charge =  3 Multiplicity = 4

                         Standard orientation:
 ---------------------------------------------------------------------
 Center     Atomic      Atomic             Coordinates (Angstroms)
 Number     Number       Type             X           Y           Z
 ---------------------------------------------------------------------
      1          6           0        0.683847   -0.000000   -1.439284
      2          6           0       -0.683847    0.000000   -1.439284
      3          6           0       -0.000000    0.000000   -0.175636
      4          6           0        0.000000    0.000000    1.178950
      5          6           0        0.000000    0.000000    2.501389
      6          1           0        1.716014   -0.000000   -1.878403
      7          1           0       -1.716014    0.000000   -1.878403
 ---------------------------------------------------------------------

 SCF Done:  E(UB3LYP) =  -189.738427795     A.U. after   17 cycles

 The electronic state is 4-A2.
 Alpha  occ. eigenvalues --  -11.15099 -11.09271 -11.02028 -11.01059 -11.00995
 Alpha  occ. eigenvalues --   -1.69006  -1.61349  -1.46015  -1.30028  -1.23978
 Alpha  occ. eigenvalues --   -1.18322  -1.16138  -1.14747  -1.13559  -1.08930
 Alpha  occ. eigenvalues --   -1.06258
 Alpha virt. eigenvalues --   -0.86264  -0.80350  -0.73935  -0.67464  -0.58299
 Alpha virt. eigenvalues --   -0.53447  -0.52262  -0.49563  -0.48560  -0.42929
 Alpha virt. eigenvalues --   -0.42624  -0.42024  -0.41685  -0.38421  -0.37107

  Beta  occ. eigenvalues --  -11.10994 -11.08102 -11.01992 -11.00673 -11.00609
  Beta  occ. eigenvalues --   -1.67301  -1.54878  -1.43295  -1.28420  -1.22592
  Beta  occ. eigenvalues --   -1.12942  -1.12161  -1.09997
  Beta virt. eigenvalues --   -0.96692  -0.94278  -0.90942  -0.79654  -0.71700
  Beta virt. eigenvalues --   -0.71532  -0.61914  -0.55783  -0.52519  -0.51917
  Beta virt. eigenvalues --   -0.47927  -0.47324  -0.42545  -0.41278  -0.41162

 Mulliken charges and spin densities:
               1          2
     1  C    0.273560   0.137963
     2  C    0.273560   0.137963
     3  C    0.010353   0.275339
     4  C    0.647737   0.648131
     5  C    0.925558   1.755290
     6  H    0.434616   0.022656
     7  H    0.434616   0.022656
 Sum of Mulliken charges =   3.00000   3.00000

 Dipole moment (field-independent basis, Debye):
    X=             -0.0000    Y=              0.0000    Z=              2.2570  Tot=              2.2570
 Quadrupole moment (field-independent basis, Debye-Ang):
   XX=             -9.3559   YY=            -20.4657   ZZ=             31.5158
   XY=             -0.0000   XZ=              0.0000   YZ=             -0.0000

  Exact polarizability:  29.276  -0.000  19.808   0.000   0.000  83.676
 Approx polarizability:  44.796  -0.000  29.083  -0.000  -0.000 192.040

                      1                      2                      3
                     B1                     B2                     B1
 Frequencies --    188.4996               222.8043               499.8958
 Red. masses --      4.7511                 7.9708                 7.1307
 Frc consts  --      0.0995                 0.2331                 1.0499
 IR Inten    --     15.6092                15.3573                 0.9595

                      4                      5                      6
                     B2                     A1                     B1
 Frequencies --    533.7955               686.2696               741.9375
 Red. masses --      6.1485                 5.3650                 6.8088
 Frc consts  --      1.0322                 1.4887                 2.2083
 IR Inten    --      9.8093                 0.1206               105.5861

                      7                      8                      9
                     B2                     A2                     A1
 Frequencies --    797.4879               801.3876               896.2857
 Red. masses --      1.2579                 1.4753                 1.1894
 Frc consts  --      0.4714                 0.5582                 0.5629
 IR Inten    --     51.8253                 0.0000                 0.0371

                     10                     11                     12
                     B1                     A1                     A1
 Frequencies --    975.4335              1156.2136              1419.1846
 Red. masses --      1.3937                 8.2097                 5.4446
 Frc consts  --      0.7813                 6.4663                 6.4609
 IR Inten    --      0.8631               370.1043               540.9780

                     13                     14                     15
                     A1                     B1                     A1
 Frequencies --   1811.9032              2808.5136              2856.6897
 Red. masses --     11.7779                 1.0919                 1.1485
 Frc consts  --     22.7818                 5.0745                 5.5222
 IR Inten    --      2.2509               739.7620               538.4974

 - Thermochemistry -
 -------------------
 Temperature   298.150 Kelvin.  Pressure   1.00000 Atm.
 Atom     1 has atomic number  6 and mass  12.00000

 Molecular mass:    62.01565 amu.
 Principal axes and moments of inertia in atomic units:
                           1         2         3
     Eigenvalues --    61.27597 531.15129 592.42726
           X            0.00000   1.00000   0.00000
           Y            0.00000  -0.00000   1.00000
           Z            1.00000   0.00000  -0.00000
 This molecule is an asymmetric top.
 Rotational symmetry number  2.
 Rotational temperatures (Kelvin)      1.41350     0.16307     0.14620
 Rotational constants (GHZ):          29.45267     3.39779     3.04635
 Zero-point vibrational energy      98071.7 (Joules/Mol)
                                   23.43969 (Kcal/Mol)
 Warning -- explicit consideration of   4 degrees of freedom as
           vibrations may cause significant error
 Vibrational temperatures:    271.21   320.57   719.24   768.01   987.39
          (Kelvin)           1067.48  1147.41  1153.02  1289.55  1403.43
                             1663.53  2041.89  2606.92  4040.82  4110.13

 Zero-point correction=                           0.037354 (Hartree/Particle)
 Thermal correction to Energy=                    0.042211
 Thermal correction to Enthalpy=                  0.043155
 Thermal correction to Gibbs Free Energy=         0.009483
 Sum of electronic and zero-point Energies=           -189.701074
 Sum of electronic and thermal Energies=              -189.696217
 Sum of electronic and thermal Enthalpies=            -189.695272
 Sum of electronic and thermal Free Energies=         -189.728945

                     E (Thermal)             CV                S
                      KCal/Mol        Cal/Mol-Kelvin    Cal/Mol-Kelvin
 Total                   26.488             16.229             70.870
 Electronic               0.000              0.000              2.755
 Translational            0.889              2.981             38.294
 Rotational               0.889              2.981             23.093
 Vibrational             24.710             10.267              6.729
 Vibration     1          0.633              1.856              2.243
 Vibration     2          0.648              1.806              1.936
 Vibration     3          0.855              1.250              0.658
 Vibration     4          0.889              1.175              0.579

 Optimization completed.
    -- Stationary point found.
 Normal termination of Gaussian 09 at Tue Jul 19 11:59:23 2016.
