 Gaussian 09, Revision E.01,
 Gaussian 09:  EM64L-G09RevE.01 30-Nov-2015

 ---------------------------------------------
 #p b3lyp/6-311++G(3df,2p) freq symmetry=Loose
 ---------------------------------------------

 ---------
 b3lyp opt
 ---------
 Symbolic Z-matrix:
 Charge =  1 Multiplicity = 4

                         Standard orientation:
 ---------------------------------------------------------------------
 Center     Atomic      Atomic             Coordinates (Angstroms)
 Number     Number       Type             X           Y           Z
 ---------------------------------------------------------------------
      1          6           0        1.275163    0.080737   -0.000000
      2          6           0        0.362041   -1.119116   -0.000000
      3          6           0       -0.975487   -0.613894    0.000000
      4          6           0       -1.288673    0.753446    0.000000
      5          6           0       -0.000000    0.826339   -0.000000
      6          1           0        1.880870    0.217466    0.898473
      7          1           0        1.880870    0.217466   -0.898473
 ---------------------------------------------------------------------

 SCF Done:  E(UB3LYP) =  -191.098885975     A.U. after   16 cycles

 The electronic state is 4-A".
 Alpha  occ. eigenvalues --  -10.55370 -10.53886 -10.53576 -10.51464 -10.48611
 Alpha  occ. eigenvalues --   -1.24085  -1.06398  -0.96233  -0.81006  -0.76918
 Alpha  occ. eigenvalues --   -0.74782  -0.73155  -0.65500  -0.63594  -0.55807
 Alpha  occ. eigenvalues --   -0.52974  -0.49253
 Alpha virt. eigenvalues --   -0.33427  -0.30322  -0.22917  -0.17184  -0.13427
 Alpha virt. eigenvalues --   -0.12799  -0.11545  -0.09779  -0.08432  -0.07706
 Alpha virt. eigenvalues --   -0.07668  -0.05813  -0.05707  -0.04304  -0.02545

  Beta  occ. eigenvalues --  -10.54925 -10.52507 -10.51036 -10.49904 -10.48417
  Beta  occ. eigenvalues --   -1.22179  -1.04336  -0.92111  -0.79279  -0.73160
  Beta  occ. eigenvalues --   -0.72888  -0.70619  -0.61160  -0.58681
  Beta virt. eigenvalues --   -0.40172  -0.39660  -0.33352  -0.29071  -0.27434
  Beta virt. eigenvalues --   -0.17193  -0.16957  -0.12617  -0.12425  -0.11163
  Beta virt. eigenvalues --   -0.09379  -0.07603  -0.07467  -0.06663  -0.05148

 Mulliken charges and spin densities:
               1          2
     1  C   -0.426503   0.052853
     2  C    0.262067   1.434138
     3  C    0.038490   0.629755
     4  C    0.243152   0.799369
     5  C    0.393677   0.082927
     6  H    0.244558   0.000478
     7  H    0.244558   0.000478
 Sum of Mulliken charges =   1.00000   3.00000

 Dipole moment (field-independent basis, Debye):
    X=              2.1718    Y=              0.5512    Z=             -0.0000  Tot=              2.2406
 Quadrupole moment (field-independent basis, Debye-Ang):
   XX=            -18.4354   YY=            -23.5369   ZZ=            -24.3405
   XY=              0.4725   XZ=             -0.0000   YZ=             -0.0000

  Exact polarizability:  54.784  -5.326  47.488  -0.000   0.000  28.569
 Approx polarizability: 104.079  -8.999  99.842  -0.000  -0.000  43.287

                      1                      2                      3
                     A'                     A"                     A"
 Frequencies --    309.4563               314.4965               427.2715
 Red. masses --     11.5824                 4.0637                 2.4773
 Frc consts  --      0.6535                 0.2368                 0.2665
 IR Inten    --      9.0952                 1.4715                 1.9813

                      4                      5                      6
                     A'                     A'                     A"
 Frequencies --    562.6020               828.7326               901.0703
 Red. masses --      9.2325                 4.8591                 1.9711
 Frc consts  --      1.7218                 1.9662                 0.9429
 IR Inten    --      8.7272                 0.3069                 0.4338

                      7                      8                      9
                     A'                     A"                     A'
 Frequencies --   1010.4629              1072.8027              1095.2879
 Red. masses --      6.1483                 1.1580                 8.1412
 Frc consts  --      3.6986                 0.7853                 5.7543
 IR Inten    --      1.5214                 0.0629                24.4483

                     10                     11                     12
                     A'                     A'                     A'
 Frequencies --   1168.4168              1304.8521              1392.2511
 Red. masses --      1.5360                 6.6502                 1.1074
 Frc consts  --      1.2355                 6.6712                 1.2647
 IR Inten    --     21.0206                16.2167                33.5829

                     13                     14                     15
                     A'                     A'                     A"
 Frequencies --   1738.9488              3052.6000              3105.4404
 Red. masses --     11.1540                 1.0564                 1.1078
 Frc consts  --     19.8725                 5.8001                 6.2943
 IR Inten    --     12.9837                79.7434                44.6552

 - Thermochemistry -
 -------------------
 Temperature   298.150 Kelvin.  Pressure   1.00000 Atm.
 Atom     1 has atomic number  6 and mass  12.00000

 Molecular mass:    62.01565 amu.
 Principal axes and moments of inertia in atomic units:
                           1         2         3
     Eigenvalues --   122.68878 224.85075 335.91826
           X            0.96443   0.26434   0.00000
           Y           -0.26434   0.96443   0.00000
           Z           -0.00000   0.00000   1.00000
 This molecule is an asymmetric top.
 Rotational symmetry number  1.
 Rotational temperatures (Kelvin)      0.70596     0.38521     0.25784
 Rotational constants (GHZ):          14.70991     8.02640     5.37256
 Zero-point vibrational energy     109366.7 (Joules/Mol)
                                   26.13928 (Kcal/Mol)
 Warning -- explicit consideration of   4 degrees of freedom as
           vibrations may cause significant error
 Vibrational temperatures:    445.24   452.49   614.75   809.46  1192.36
          (Kelvin)           1296.44  1453.83  1543.52  1575.87  1681.09
                             1877.39  2003.14  2501.96  4392.01  4468.03

 Zero-point correction=                           0.041656 (Hartree/Particle)
 Thermal correction to Energy=                    0.046017
 Thermal correction to Enthalpy=                  0.046961
 Thermal correction to Gibbs Free Energy=         0.013927
 Sum of electronic and zero-point Energies=           -191.057230
 Sum of electronic and thermal Energies=              -191.052869
 Sum of electronic and thermal Enthalpies=            -191.051925
 Sum of electronic and thermal Free Energies=         -191.084959

                     E (Thermal)             CV                S
                      KCal/Mol        Cal/Mol-Kelvin    Cal/Mol-Kelvin
 Total                   28.876             14.356             69.525
 Electronic               0.000              0.000              2.755
 Translational            0.889              2.981             38.294
 Rotational               0.889              2.981             23.742
 Vibrational             27.098              8.395              4.734
 Vibration     1          0.699              1.656              1.365
 Vibration     2          0.702              1.646              1.339
 Vibration     3          0.789              1.411              0.868
 Vibration     4          0.918              1.112              0.519

 Optimization completed.
    -- Stationary point found.
 Normal termination of Gaussian 09 at Tue Jul 19 11:21:33 2016.
