 Gaussian 09, Revision E.01,
 Gaussian 09:  EM64L-G09RevE.01 30-Nov-2015

 ---------------------------------------------
 #p b3lyp/6-311++G(3df,2p) freq symmetry=Loose
 ---------------------------------------------

 ---------
 b3lyp opt
 ---------
 Symbolic Z-matrix:
 Charge =  3 Multiplicity = 4

                         Standard orientation:
 ---------------------------------------------------------------------
 Center     Atomic      Atomic             Coordinates (Angstroms)
 Number     Number       Type             X           Y           Z
 ---------------------------------------------------------------------
      1          6           0       -0.733964    1.563963   -0.000000
      2          6           0       -0.000000    0.359083   -0.000000
      3          6           0       -0.043566   -1.013112    0.000000
      4          6           0       -0.116103   -2.337379    0.000000
      5          6           0        0.647651    1.642762   -0.000000
      6          1           0       -0.154643   -3.470797    0.000000
      7          1           0        1.630542    2.178891   -0.000000
 ---------------------------------------------------------------------

 SCF Done:  E(UB3LYP) =  -189.749647712     A.U. after   16 cycles

 The electronic state is 4-A".
 Alpha  occ. eigenvalues --  -11.09842 -11.09216 -11.04235 -11.01363 -11.00937
 Alpha  occ. eigenvalues --   -1.68854  -1.60866  -1.45433  -1.28401  -1.26768
 Alpha  occ. eigenvalues --   -1.19877  -1.15594  -1.14173  -1.10370  -1.08379
 Alpha  occ. eigenvalues --   -1.01205
 Alpha virt. eigenvalues --   -0.84931  -0.79985  -0.74286  -0.67067  -0.62584
 Alpha virt. eigenvalues --   -0.52829  -0.52283  -0.49991  -0.49208  -0.43002
 Alpha virt. eigenvalues --   -0.42579  -0.42332  -0.39874  -0.38475  -0.37166

  Beta  occ. eigenvalues --  -11.08239 -11.07921 -11.01810 -11.01393 -11.00468
  Beta  occ. eigenvalues --   -1.66550  -1.54676  -1.43246  -1.25953  -1.24886
  Beta  occ. eigenvalues --   -1.15695  -1.11397  -1.10318
  Beta virt. eigenvalues --   -0.96755  -0.95927  -0.83664  -0.80108  -0.72262
  Beta virt. eigenvalues --   -0.69483  -0.63033  -0.58979  -0.51571  -0.51064
  Beta virt. eigenvalues --   -0.48427  -0.46794  -0.42146  -0.41866  -0.41645

 Mulliken charges and spin densities:
               1          2
     1  C    0.328845   1.078109
     2  C    0.269257   0.143414
     3  C    0.349578   0.852854
     4  C    0.762106   0.682379
     5  C    0.344371   0.258035
     6  H    0.521881  -0.029150
     7  H    0.423963   0.014359
 Sum of Mulliken charges =   3.00000   3.00000

 Dipole moment (field-independent basis, Debye):
    X=              0.8389    Y=             -4.5360    Z=              0.0000  Tot=              4.6129
 Quadrupole moment (field-independent basis, Debye-Ang):
   XX=            -13.7267   YY=             41.0078   ZZ=            -20.5864
   XY=              6.2654   XZ=             -0.0000   YZ=             -0.0000

  Exact polarizability:  27.632   3.429  86.949   0.000  -0.000  20.325
 Approx polarizability:  45.062   1.443 182.976  -0.000  -0.000  29.809

                      1                      2                      3
                     A'                     A"                     A'
 Frequencies --    188.0789               207.4157               474.7167
 Red. masses --      4.1593                 4.6063                 4.5512
 Frc consts  --      0.0867                 0.1168                 0.6043
 IR Inten    --     23.2234                21.0393                 6.7004

                      4                      5                      6
                     A"                     A'                     A'
 Frequencies --    498.5835               629.5574               668.8753
 Red. masses --      5.8321                 1.3891                 6.9141
 Frc consts  --      0.8542                 0.3244                 1.8225
 IR Inten    --      0.0633                22.7466                35.1214

                      7                      8                      9
                     A"                     A"                     A'
 Frequencies --    733.3231               793.1449               884.5223
 Red. masses --      1.3745                 1.3347                 2.3998
 Frc consts  --      0.4355                 0.4947                 1.1062
 IR Inten    --     24.1040                15.0967                96.2920

                     10                     11                     12
                     A'                     A'                     A'
 Frequencies --    969.5895              1162.7718              1385.4680
 Red. masses --      1.9966                 9.2281                 7.0050
 Frc consts  --      1.1059                 7.3511                 7.9223
 IR Inten    --     24.3749               292.5764               771.9384

                     13                     14                     15
                     A'                     A'                     A'
 Frequencies --   1784.1629              2768.8840              2862.6628
 Red. masses --      6.9925                 1.1607                 1.1222
 Frc consts  --     13.1144                 5.2429                 5.4182
 IR Inten    --      1.3185               992.2794               495.8468

 - Thermochemistry -
 -------------------
 Temperature   298.150 Kelvin.  Pressure   1.00000 Atm.
 Atom     1 has atomic number  6 and mass  12.00000

 Molecular mass:    62.01565 amu.
 Principal axes and moments of inertia in atomic units:
                           1         2         3
     Eigenvalues --    50.05895 565.62911 615.68806
           X            0.04806   0.99884   0.00000
           Y            0.99884  -0.04806   0.00000
           Z           -0.00000  -0.00000   1.00000
 This molecule is an asymmetric top.
 Rotational symmetry number  1.
 Rotational temperatures (Kelvin)      1.73024     0.15313     0.14068
 Rotational constants (GHZ):          36.05232     3.19068     2.93126
 Zero-point vibrational energy      95771.6 (Joules/Mol)
                                   22.88996 (Kcal/Mol)
 Warning -- explicit consideration of   4 degrees of freedom as
           vibrations may cause significant error
 Vibrational temperatures:    270.60   298.42   683.01   717.35   905.79
          (Kelvin)            962.36  1055.09  1141.16  1272.63  1395.02
                             1672.97  1993.38  2567.01  3983.80  4118.73

 Zero-point correction=                           0.036477 (Hartree/Particle)
 Thermal correction to Energy=                    0.041486
 Thermal correction to Enthalpy=                  0.042430
 Thermal correction to Gibbs Free Energy=         0.007901
 Sum of electronic and zero-point Energies=           -189.713170
 Sum of electronic and thermal Energies=              -189.708162
 Sum of electronic and thermal Enthalpies=            -189.707218
 Sum of electronic and thermal Free Energies=         -189.741747

                     E (Thermal)             CV                S
                      KCal/Mol        Cal/Mol-Kelvin    Cal/Mol-Kelvin
 Total                   26.033             16.798             72.672
 Electronic               0.000              0.000              2.755
 Translational            0.889              2.981             38.294
 Rotational               0.889              2.981             24.370
 Vibrational             24.255             10.836              7.253
 Vibration     1          0.633              1.856              2.247
 Vibration     2          0.641              1.829              2.066
 Vibration     3          0.831              1.306              0.724
 Vibration     4          0.854              1.253              0.662

 Optimization completed.
    -- Stationary point found.
 Normal termination of Gaussian 09 at Tue Jul 19 12:12:16 2016.
