 Gaussian 09, Revision E.01,
 Gaussian 09:  EM64L-G09RevE.01 30-Nov-2015

 ---------------------------------------------
 #p b3lyp/6-311++G(3df,2p) freq symmetry=Loose
 ---------------------------------------------

 ---------
 b3lyp opt
 ---------
 Symbolic Z-matrix:
 Charge =  1 Multiplicity = 4

                         Standard orientation:
 ---------------------------------------------------------------------
 Center     Atomic      Atomic             Coordinates (Angstroms)
 Number     Number       Type             X           Y           Z
 ---------------------------------------------------------------------
      1          6           0        2.313810    0.136631    0.000156
      2          6           0        1.093858   -0.058479   -0.000147
      3          6           0       -0.173953   -0.311866   -0.000171
      4          6           0       -1.521515   -0.440816   -0.000212
      5          6           0       -1.917337    0.847141    0.000118
      6          1           0        3.371631    0.302151    0.000240
      7          1           0       -2.140814   -1.337817    0.001293
 ---------------------------------------------------------------------

 SCF Done:  E(UB3LYP) =  -191.123315434     A.U. after   20 cycles

 The electronic state is 4-A.
 Alpha  occ. eigenvalues --  -10.53333 -10.50025 -10.47548 -10.46634 -10.43558
 Alpha  occ. eigenvalues --   -1.11552  -1.03540  -0.93911  -0.83777  -0.77203
 Alpha  occ. eigenvalues --   -0.75503  -0.64605  -0.63630  -0.58742  -0.55811
 Alpha  occ. eigenvalues --   -0.48625  -0.45063
 Alpha virt. eigenvalues --   -0.35506  -0.25998  -0.14775  -0.14372  -0.12321
 Alpha virt. eigenvalues --   -0.11483  -0.11204  -0.09392  -0.09226  -0.06681
 Alpha virt. eigenvalues --   -0.06360  -0.05482  -0.05120  -0.03428  -0.02767

  Beta  occ. eigenvalues --  -10.49585 -10.48983 -10.47698 -10.45564 -10.43928
  Beta  occ. eigenvalues --   -1.09027  -1.02018  -0.90886  -0.78786  -0.75723
  Beta  occ. eigenvalues --   -0.74307  -0.60703  -0.56995  -0.52483
  Beta virt. eigenvalues --   -0.41862  -0.36867  -0.32545  -0.26961  -0.21767
  Beta virt. eigenvalues --   -0.14121  -0.13559  -0.11856  -0.10737  -0.10309
  Beta virt. eigenvalues --   -0.08745  -0.08142  -0.06178  -0.05602  -0.04590

 Mulliken charges and spin densities:
               1          2
     1  C    0.439089   0.609890
     2  C   -0.114195  -0.144449
     3  C    0.159934   0.447582
     4  C   -0.034319  -0.197985
     5  C   -0.077513   2.219130
     6  H    0.379035  -0.018806
     7  H    0.247968   0.084639
 Sum of Mulliken charges =   1.00000   3.00000

 Dipole moment (field-independent basis, Debye):
    X=              0.2518    Y=              0.0191    Z=              0.0011  Tot=              0.2526
 Quadrupole moment (field-independent basis, Debye-Ang):
   XX=              0.9214   YY=            -22.0508   ZZ=            -27.7522
   XY=              1.7562   XZ=             -0.0015   YZ=             -0.0012

  Exact polarizability: 112.700  -4.448  38.076  -0.000   0.003  29.590
 Approx polarizability: 257.296 -22.533  67.532   0.002   0.011  39.803

                      1                      2                      3
                      A                      A                      A
 Frequencies --    150.4922               185.2257               285.3286
 Red. masses --      5.4672                 3.8247                 6.0678
 Frc consts  --      0.0730                 0.0773                 0.2911
 IR Inten    --     10.7834                13.2836                24.0163

                      4                      5                      6
                      A                      A                      A
 Frequencies --    413.1204               507.0425               512.6749
 Red. masses --      8.9164                 7.5926                 1.2008
 Frc consts  --      0.8966                 1.1501                 0.1860
 IR Inten    --      0.0345                15.8749                45.3691

                      7                      8                      9
                      A                      A                      A
 Frequencies --    622.4125               792.2668               856.0109
 Red. masses --      1.4460                 1.3519                 4.2908
 Frc consts  --      0.3300                 0.5000                 1.8524
 IR Inten    --     14.2097                13.0049                29.3169

                     10                     11                     12
                      A                      A                      A
 Frequencies --   1172.9847              1260.9443              1636.0562
 Red. masses --      1.2919                 7.5967                 7.9564
 Frc consts  --      1.0472                 7.1165                12.5477
 IR Inten    --     18.2813                 7.4369                 2.2734

                     13                     14                     15
                      A                      A                      A
 Frequencies --   1969.0724              3091.3075              3371.6477
 Red. masses --      8.0187                 1.0949                 1.1351
 Frc consts  --     18.3180                 6.1645                 7.6027
 IR Inten    --    209.2274                76.5008               207.3939

 - Thermochemistry -
 -------------------
 Temperature   298.150 Kelvin.  Pressure   1.00000 Atm.
 Atom     1 has atomic number  6 and mass  12.00000

 Molecular mass:    62.01565 amu.
 Principal axes and moments of inertia in atomic units:
                           1         2         3
     Eigenvalues --    50.56056 596.39704 646.95758
           X            0.99969   0.02508  -0.00001
           Y           -0.02508   0.99969  -0.00012
           Z            0.00001   0.00012   1.00000
 This molecule is an asymmetric top.
 Rotational symmetry number  1.
 Rotational temperatures (Kelvin)      1.71307     0.14523     0.13388
 Rotational constants (GHZ):          35.69464     3.02607     2.78958
 Zero-point vibrational energy     100645.3 (Joules/Mol)
                                   24.05481 (Kcal/Mol)
 Warning -- explicit consideration of   6 degrees of freedom as
           vibrations may cause significant error
 Vibrational temperatures:    216.52   266.50   410.52   594.39   729.52
          (Kelvin)            737.62   895.51  1139.89  1231.61  1687.66
                             1814.22  2353.92  2833.05  4447.70  4851.04

 Zero-point correction=                           0.038334 (Hartree/Particle)
 Thermal correction to Energy=                    0.043890
 Thermal correction to Enthalpy=                  0.044834
 Thermal correction to Gibbs Free Energy=         0.009182
 Sum of electronic and zero-point Energies=           -191.084982
 Sum of electronic and thermal Energies=              -191.079425
 Sum of electronic and thermal Enthalpies=            -191.078481
 Sum of electronic and thermal Free Energies=         -191.114133

                     E (Thermal)             CV                S
                      KCal/Mol        Cal/Mol-Kelvin    Cal/Mol-Kelvin
 Total                   27.542             17.985             75.036
 Electronic               0.000              0.000              2.755
 Translational            0.889              2.981             38.294
 Rotational               0.889              2.981             24.482
 Vibrational             25.764             12.023              9.505
 Vibration     1          0.618              1.902              2.666
 Vibration     2          0.631              1.860              2.275
 Vibration     3          0.683              1.701              1.502
 Vibration     4          0.777              1.442              0.916
 Vibration     5          0.862              1.234              0.641
 Vibration     6          0.868              1.222              0.627

 Optimization completed.
    -- Stationary point found.
 Normal termination of Gaussian 09 at Sun Jun 19 03:40:37 2016.
