 Gaussian 09, Revision E.01,
 Gaussian 09:  EM64L-G09RevE.01 30-Nov-2015

 ---------------------------------------------
 #p b3lyp/6-311++G(3df,2p) freq symmetry=Loose
 ---------------------------------------------

 ---------
 b3lyp opt
 ---------
 Symbolic Z-matrix:
 Charge =  2 Multiplicity = 3

                         Standard orientation:
 ---------------------------------------------------------------------
 Center     Atomic      Atomic             Coordinates (Angstroms)
 Number     Number       Type             X           Y           Z
 ---------------------------------------------------------------------
      1          6           0       -0.220498   -0.693462   -0.945777
      2          6           0        0.220498    0.693462   -0.945777
      3          6           0        0.000000    0.838581    0.471146
      4          6           0        0.000000    0.000000    1.513292
      5          6           0       -0.000000   -0.838581    0.471146
      6          1           0       -0.675131   -1.354063   -1.692045
      7          1           0        0.675131    1.354063   -1.692045
 ---------------------------------------------------------------------

 SCF Done:  E(UB3LYP) =  -190.557118544     A.U. after   16 cycles

 The electronic state is 3-B.
 Alpha  occ. eigenvalues --  -10.83782 -10.83776 -10.80928 -10.79698 -10.79662
 Alpha  occ. eigenvalues --   -1.53036  -1.34331  -1.21666  -1.07283  -1.06617
 Alpha  occ. eigenvalues --   -0.99426  -0.98487  -0.95540  -0.89177  -0.80429
 Alpha  occ. eigenvalues --   -0.78472
 Alpha virt. eigenvalues --   -0.66067  -0.56021  -0.53591  -0.49124  -0.36360
 Alpha virt. eigenvalues --   -0.32447  -0.31936  -0.30688  -0.29592  -0.27602
 Alpha virt. eigenvalues --   -0.26320  -0.24796  -0.23108  -0.22236  -0.20661

  Beta  occ. eigenvalues --  -10.83424 -10.83416 -10.79227 -10.78925 -10.78892
  Beta  occ. eigenvalues --   -1.51639  -1.31689  -1.19768  -1.05643  -1.04936
  Beta  occ. eigenvalues --   -0.98694  -0.96107  -0.92311  -0.84390
  Beta virt. eigenvalues --   -0.68352  -0.66238  -0.63744  -0.54237  -0.48047
  Beta virt. eigenvalues --   -0.44002  -0.35206  -0.31626  -0.30899  -0.29548
  Beta virt. eigenvalues --   -0.29217  -0.26985  -0.25944  -0.24259  -0.22435

 Mulliken charges and spin densities:
               1          2
     1  C    0.120296   0.496639
     2  C    0.120296   0.496639
     3  C    0.354306   0.088236
     4  C    0.372624   0.865062
     5  C    0.354306   0.088236
     6  H    0.339086  -0.017407
     7  H    0.339086  -0.017407
 Sum of Mulliken charges =   2.00000   2.00000

 Dipole moment (field-independent basis, Debye):
    X=              0.0000    Y=              0.0000    Z=             -2.0863  Tot=              2.0863
 Quadrupole moment (field-independent basis, Debye-Ang):
   XX=            -21.8237   YY=            -13.1548   ZZ=             -8.2567
   XY=              3.2841   XZ=             -0.0000   YZ=             -0.0000

  Exact polarizability:  23.217   2.519  38.788  -0.000  -0.000  52.455
 Approx polarizability:  35.418   3.713  85.092   0.000   0.000 111.517

                      1                      2                      3
                      A                      B                      B
 Frequencies --    360.7019               365.2778               444.9397
 Red. masses --      2.9551                 2.5183                 4.2335
 Frc consts  --      0.2265                 0.1980                 0.4938
 IR Inten    --      4.1519                14.8873                11.5050

                      4                      5                      6
                      A                      B                      A
 Frequencies --    516.1567               725.6343               769.5513
 Red. masses --      8.4164                 3.0588                 2.0393
 Frc consts  --      1.3211                 0.9489                 0.7116
 IR Inten    --     13.2711                 6.3996                21.2703

                      7                      8                      9
                      B                      A                      A
 Frequencies --    900.3103               907.8655              1056.7720
 Red. masses --      2.8418                 3.7380                 1.4015
 Frc consts  --      1.3572                 1.8152                 0.9221
 IR Inten    --     20.5240                 0.2958                 4.6828

                     10                     11                     12
                      A                      B                      B
 Frequencies --   1183.8667              1190.1353              1371.7041
 Red. masses --      3.1657                 1.3681                10.5470
 Frc consts  --      2.6141                 1.1418                11.6923
 IR Inten    --     54.8727                31.6899                11.3686

                     13                     14                     15
                      A                      B                      A
 Frequencies --   1532.5112              3077.4356              3098.2101
 Red. masses --     10.6721                 1.0936                 1.1075
 Frc consts  --     14.7676                 6.1023                 6.2633
 IR Inten    --     19.3700               255.2070               241.0947

 - Thermochemistry -
 -------------------
 Temperature   298.150 Kelvin.  Pressure   1.00000 Atm.
 Atom     1 has atomic number  6 and mass  12.00000

 Molecular mass:    62.01565 amu.
 Principal axes and moments of inertia in atomic units:
                           1         2         3
     Eigenvalues --   122.12985 217.73015 331.96326
           X           -0.00000   0.17503   0.98456
           Y           -0.00000   0.98456  -0.17503
           Z            1.00000   0.00000   0.00000
 This molecule is an asymmetric top.
 Rotational symmetry number  2.
 Rotational temperatures (Kelvin)      0.70919     0.39780     0.26091
 Rotational constants (GHZ):          14.77723     8.28889     5.43657
 Zero-point vibrational energy     104679.7 (Joules/Mol)
                                   25.01904 (Kcal/Mol)
 Warning -- explicit consideration of   4 degrees of freedom as
           vibrations may cause significant error
 Vibrational temperatures:    518.97   525.55   640.17   742.63  1044.02
          (Kelvin)           1107.21  1295.34  1306.21  1520.46  1703.32
                             1712.34  1973.57  2204.94  4427.74  4457.63

 Zero-point correction=                           0.039870 (Hartree/Particle)
 Thermal correction to Energy=                    0.044252
 Thermal correction to Enthalpy=                  0.045196
 Thermal correction to Gibbs Free Energy=         0.013163
 Sum of electronic and zero-point Energies=           -190.517248
 Sum of electronic and thermal Energies=              -190.512866
 Sum of electronic and thermal Enthalpies=            -190.511922
 Sum of electronic and thermal Free Energies=         -190.543956

                     E (Thermal)             CV                S
                      KCal/Mol        Cal/Mol-Kelvin    Cal/Mol-Kelvin
 Total                   27.769             15.047             67.420
 Electronic               0.000              0.000              2.183
 Translational            0.889              2.981             38.294
 Rotational               0.889              2.981             22.317
 Vibrational             25.991              9.085              4.626
 Vibration     1          0.735              1.553              1.119
 Vibration     2          0.738              1.544              1.100
 Vibration     3          0.804              1.372              0.811
 Vibration     4          0.871              1.214              0.619

 Optimization completed.
    -- Stationary point found.
 Normal termination of Gaussian 09 at Tue Jul 19 08:12:31 2016.
