 Gaussian 09, Revision E.01,
 Gaussian 09:  EM64L-G09RevE.01 30-Nov-2015

 ---------------------------------------------
 #p b3lyp/6-311++G(3df,2p) freq symmetry=Loose
 ---------------------------------------------

 ---------
 b3lyp opt
 ---------
 Symbolic Z-matrix:
 Charge =  2 Multiplicity = 1

                         Standard orientation:
 ---------------------------------------------------------------------
 Center     Atomic      Atomic             Coordinates (Angstroms)
 Number     Number       Type             X           Y           Z
 ---------------------------------------------------------------------
      1          6           0       -2.409065   -0.146272   -0.000176
      2          6           0       -1.177364    0.011242    0.000106
      3          6           0        0.093948    0.205616    0.000048
      4          6           0        1.404452    0.378644    0.000014
      5          6           0        2.355770   -0.633874   -0.000024
      6          1           0       -3.491722   -0.284444    0.000366
      7          1           0        1.885274    1.392308   -0.000174
 ---------------------------------------------------------------------

 SCF Done:  E(RB3LYP) =  -190.631450692     A.U. after   14 cycles

 The electronic state is 1-A.
 Alpha  occ. eigenvalues --  -10.80338 -10.79938 -10.76709 -10.69660 -10.69651
 Alpha  occ. eigenvalues --   -1.34595  -1.28815  -1.19922  -1.10342  -1.00510
 Alpha  occ. eigenvalues --   -0.97444  -0.86999  -0.83703  -0.77749  -0.77664
 Alpha virt. eigenvalues --   -0.63065  -0.62505  -0.58426  -0.47443  -0.39173
 Alpha virt. eigenvalues --   -0.33281  -0.32536  -0.30629  -0.28773  -0.25702
 Alpha virt. eigenvalues --   -0.25084  -0.23887  -0.22850  -0.21116  -0.20366

 Mulliken charges:
               1
     1  C    0.396186
     2  C    0.435061
     3  C    0.056829
     4  C    0.320281
     5  C    0.080496
     6  H    0.429156
     7  H    0.281990
 Sum of Mulliken charges =   2.00000

 Dipole moment (field-independent basis, Debye):
    X=             -2.2125    Y=              0.8113    Z=              0.0000  Tot=              2.3566
 Quadrupole moment (field-independent basis, Debye-Ang):
   XX=             24.1434   YY=            -19.6267   ZZ=            -24.3149
   XY=              4.7771   XZ=             -0.0013   YZ=             -0.0006

  Exact polarizability: 112.071  -1.065  31.544   0.002   0.000  25.298
 Approx polarizability: 334.104  -8.655  54.155   0.019   0.001  36.243

                      1                      2                      3
                      A                      A                      A
 Frequencies --    142.0197               194.7661               280.9198
 Red. masses --      4.9984                 3.0969                 5.8834
 Frc consts  --      0.0594                 0.0692                 0.2736
 IR Inten    --      8.2967                28.6476                16.7958

                      4                      5                      6
                      A                      A                      A
 Frequencies --    472.3770               565.3236               647.0452
 Red. masses --      2.1450                 4.5749                 3.4833
 Frc consts  --      0.2820                 0.8614                 0.8592
 IR Inten    --      1.7823                 1.2973                27.6900

                      7                      8                      9
                      A                      A                      A
 Frequencies --    788.0678               866.5070               877.5862
 Red. masses --      1.3285                 7.2500                 1.3766
 Frc consts  --      0.4861                 3.2072                 0.6246
 IR Inten    --     21.5097                 2.6491                10.5510

                     10                     11                     12
                      A                      A                      A
 Frequencies --    934.0769              1346.4684              1765.2677
 Red. masses --      1.2864                 6.6742                 8.4781
 Frc consts  --      0.6613                 7.1292                15.5657
 IR Inten    --      2.3719               545.6419               187.0747

                     13                     14                     15
                      A                      A                      A
 Frequencies --   2195.0013              2800.9650              3193.3070
 Red. masses --      7.2266                 1.0826                 1.1740
 Frc consts  --     20.5141                 5.0040                 7.0536
 IR Inten    --   1813.0497               475.3281               257.0450

 - Thermochemistry -
 -------------------
 Temperature   298.150 Kelvin.  Pressure   1.00000 Atm.
 Atom     1 has atomic number  6 and mass  12.00000

 Molecular mass:    62.01565 amu.
 Principal axes and moments of inertia in atomic units:
                           1         2         3
     Eigenvalues --    33.04708 687.59708 720.64415
           X            0.99981   0.01943  -0.00001
           Y           -0.01943   0.99981  -0.00004
           Z            0.00001   0.00004   1.00000
 This molecule is an asymmetric top.
 Rotational symmetry number  1.
 Rotational temperatures (Kelvin)      2.62092     0.12597     0.12019
 Rotational constants (GHZ):          54.61122     2.62471     2.50434
 Zero-point vibrational energy     102099.5 (Joules/Mol)
                                   24.40236 (Kcal/Mol)
 Warning -- explicit consideration of   5 degrees of freedom as
           vibrations may cause significant error
 Vibrational temperatures:    204.33   280.22   404.18   679.64   813.37
          (Kelvin)            930.95  1133.85  1246.71  1262.65  1343.93
                             1937.27  2539.82  3158.11  4029.96  4594.45

 Zero-point correction=                           0.038888 (Hartree/Particle)
 Thermal correction to Energy=                    0.044213
 Thermal correction to Enthalpy=                  0.045157
 Thermal correction to Gibbs Free Energy=         0.011239
 Sum of electronic and zero-point Energies=           -190.592563
 Sum of electronic and thermal Energies=              -190.587238
 Sum of electronic and thermal Enthalpies=            -190.586294
 Sum of electronic and thermal Free Energies=         -190.620212

                     E (Thermal)             CV                S
                      KCal/Mol        Cal/Mol-Kelvin    Cal/Mol-Kelvin
 Total                   27.744             17.147             71.386
 Electronic               0.000              0.000              0.000
 Translational            0.889              2.981             38.294
 Rotational               0.889              2.981             24.308
 Vibrational             25.967             11.185              8.784
 Vibration     1          0.615              1.911              2.776
 Vibration     2          0.635              1.847              2.182
 Vibration     3          0.681              1.709              1.528
 Vibration     4          0.829              1.311              0.731
 Vibration     5          0.921              1.106              0.513

 Optimization completed.
    -- Stationary point found.
 Normal termination of Gaussian 09 at Sun Jun 19 03:57:03 2016.
