 Gaussian 09, Revision E.01,
 Gaussian 09:  EM64L-G09RevE.01 30-Nov-2015

 ---------------------------------------------
 #p b3lyp/6-311++G(3df,2p) freq symmetry=Loose
 ---------------------------------------------

 ---------
 b3lyp opt
 ---------
 Symbolic Z-matrix:
 Charge =  0 Multiplicity = 3

                         Standard orientation:
 ---------------------------------------------------------------------
 Center     Atomic      Atomic             Coordinates (Angstroms)
 Number     Number       Type             X           Y           Z
 ---------------------------------------------------------------------
      1          6           0        1.211537   -0.274109    0.000858
      2          6           0        0.473744    1.063429    0.000567
      3          6           0       -0.856777    0.853049   -0.001446
      4          6           0       -1.315143   -0.557190    0.002751
      5          6           0       -0.113407   -0.930136   -0.003647
      6          1           0        1.803472   -0.463227   -0.891865
      7          1           0        1.796807   -0.467026    0.897370
 ---------------------------------------------------------------------

 SCF Done:  E(UB3LYP) =  -191.423344025     A.U. after   19 cycles

 The electronic state is 3-A.
 Alpha  occ. eigenvalues --  -10.25366 -10.24984 -10.24303 -10.23155 -10.22643
 Alpha  occ. eigenvalues --   -0.93858  -0.77748  -0.71140  -0.54982  -0.50990
 Alpha  occ. eigenvalues --   -0.49739  -0.47373  -0.38328  -0.36418  -0.29257
 Alpha  occ. eigenvalues --   -0.25781  -0.23689
 Alpha virt. eigenvalues --   -0.10058  -0.05209  -0.00951   0.01828   0.03923
 Alpha virt. eigenvalues --    0.04085   0.04142   0.05885   0.06465   0.07375
 Alpha virt. eigenvalues --    0.07946   0.09309   0.11319   0.11559   0.12404

  Beta  occ. eigenvalues --  -10.25558 -10.24696 -10.23012 -10.21822 -10.21147
  Beta  occ. eigenvalues --   -0.92698  -0.76400  -0.68836  -0.53677  -0.49571
  Beta  occ. eigenvalues --   -0.48305  -0.45678  -0.35541  -0.32255  -0.24482
  Beta virt. eigenvalues --   -0.14825  -0.09410  -0.08124  -0.04082  -0.00842
  Beta virt. eigenvalues --    0.01912   0.04159   0.04684   0.06080   0.06127
  Beta virt. eigenvalues --    0.06977   0.07884   0.08058   0.09433   0.11498

 Mulliken charges and spin densities:
               1          2
     1  C   -0.371463   0.093054
     2  C   -0.100511   0.860229
     3  C   -0.027027   0.654739
     4  C   -0.246289   0.687684
     5  C    0.383170  -0.285947
     6  H    0.180804  -0.004952
     7  H    0.181316  -0.004807
 Sum of Mulliken charges =  -0.00000   2.00000

 Dipole moment (field-independent basis, Debye):
    X=              2.5244    Y=             -1.6022    Z=              0.0028  Tot=              2.9899
 Quadrupole moment (field-independent basis, Debye-Ang):
   XX=            -28.3520   YY=            -30.9669   ZZ=            -29.4616
   XY=             -1.8259   XZ=              0.0060   YZ=             -0.0049

  Exact polarizability:  65.542   4.788  59.991  -0.065  -0.015  39.510
 Approx polarizability: 123.117   6.613 110.691  -0.128   0.087  55.274

                      1                      2                      3
                      A                      A                      A
 Frequencies --     10.7439               336.7385               356.3342
 Red. masses --      5.0619                 3.0075                11.0366
 Frc consts  --      0.0003                 0.2009                 0.8257
 IR Inten    --      1.1725                 9.5902                 5.0479

                      4                      5                      6
                      A                      A                      A
 Frequencies --    588.2523               845.2328               875.0261
 Red. masses --      9.7636                 6.1028                 1.6948
 Frc consts  --      1.9906                 2.5688                 0.7646
 IR Inten    --     17.5921                 1.7778                 2.1204

                      7                      8                      9
                      A                      A                      A
 Frequencies --    981.4736              1011.4346              1072.3644
 Red. masses --      8.3884                 6.9591                 1.1099
 Frc consts  --      4.7609                 4.1945                 0.7520
 IR Inten    --      9.4523                11.4126                 0.0014

                     10                     11                     12
                      A                      A                      A
 Frequencies --   1147.9582              1428.5109              1512.5999
 Red. masses --      1.2869                 1.1095                10.0738
 Frc consts  --      0.9992                 1.3339                13.5798
 IR Inten    --     15.1211                11.8283                 3.0634

                     13                     14                     15
                      A                      A                      A
 Frequencies --   1838.7047              3083.4878              3134.1450
 Red. masses --     11.2626                 1.0559                 1.1065
 Frc consts  --     22.4343                 5.9152                 6.4040
 IR Inten    --      2.6500                 0.2160                 0.0882

 - Thermochemistry -
 -------------------
 Temperature   298.150 Kelvin.  Pressure   1.00000 Atm.
 Atom     1 has atomic number  6 and mass  12.00000

 Molecular mass:    62.01565 amu.
 Principal axes and moments of inertia in atomic units:
                           1         2         3
     Eigenvalues --   139.95401 207.55570 335.98582
           X            0.99586  -0.09095   0.00008
           Y            0.09095   0.99586  -0.00017
           Z           -0.00007   0.00018   1.00000
 This molecule is an asymmetric top.
 Rotational symmetry number  1.
 Rotational temperatures (Kelvin)      0.61887     0.41730     0.25779
 Rotational constants (GHZ):          12.89525     8.69521     5.37148
 Zero-point vibrational energy     108997.8 (Joules/Mol)
                                   26.05110 (Kcal/Mol)
 Warning -- explicit consideration of   4 degrees of freedom as
           vibrations may cause significant error
 Vibrational temperatures:     15.46   484.49   512.68   846.36  1216.10
          (Kelvin)           1258.97  1412.12  1455.23  1542.89  1651.65
                             2055.31  2176.29  2645.48  4436.45  4509.33

 Zero-point correction=                           0.041515 (Hartree/Particle)
 Thermal correction to Energy=                    0.046426
 Thermal correction to Enthalpy=                  0.047370
 Thermal correction to Gibbs Free Energy=         0.011429
 Sum of electronic and zero-point Energies=           -191.381829
 Sum of electronic and thermal Energies=              -191.376918
 Sum of electronic and thermal Enthalpies=            -191.375974
 Sum of electronic and thermal Free Energies=         -191.411915

                     E (Thermal)             CV                S
                      KCal/Mol        Cal/Mol-Kelvin    Cal/Mol-Kelvin
 Total                   29.133             14.782             75.644
 Electronic               0.000              0.000              2.183
 Translational            0.889              2.981             38.294
 Rotational               0.889              2.981             23.794
 Vibrational             27.355              8.821             11.373
 Vibration     1          0.593              1.987              7.869
 Vibration     2          0.717              1.602              1.228
 Vibration     3          0.732              1.562              1.138
 Vibration     4          0.945              1.057              0.470

 Normal termination of Gaussian 09 at Sun Jun 19 02:09:02 2016.
