 Gaussian 09, Revision E.01,
 Gaussian 09:  EM64L-G09RevE.01 30-Nov-2015

 ------------------------------------------------------
 #p b3lyp/6-311++G(3df,2p) freq IOp(2/17=3) IOp(2/18=3)
 ------------------------------------------------------

 ---------
 b3lyp opt
 ---------
 Symbolic Z-matrix:
 Charge =  0 Multiplicity = 3

                         Standard orientation:
 ---------------------------------------------------------------------
 Center     Atomic      Atomic             Coordinates (Angstroms)
 Number     Number       Type             X           Y           Z
 ---------------------------------------------------------------------
      1          6           0       -0.906836   -1.303475    0.000000
      2          6           0        0.526164   -1.546228    0.000000
      3          6           0       -0.284402   -0.121179    0.000000
      4          6           0        0.000000    1.164458    0.000000
      5          6           0        0.316866    2.407167    0.000000
      6          1           0        1.044507   -1.802243    0.920730
      7          1           0        1.044507   -1.802243   -0.920730
 ---------------------------------------------------------------------

 SCF Done:  E(UB3LYP) =  -191.457737995     A.U. after   18 cycles

 The electronic state is 3-A".
 Alpha  occ. eigenvalues --  -10.28109 -10.27457 -10.26461 -10.22875 -10.21631
 Alpha  occ. eigenvalues --   -0.94980  -0.81142  -0.69781  -0.65590  -0.52202
 Alpha  occ. eigenvalues --   -0.47307  -0.45110  -0.38699  -0.34093  -0.30822
 Alpha  occ. eigenvalues --   -0.29179  -0.26282
 Alpha virt. eigenvalues --   -0.09818  -0.03905  -0.01453   0.01199   0.02494
 Alpha virt. eigenvalues --    0.02954   0.05862   0.06064   0.07056   0.07461
 Alpha virt. eigenvalues --    0.07504   0.08958   0.09547   0.11090   0.11523

  Beta  occ. eigenvalues --  -10.27908 -10.26024 -10.25969 -10.22121 -10.21381
  Beta  occ. eigenvalues --   -0.92902  -0.79369  -0.68039  -0.63595  -0.50585
  Beta  occ. eigenvalues --   -0.44388  -0.42321  -0.35882  -0.30108  -0.29390
  Beta virt. eigenvalues --   -0.19475  -0.16216  -0.05407  -0.02164  -0.01052
  Beta virt. eigenvalues --    0.01323   0.02878   0.03378   0.06015   0.06874
  Beta virt. eigenvalues --    0.07145   0.07943   0.08020   0.09154   0.10029

 Mulliken charges and spin densities:
               1          2
     1  C    0.110734   0.869296
     2  C   -0.463919   0.243546
     3  C   -0.052762   0.141138
     4  C    0.532457   0.290412
     5  C   -0.493975   0.390057
     6  H    0.183733   0.032776
     7  H    0.183733   0.032776
 Sum of Mulliken charges =  -0.00000   2.00000

 Dipole moment (field-independent basis, Debye):
    X=              1.0249    Y=             -4.2048    Z=             -0.0000  Tot=              4.3279
 Quadrupole moment (field-independent basis, Debye-Ang):
   XX=            -30.5163   YY=            -38.3243   ZZ=            -27.6737
   XY=             -4.8354   XZ=              0.0000   YZ=             -0.0000

  Exact polarizability:  52.684  10.446 111.270   0.000   0.000  40.543
 Approx polarizability:  86.768  39.889 228.735  -0.000   0.000  57.299

                      1                      2                      3
                     A"                     A'                     A"
 Frequencies --    151.9457               173.5843               387.1356
 Red. masses --      7.9784                 6.6667                 5.2664
 Frc consts  --      0.1085                 0.1184                 0.4650
 IR Inten    --     19.6311                 7.7422                 4.7133

                      4                      5                      6
                     A'                     A'                     A"
 Frequencies --    407.7502               529.1105               842.8872
 Red. masses --      5.9365                11.5416                 1.2097
 Frc consts  --      0.5815                 1.9037                 0.5064
 IR Inten    --      5.3010                 9.1477                 0.1029

                      7                      8                      9
                     A'                     A"                     A'
 Frequencies --    881.1625               919.1259               968.9119
 Red. masses --     10.4281                 1.2658                 1.3461
 Frc consts  --      4.7706                 0.6300                 0.7446
 IR Inten    --      5.4615                 0.8882                46.9134

                     10                     11                     12
                     A'                     A'                     A'
 Frequencies --   1085.9942              1432.1050              1558.3057
 Red. masses --      5.9285                 1.1365                 8.6209
 Frc consts  --      4.1195                 1.3734                12.3341
 IR Inten    --     37.6223                10.3766                41.0012

                     13                     14                     15
                     A'                     A'                     A"
 Frequencies --   1982.2832              3061.7716              3147.2686
 Red. masses --     11.9083                 1.0468                 1.1155
 Frc consts  --     27.5697                 5.7817                 6.5101
 IR Inten    --    348.9273                 0.8148                 0.0057

 - Thermochemistry -
 -------------------
 Temperature   298.150 Kelvin.  Pressure   1.00000 Atm.
 Atom     1 has atomic number  6 and mass  12.00000

 Molecular mass:    62.01565 amu.
 Principal axes and moments of inertia in atomic units:
                           1         2         3
     Eigenvalues --    65.53545 514.09639 567.42769
           X            0.08239   0.99660   0.00000
           Y            0.99660  -0.08239   0.00000
           Z            0.00000  -0.00000   1.00000
 This molecule is an asymmetric top.
 Rotational symmetry number  1.
 Rotational temperatures (Kelvin)      1.32163     0.16848     0.15264
 Rotational constants (GHZ):          27.53840     3.51051     3.18057
 Zero-point vibrational energy     104848.7 (Joules/Mol)
                                   25.05945 (Kcal/Mol)
 Warning -- explicit consideration of   5 degrees of freedom as
           vibrations may cause significant error
 Vibrational temperatures:    218.62   249.75   557.00   586.66   761.27
          (Kelvin)           1212.73  1267.79  1322.42  1394.05  1562.50
                             2060.48  2242.05  2852.06  4405.20  4528.21

 Zero-point correction=                           0.039935 (Hartree/Particle)
 Thermal correction to Energy=                    0.045092
 Thermal correction to Enthalpy=                  0.046036
 Thermal correction to Gibbs Free Energy=         0.011270
 Sum of electronic and zero-point Energies=           -191.417803
 Sum of electronic and thermal Energies=              -191.412646
 Sum of electronic and thermal Enthalpies=            -191.411702
 Sum of electronic and thermal Free Energies=         -191.446468

                     E (Thermal)             CV                S
                      KCal/Mol        Cal/Mol-Kelvin    Cal/Mol-Kelvin
 Total                   28.296             16.331             73.171
 Electronic               0.000              0.000              2.183
 Translational            0.889              2.981             38.294
 Rotational               0.889              2.981             24.462
 Vibrational             26.518             10.369              8.232
 Vibration     1          0.619              1.901              2.648
 Vibration     2          0.627              1.875              2.396
 Vibration     3          0.756              1.498              1.011
 Vibration     4          0.772              1.453              0.935
 Vibration     5          0.884              1.186              0.589

 Optimization completed.
    -- Stationary point found.
 Normal termination of Gaussian 09 at Thu Jan 31 04:44:10 2019.
