 Gaussian 09, Revision E.01,
 Gaussian 09:  EM64L-G09RevE.01 30-Nov-2015

 ---------------------------------------------
 #p b3lyp/6-311++G(3df,2p) freq symmetry=Loose
 ---------------------------------------------

 ---------
 b3lyp opt
 ---------
 Symbolic Z-matrix:
 Charge =  2 Multiplicity = 1

                         Standard orientation:
 ---------------------------------------------------------------------
 Center     Atomic      Atomic             Coordinates (Angstroms)
 Number     Number       Type             X           Y           Z
 ---------------------------------------------------------------------
      1          6           0       -0.000000    0.502514    0.000000
      2          6           0       -0.127553   -0.705202    0.781239
      3          6           0        0.146910   -1.771803   -0.000000
      4          6           0       -0.127553   -0.705202   -0.781239
      5          6           0        0.075184    1.872919    0.000000
      6          1           0        0.099233    2.420322   -0.946866
      7          1           0        0.099233    2.420322    0.946866
 ---------------------------------------------------------------------

 SCF Done:  E(RB3LYP) =  -190.528179809     A.U. after   17 cycles

 The electronic state is 1-A'.
 Alpha  occ. eigenvalues --  -10.84405 -10.84387 -10.82414 -10.80114 -10.73735
 Alpha  occ. eigenvalues --   -1.55949  -1.30296  -1.19090  -1.10034  -0.98616
 Alpha  occ. eigenvalues --   -0.98241  -0.96878  -0.89115  -0.86897  -0.78424
 Alpha virt. eigenvalues --   -0.72375  -0.62298  -0.57091  -0.52778  -0.42878
 Alpha virt. eigenvalues --   -0.33366  -0.32095  -0.29461  -0.27910  -0.27188
 Alpha virt. eigenvalues --   -0.27184  -0.24863  -0.23063  -0.21658  -0.21250

 Mulliken charges:
               1
     1  C    0.539082
     2  C    0.576962
     3  C   -0.018196
     4  C    0.576962
     5  C   -0.299377
     6  H    0.312283
     7  H    0.312283
 Sum of Mulliken charges =   2.00000

 Dipole moment (field-independent basis, Debye):
    X=             -0.3655    Y=              1.5098    Z=             -0.0000  Tot=              1.5534
 Quadrupole moment (field-independent basis, Debye-Ang):
   XX=            -22.9088   YY=              3.6392   ZZ=            -18.2394
   XY=              1.7225   XZ=              0.0000   YZ=             -0.0000

  Exact polarizability:  22.696  -0.986  91.267   0.000   0.000  34.272
 Approx polarizability:  36.397 -11.420 331.187  -0.000   0.000  76.372

                      1                      2                      3
                     A'                     A"                     A"
 Frequencies --    232.6874               317.5365               382.1873
 Red. masses --      6.3216                 1.9095                 2.0759
 Frc consts  --      0.2017                 0.1134                 0.1786
 IR Inten    --     16.1028                26.0768                 1.3871

                      4                      5                      6
                     A'                     A'                     A"
 Frequencies --    465.0315               693.1375               696.2067
 Red. masses --      8.6877                 8.0768                 2.8386
 Frc consts  --      1.1069                 2.2863                 0.8107
 IR Inten    --    127.2708                90.0808                 2.4220

                      7                      8                      9
                     A'                     A"                     A'
 Frequencies --    945.2552              1019.4822              1082.1162
 Red. masses --      5.2885                 1.5219                 1.9894
 Frc consts  --      2.7841                 0.9319                 1.3725
 IR Inten    --    213.2304                 1.4910               378.3717

                     10                     11                     12
                     A'                     A"                     A'
 Frequencies --   1113.7251              1228.1815              1416.6132
 Red. masses --      3.4491                11.0316                 1.1307
 Frc consts  --      2.5207                 9.8042                 1.3369
 IR Inten    --    433.3731                 0.0897                28.8137

                     13                     14                     15
                     A'                     A'                     A"
 Frequencies --   1575.6523              3043.2418              3153.2335
 Red. masses --     10.1640                 1.0538                 1.1250
 Frc consts  --     14.8674                 5.7501                 6.5907
 IR Inten    --     79.1418               186.9187               134.6467

 - Thermochemistry -
 -------------------
 Temperature   298.150 Kelvin.  Pressure   1.00000 Atm.
 Atom     1 has atomic number  6 and mass  12.00000

 Molecular mass:    62.01565 amu.
 Principal axes and moments of inertia in atomic units:
                           1         2         3
     Eigenvalues --    61.34434 381.75828 437.93882
           X            0.01132   0.00000   0.99994
           Y            0.99994   0.00000  -0.01132
           Z           -0.00000   1.00000  -0.00000
 This molecule is an asymmetric top.
 Rotational symmetry number  1.
 Rotational temperatures (Kelvin)      1.41193     0.22688     0.19778
 Rotational constants (GHZ):          29.41985     4.72744     4.12099
 Zero-point vibrational energy     103861.5 (Joules/Mol)
                                   24.82350 (Kcal/Mol)
 Warning -- explicit consideration of   4 degrees of freedom as
           vibrations may cause significant error
 Vibrational temperatures:    334.78   456.86   549.88   669.08   997.27
          (Kelvin)           1001.68  1360.01  1466.81  1556.92  1602.40
                             1767.08  2038.19  2267.01  4378.54  4536.79

 Zero-point correction=                           0.039559 (Hartree/Particle)
 Thermal correction to Energy=                    0.044265
 Thermal correction to Enthalpy=                  0.045209
 Thermal correction to Gibbs Free Energy=         0.012845
 Sum of electronic and zero-point Energies=           -190.488621
 Sum of electronic and thermal Energies=              -190.483915
 Sum of electronic and thermal Enthalpies=            -190.482971
 Sum of electronic and thermal Free Energies=         -190.515335

                     E (Thermal)             CV                S
                      KCal/Mol        Cal/Mol-Kelvin    Cal/Mol-Kelvin
 Total                   27.777             15.614             68.116
 Electronic               0.000              0.000              0.000
 Translational            0.889              2.981             38.294
 Rotational               0.889              2.981             23.843
 Vibrational             25.999              9.652              5.979
 Vibration     1          0.653              1.791              1.858
 Vibration     2          0.704              1.640              1.323
 Vibration     3          0.752              1.508              1.030
 Vibration     4          0.822              1.328              0.752

 Optimization completed.
    -- Stationary point found.
 Normal termination of Gaussian 09 at Tue Jul 19 04:55:31 2016.
