 Gaussian 09, Revision E.01,
 Gaussian 09:  EM64L-G09RevE.01 30-Nov-2015

 ---------------------------------------------
 #p b3lyp/6-311++G(3df,2p) freq symmetry=Loose
 ---------------------------------------------

 ---------
 b3lyp opt
 ---------
 Symbolic Z-matrix:
 Charge =  2 Multiplicity = 3

                         Standard orientation:
 ---------------------------------------------------------------------
 Center     Atomic      Atomic             Coordinates (Angstroms)
 Number     Number       Type             X           Y           Z
 ---------------------------------------------------------------------
      1          6           0       -1.330686    0.088089   -0.000000
      2          6           0       -0.000000    0.769129    0.000000
      3          6           0        1.345417    0.711939    0.000000
      4          6           0        0.928310   -0.584731    0.000000
      5          6           0       -0.300412   -1.049508   -0.000000
      6          1           0       -1.927883    0.195247    0.921364
      7          1           0       -1.927883    0.195247   -0.921364
 ---------------------------------------------------------------------

 SCF Done:  E(UB3LYP) =  -190.525577952     A.U. after   17 cycles

 The electronic state is 3-A".
 Alpha  occ. eigenvalues --  -10.86051 -10.83631 -10.83359 -10.83208 -10.76153
 Alpha  occ. eigenvalues --   -1.55052  -1.34483  -1.24326  -1.07745  -1.01347
 Alpha  occ. eigenvalues --   -1.01317  -0.99217  -0.93610  -0.90272  -0.82993
 Alpha  occ. eigenvalues --   -0.79894
 Alpha virt. eigenvalues --   -0.64999  -0.60068  -0.53034  -0.48470  -0.38779
 Alpha virt. eigenvalues --   -0.35806  -0.29908  -0.29875  -0.28333  -0.27108
 Alpha virt. eigenvalues --   -0.25108  -0.25050  -0.24108  -0.21736  -0.21262

  Beta  occ. eigenvalues --  -10.85559 -10.83285 -10.81544 -10.81516 -10.76291
  Beta  occ. eigenvalues --   -1.53531  -1.32654  -1.22119  -1.06725  -0.99491
  Beta  occ. eigenvalues --   -0.98645  -0.98164  -0.88820  -0.88408
  Beta virt. eigenvalues --   -0.67337  -0.67128  -0.61403  -0.56334  -0.51793
  Beta virt. eigenvalues --   -0.42642  -0.37966  -0.35111  -0.29728  -0.29216
  Beta virt. eigenvalues --   -0.28236  -0.25805  -0.24748  -0.24400  -0.23566

 Mulliken charges and spin densities:
               1          2
     1  C   -0.374463  -0.039172
     2  C    0.391245   0.152549
     3  C    0.658381   1.101082
     4  C    0.285349  -0.222471
     5  C    0.412548   1.007829
     6  H    0.313470   0.000092
     7  H    0.313470   0.000092
 Sum of Mulliken charges =   2.00000   2.00000

 Dipole moment (field-independent basis, Debye):
    X=             -1.0681    Y=             -0.0412    Z=              0.0000  Tot=              1.0689
 Quadrupole moment (field-independent basis, Debye-Ang):
   XX=             -6.5288   YY=            -16.4260   ZZ=            -21.1255
   XY=              0.1666   XZ=             -0.0000   YZ=              0.0000

  Exact polarizability:  48.527   5.182  38.619   0.000  -0.000  23.577
 Approx polarizability:  98.378  17.490  92.521  -0.000   0.000  35.425

                      1                      2                      3
                     A"                     A'                     A"
 Frequencies --    199.1363               365.8228               413.2753
 Red. masses --      3.2508                10.6196                 6.8692
 Frc consts  --      0.0760                 0.8373                 0.6913
 IR Inten    --      6.1245                 5.1365                 0.3563

                      4                      5                      6
                     A'                     A'                     A"
 Frequencies --    518.5674               663.0403               864.2671
 Red. masses --      9.2337                10.1724                 1.4627
 Frc consts  --      1.4630                 2.6348                 0.6437
 IR Inten    --      3.8187                 5.3781                 3.6315

                      7                      8                      9
                     A'                     A"                     A'
 Frequencies --    946.0090              1024.5065              1131.1722
 Red. masses --      6.9233                 1.1358                 1.2171
 Frc consts  --      3.6505                 0.7024                 0.9176
 IR Inten    --      7.1918                 0.0908                29.0557

                     10                     11                     12
                     A'                     A'                     A'
 Frequencies --   1212.8227              1324.2669              1527.4489
 Red. masses --     10.6431                 1.1119                 8.5842
 Frc consts  --      9.2239                 1.1488                11.8000
 IR Inten    --      8.4133                60.0884                26.1791

                     13                     14                     15
                     A'                     A'                     A"
 Frequencies --   1579.5584              2950.0057              3014.7774
 Red. masses --     10.4968                 1.0530                 1.1133
 Frc consts  --     15.4305                 5.3991                 5.9618
 IR Inten    --     37.5944               281.3056               181.3000

 - Thermochemistry -
 -------------------
 Temperature   298.150 Kelvin.  Pressure   1.00000 Atm.
 Atom     1 has atomic number  6 and mass  12.00000

 Molecular mass:    62.01565 amu.
 Principal axes and moments of inertia in atomic units:
                           1         2         3
     Eigenvalues --   110.78847 231.11056 329.67806
           X            0.97967  -0.20063   0.00000
           Y            0.20063   0.97967   0.00000
           Z           -0.00000   0.00000   1.00000
 This molecule is an asymmetric top.
 Rotational symmetry number  1.
 Rotational temperatures (Kelvin)      0.78179     0.37477     0.26272
 Rotational constants (GHZ):          16.28997     7.80899     5.47425
 Zero-point vibrational energy     106076.9 (Joules/Mol)
                                   25.35299 (Kcal/Mol)
 Warning -- explicit consideration of   4 degrees of freedom as
           vibrations may cause significant error
 Vibrational temperatures:    286.51   526.34   594.61   746.10   953.97
          (Kelvin)           1243.49  1361.09  1474.03  1627.50  1744.98
                             1905.32  2197.66  2272.63  4244.39  4337.59

 Zero-point correction=                           0.040403 (Hartree/Particle)
 Thermal correction to Energy=                    0.044974
 Thermal correction to Enthalpy=                  0.045918
 Thermal correction to Gibbs Free Energy=         0.012779
 Sum of electronic and zero-point Energies=           -190.485175
 Sum of electronic and thermal Energies=              -190.480604
 Sum of electronic and thermal Enthalpies=            -190.479660
 Sum of electronic and thermal Free Energies=         -190.512798

                     E (Thermal)             CV                S
                      KCal/Mol        Cal/Mol-Kelvin    Cal/Mol-Kelvin
 Total                   28.221             14.952             69.746
 Electronic               0.000              0.000              2.183
 Translational            0.889              2.981             38.294
 Rotational               0.889              2.981             23.650
 Vibrational             26.444              8.990              5.619
 Vibration     1          0.637              1.841              2.141
 Vibration     2          0.739              1.543              1.097
 Vibration     3          0.777              1.441              0.915
 Vibration     4          0.874              1.209              0.613

 Optimization completed.
    -- Stationary point found.
 Normal termination of Gaussian 09 at Tue Jul 19 08:25:33 2016.
