 Gaussian 09, Revision E.01,
 Gaussian 09:  EM64L-G09RevE.01 30-Nov-2015

 ------------------------------------------------------
 #p b3lyp/6-311++G(3df,2p) freq IOp(2/17=3) IOp(2/18=3)
 ------------------------------------------------------

 ---------
 b3lyp opt
 ---------
 Symbolic Z-matrix:
 Charge =  1 Multiplicity = 2

                         Standard orientation:
 ---------------------------------------------------------------------
 Center     Atomic      Atomic             Coordinates (Angstroms)
 Number     Number       Type             X           Y           Z
 ---------------------------------------------------------------------
      1          6           0        0.000000   -1.786469   -0.854312
      2          6           0        0.000000   -0.695232   -0.076552
      3          6           0       -0.000000    0.000000    1.258122
      4          6           0        0.000000    0.695232   -0.076552
      5          6           0        0.000000    1.786469   -0.854312
      6          1           0        0.934652   -0.000000    1.810819
      7          1           0       -0.934652    0.000000    1.810819
 ---------------------------------------------------------------------

 SCF Done:  E(UB3LYP) =  -191.080108040     A.U. after   16 cycles

 The electronic state is 2-A2.
 Alpha  occ. eigenvalues --  -10.54928 -10.54926 -10.50877 -10.50823 -10.50575
 Alpha  occ. eigenvalues --   -1.19920  -1.03261  -1.00793  -0.85469  -0.75004
 Alpha  occ. eigenvalues --   -0.67432  -0.67283  -0.60738  -0.57488  -0.56411
 Alpha  occ. eigenvalues --   -0.55051
 Alpha virt. eigenvalues --   -0.40404  -0.35326  -0.33321  -0.19382  -0.17416
 Alpha virt. eigenvalues --   -0.14012  -0.12396  -0.11938  -0.09615  -0.09078
 Alpha virt. eigenvalues --   -0.07389  -0.06731  -0.06134  -0.04744  -0.04337

  Beta  occ. eigenvalues --  -10.54337 -10.54336 -10.50680 -10.50619 -10.50609
  Beta  occ. eigenvalues --   -1.19580  -1.00915  -0.99184  -0.85429  -0.74447
  Beta  occ. eigenvalues --   -0.67172  -0.66793  -0.57735  -0.56513  -0.55430
  Beta virt. eigenvalues --   -0.45041  -0.39699  -0.34664  -0.29195  -0.17295
  Beta virt. eigenvalues --   -0.16239  -0.13848  -0.12190  -0.11864  -0.09570
  Beta virt. eigenvalues --   -0.08760  -0.07086  -0.06675  -0.05684  -0.04706

 Mulliken charges and spin densities:
               1          2
     1  C   -0.275680   0.300985
     2  C    0.753477   0.208482
     3  C   -0.445296  -0.001541
     4  C    0.753477   0.208482
     5  C   -0.275680   0.300985
     6  H    0.244851  -0.008697
     7  H    0.244851  -0.008697
 Sum of Mulliken charges =   1.00000   1.00000

 Dipole moment (field-independent basis, Debye):
    X=              0.0000    Y=              0.0000    Z=              2.2497  Tot=              2.2497
 Quadrupole moment (field-independent basis, Debye-Ang):
   XX=            -24.6682   YY=            -24.2411   ZZ=            -20.2527
   XY=             -0.0000   XZ=              0.0000   YZ=             -0.0000

  Exact polarizability:  35.227  -0.000  75.416  -0.000   0.000  49.147
 Approx polarizability:  49.253   0.000 163.578   0.000   0.000  84.034

                      1                      2                      3
                     A1                     B2                     B1
 Frequencies --     58.5774               154.0643               176.7024
 Red. masses --     10.9589                 6.5772                 5.8195
 Frc consts  --      0.0222                 0.0920                 0.1071
 IR Inten    --      8.9338                 7.0915                 3.7584

                      4                      5                      6
                     A2                     B2                     A1
 Frequencies --    254.3909               562.8573               895.8007
 Red. masses --      4.8581                 9.8479                10.7056
 Frc consts  --      0.1852                 1.8382                 5.0615
 IR Inten    --      0.0000                19.9567                 1.6884

                      7                      8                      9
                     A1                     A2                     B1
 Frequencies --    943.3653               954.3418               996.8145
 Red. masses --      6.8585                 1.1738                 1.2544
 Frc consts  --      3.5961                 0.6299                 0.7344
 IR Inten    --      0.0631                 0.0000                 0.1511

                     10                     11                     12
                     B2                     B2                     A1
 Frequencies --   1063.3936              1412.7699              1445.5234
 Red. masses --      1.2413                 9.5463                 1.0942
 Frc consts  --      0.8270                11.2261                 1.3471
 IR Inten    --      0.1230               785.7323                 0.4766

                     13                     14                     15
                     A1                     A1                     B1
 Frequencies --   1797.8642              3087.3830              3200.2328
 Red. masses --     11.1693                 1.0478                 1.1227
 Frc consts  --     21.2712                 5.8845                 6.7742
 IR Inten    --    185.9442                33.5961                38.8244

 - Thermochemistry -
 -------------------
 Temperature   298.150 Kelvin.  Pressure   1.00000 Atm.
 Atom     1 has atomic number  6 and mass  12.00000

 Molecular mass:    62.01565 amu.
 Principal axes and moments of inertia in atomic units:
                           1         2         3
     Eigenvalues --   160.03200 321.24028 468.69627
           X            0.00000   0.00000   1.00000
           Y            1.00000   0.00000  -0.00000
           Z           -0.00000   1.00000   0.00000
 This molecule is an asymmetric top.
 Rotational symmetry number  2.
 Rotational temperatures (Kelvin)      0.54123     0.26962     0.18480
 Rotational constants (GHZ):          11.27738     5.61804     3.85056
 Zero-point vibrational energy     101707.0 (Joules/Mol)
                                   24.30855 (Kcal/Mol)
 Warning -- explicit consideration of   5 degrees of freedom as
           vibrations may cause significant error
 Vibrational temperatures:     84.28   221.66   254.24   366.01   809.83
          (Kelvin)           1288.86  1357.29  1373.08  1434.19  1529.98
                             2032.66  2079.78  2586.72  4442.05  4604.42

 Zero-point correction=                           0.038738 (Hartree/Particle)
 Thermal correction to Energy=                    0.044509
 Thermal correction to Enthalpy=                  0.045454
 Thermal correction to Gibbs Free Energy=         0.009692
 Sum of electronic and zero-point Energies=           -191.041370
 Sum of electronic and thermal Energies=              -191.035599
 Sum of electronic and thermal Enthalpies=            -191.034654
 Sum of electronic and thermal Free Energies=         -191.070416

                     E (Thermal)             CV                S
                      KCal/Mol        Cal/Mol-Kelvin    Cal/Mol-Kelvin
 Total                   27.930             16.862             75.267
 Electronic               0.000              0.000              1.377
 Translational            0.889              2.981             38.294
 Rotational               0.889              2.981             23.314
 Vibrational             26.153             10.901             12.281
 Vibration     1          0.596              1.974              4.505
 Vibration     2          0.620              1.898              2.621
 Vibration     3          0.628              1.871              2.363
 Vibration     4          0.665              1.755              1.700
 Vibration     5          0.919              1.112              0.518

 Normal termination of Gaussian 09 at Thu Jan 31 04:41:48 2019.
