 Gaussian 09, Revision E.01,
 Gaussian 09:  EM64L-G09RevE.01 30-Nov-2015

 ---------------------------------------------
 #p b3lyp/6-311++G(3df,2p) freq symmetry=Loose
 ---------------------------------------------

 ---------
 b3lyp opt
 ---------
 Symbolic Z-matrix:
 Charge =  2 Multiplicity = 1

                         Standard orientation:
 ---------------------------------------------------------------------
 Center     Atomic      Atomic             Coordinates (Angstroms)
 Number     Number       Type             X           Y           Z
 ---------------------------------------------------------------------
      1          6           0       -0.000000    0.670518    0.000000
      2          6           0        0.800370   -0.521357   -0.000000
      3          6           0        0.001136   -1.635256   -0.000000
      4          6           0       -0.799506   -0.522297   -0.000000
      5          6           0       -0.001694    1.954028    0.000000
      6          1           0       -0.003392    3.052636    0.000000
      7          1           0        0.001558   -2.726445   -0.000000
 ---------------------------------------------------------------------

 SCF Done:  E(RB3LYP) =  -190.615169126     A.U. after   12 cycles

 The electronic state is 1-A'.
 Alpha  occ. eigenvalues --  -10.82890 -10.79656 -10.79639 -10.77888 -10.76557
 Alpha  occ. eigenvalues --   -1.51763  -1.32309  -1.18242  -1.07016  -1.05180
 Alpha  occ. eigenvalues --   -0.98563  -0.95091  -0.94309  -0.80397  -0.79108
 Alpha virt. eigenvalues --   -0.67444  -0.57185  -0.57178  -0.50443  -0.38924
 Alpha virt. eigenvalues --   -0.35735  -0.32114  -0.30340  -0.28375  -0.27697
 Alpha virt. eigenvalues --   -0.26551  -0.23772  -0.21990  -0.20905  -0.20583

 Mulliken charges:
               1
     1  C   -0.283241
     2  C    1.223615
     3  C   -0.651127
     4  C    1.220516
     5  C   -0.369408
     6  H    0.466748
     7  H    0.392896
 Sum of Mulliken charges =   2.00000

 Dipole moment (field-independent basis, Debye):
    X=             -0.0030    Y=              2.5940    Z=              0.0000  Tot=              2.5940
 Quadrupole moment (field-independent basis, Debye-Ang):
   XX=            -21.6992   YY=             15.4748   ZZ=            -23.8788
   XY=             -0.0310   XZ=              0.0000   YZ=              0.0000

  Exact polarizability:  35.124  -0.026  64.951   0.000   0.000  22.253
 Approx polarizability:  93.389  -0.028 128.088  -0.000   0.000  33.258

                      1                      2                      3
                     A'                     A"                     A"
 Frequencies --    211.3650               247.0922               544.0831
 Red. masses --      3.0907                 4.0003                10.1786
 Frc consts  --      0.0814                 0.1439                 1.7753
 IR Inten    --     23.3872                19.6765                 0.0235

                      4                      5                      6
                     A"                     A'                     A'
 Frequencies --    592.8554               617.2853               706.6327
 Red. masses --      1.2287                 7.0376                 8.8093
 Frc consts  --      0.2544                 1.5800                 2.5917
 IR Inten    --     63.3730                34.9720                 0.0477

                      7                      8                      9
                     A"                     A'                     A'
 Frequencies --    831.3024               979.6664               996.0693
 Red. masses --      1.2260                 1.5319                 8.4634
 Frc consts  --      0.4992                 0.8662                 4.9474
 IR Inten    --     16.3885                 2.4965                15.3091

                     10                     11                     12
                     A'                     A'                     A'
 Frequencies --   1007.0747              1155.5745              1544.6195
 Red. masses --      1.3189                 4.9376                 6.3792
 Frc consts  --      0.7881                 3.8847                 8.9673
 IR Inten    --     15.2059                 9.1155               170.3418

                     13                     14                     15
                     A'                     A'                     A'
 Frequencies --   1838.0551              3105.8832              3163.9844
 Red. masses --      7.2766                 1.1407                 1.1290
 Frc consts  --     14.4841                 6.4830                 6.6592
 IR Inten    --     96.5204               484.9182               233.6241

 - Thermochemistry -
 -------------------
 Temperature   298.150 Kelvin.  Pressure   1.00000 Atm.
 Atom     1 has atomic number  6 and mass  12.00000

 Molecular mass:    62.01565 amu.
 Principal axes and moments of inertia in atomic units:
                           1         2         3
     Eigenvalues --    54.84306 381.10190 435.94496
           X           -0.00080   1.00000   0.00000
           Y            1.00000   0.00080   0.00000
           Z            0.00000   0.00000   1.00000
 This molecule is an asymmetric top.
 Rotational symmetry number  1.
 Rotational temperatures (Kelvin)      1.57930     0.22727     0.19868
 Rotational constants (GHZ):          32.90737     4.73559     4.13984
 Zero-point vibrational energy     104921.7 (Joules/Mol)
                                   25.07689 (Kcal/Mol)
 Warning -- explicit consideration of   5 degrees of freedom as
           vibrations may cause significant error
 Vibrational temperatures:    304.11   355.51   782.81   852.99   888.13
          (Kelvin)           1016.69  1196.06  1409.52  1433.12  1448.95
                             1662.61  2222.36  2644.55  4468.67  4552.26

 Zero-point correction=                           0.039963 (Hartree/Particle)
 Thermal correction to Energy=                    0.044655
 Thermal correction to Enthalpy=                  0.045599
 Thermal correction to Gibbs Free Energy=         0.013256
 Sum of electronic and zero-point Energies=           -190.575207
 Sum of electronic and thermal Energies=              -190.570514
 Sum of electronic and thermal Enthalpies=            -190.569570
 Sum of electronic and thermal Free Energies=         -190.601914

                     E (Thermal)             CV                S
                      KCal/Mol        Cal/Mol-Kelvin    Cal/Mol-Kelvin
 Total                   28.022             15.638             68.073
 Electronic               0.000              0.000              0.000
 Translational            0.889              2.981             38.294
 Rotational               0.889              2.981             23.725
 Vibrational             26.244              9.676              6.054
 Vibration     1          0.643              1.824              2.032
 Vibration     2          0.661              1.768              1.751
 Vibration     3          0.899              1.153              0.557
 Vibration     4          0.950              1.047              0.462
 Vibration     5          0.977              0.995              0.421

 Optimization completed.
    -- Stationary point found.
 Normal termination of Gaussian 09 at Tue Jul 19 05:39:22 2016.
