 Gaussian 09, Revision E.01,
 Gaussian 09:  EM64L-G09RevE.01 30-Nov-2015

 ---------------------------------------------
 #p b3lyp/6-311++G(3df,2p) freq symmetry=Loose
 ---------------------------------------------

 ---------
 b3lyp opt
 ---------
 Symbolic Z-matrix:
 Charge =  1 Multiplicity = 4

                         Standard orientation:
 ---------------------------------------------------------------------
 Center     Atomic      Atomic             Coordinates (Angstroms)
 Number     Number       Type             X           Y           Z
 ---------------------------------------------------------------------
      1          6           0       -0.980162    1.752839    0.000000
      2          6           0        0.000000    1.000856    0.000000
      3          6           0        1.010537    0.060981    0.000000
      4          6           0        0.339395   -1.130514   -0.000000
      5          6           0       -0.416006   -2.127810   -0.000000
      6          1           0       -1.801975    2.439274    0.000000
      7          1           0        2.079392    0.222618    0.000000
 ---------------------------------------------------------------------

 SCF Done:  E(UB3LYP) =  -191.131590710     A.U. after   20 cycles

 The electronic state is 4-A".
 Alpha  occ. eigenvalues --  -10.52684 -10.48630 -10.46973 -10.46839 -10.46648
 Alpha  occ. eigenvalues --   -1.10812  -1.03741  -0.98588  -0.80288  -0.76404
 Alpha  occ. eigenvalues --   -0.74479  -0.65638  -0.63516  -0.58463  -0.56281
 Alpha  occ. eigenvalues --   -0.55231  -0.46493
 Alpha virt. eigenvalues --   -0.26896  -0.21994  -0.19336  -0.15440  -0.14493
 Alpha virt. eigenvalues --   -0.12245  -0.10999  -0.10021  -0.09037  -0.07195
 Alpha virt. eigenvalues --   -0.06770  -0.05414  -0.05178  -0.04737  -0.04621

  Beta  occ. eigenvalues --  -10.49257 -10.48491 -10.46802 -10.46044 -10.45572
  Beta  occ. eigenvalues --   -1.08656  -0.99890  -0.94375  -0.78942  -0.75052
  Beta  occ. eigenvalues --   -0.73508  -0.60507  -0.53184  -0.52609
  Beta virt. eigenvalues --   -0.44349  -0.41800  -0.34592  -0.22447  -0.18706
  Beta virt. eigenvalues --   -0.15467  -0.14900  -0.12002  -0.11844  -0.10249
  Beta virt. eigenvalues --   -0.09376  -0.07370  -0.06614  -0.05744  -0.04872

 Mulliken charges and spin densities:
               1          2
     1  C    0.491494   0.671806
     2  C   -0.122180   0.014848
     3  C   -0.665009   0.686039
     4  C    0.437799   0.031007
     5  C    0.225774   1.645249
     6  H    0.378277  -0.019392
     7  H    0.253844  -0.029557
 Sum of Mulliken charges =   1.00000   3.00000

 Dipole moment (field-independent basis, Debye):
    X=             -0.6922    Y=              0.3908    Z=              0.0000  Tot=              0.7949
 Quadrupole moment (field-independent basis, Debye-Ang):
   XX=            -16.3458   YY=             -8.2019   ZZ=            -27.7479
   XY=             -3.9852   XZ=             -0.0000   YZ=              0.0000

  Exact polarizability:  49.343 -12.423 110.495   0.000   0.000  29.652
 Approx polarizability:  87.757 -29.142 255.087   0.000   0.000  39.775

                      1                      2                      3
                     A'                     A'                     A"
 Frequencies --    127.9751               343.1507               345.0910
 Red. masses --      5.9112                 5.8450                 6.0526
 Frc consts  --      0.0570                 0.4055                 0.4247
 IR Inten    --      0.5760                 9.2551                 5.5744

                      4                      5                      6
                     A"                     A'                     A"
 Frequencies --    376.2717               513.6420               544.4254
 Red. masses --      2.4764                 8.0371                 1.9083
 Frc consts  --      0.2066                 1.2493                 0.3333
 IR Inten    --     16.2082                 4.2176                 6.8887

                      7                      8                      9
                     A"                     A'                     A'
 Frequencies --    562.1196               728.1685              1039.1212
 Red. masses --      1.2560                 1.3136                 2.4201
 Frc consts  --      0.2338                 0.4104                 1.5396
 IR Inten    --     56.7502                17.6253                 0.4385

                     10                     11                     12
                     A'                     A'                     A'
 Frequencies --   1081.9203              1272.4930              1713.6283
 Red. masses --      5.3634                 1.7743                 9.6219
 Frc consts  --      3.6990                 1.6927                16.6473
 IR Inten    --      1.8005                20.8678               980.3119

                     13                     14                     15
                     A'                     A'                     A'
 Frequencies --   2006.9613              3204.3588              3370.8788
 Red. masses --      7.7810                 1.0948                 1.1380
 Frc consts  --     18.4656                 6.6229                 7.6185
 IR Inten    --     42.1725                65.5830               128.7215

 - Thermochemistry -
 -------------------
 Temperature   298.150 Kelvin.  Pressure   1.00000 Atm.
 Atom     1 has atomic number  6 and mass  12.00000

 Molecular mass:    62.01565 amu.
 Principal axes and moments of inertia in atomic units:
                           1         2         3
     Eigenvalues --   112.32340 456.92969 569.25309
           X           -0.18818   0.98214   0.00000
           Y            0.98214   0.18818   0.00000
           Z           -0.00000  -0.00000   1.00000
 This molecule is an asymmetric top.
 Rotational symmetry number  1.
 Rotational temperatures (Kelvin)      0.77111     0.18956     0.15215
 Rotational constants (GHZ):          16.06737     3.94971     3.17037
 Zero-point vibrational energy     103059.5 (Joules/Mol)
                                   24.63182 (Kcal/Mol)
 Warning -- explicit consideration of   7 degrees of freedom as
           vibrations may cause significant error
 Vibrational temperatures:    184.13   493.72   496.51   541.37   739.02
          (Kelvin)            783.31   808.76  1047.67  1495.06  1556.64
                             1830.83  2465.53  2887.57  4610.35  4849.94

 Zero-point correction=                           0.039253 (Hartree/Particle)
 Thermal correction to Energy=                    0.044602
 Thermal correction to Enthalpy=                  0.045546
 Thermal correction to Gibbs Free Energy=         0.010146
 Sum of electronic and zero-point Energies=           -191.092337
 Sum of electronic and thermal Energies=              -191.086989
 Sum of electronic and thermal Enthalpies=            -191.086044
 Sum of electronic and thermal Free Energies=         -191.121445

                     E (Thermal)             CV                S
                      KCal/Mol        Cal/Mol-Kelvin    Cal/Mol-Kelvin
 Total                   27.988             17.684             74.507
 Electronic               0.000              0.000              2.755
 Translational            0.889              2.981             38.294
 Rotational               0.889              2.981             24.883
 Vibrational             26.211             11.722              8.575
 Vibration     1          0.611              1.925              2.976
 Vibration     2          0.722              1.589              1.197
 Vibration     3          0.723              1.585              1.189
 Vibration     4          0.747              1.521              1.054
 Vibration     5          0.869              1.220              0.625
 Vibration     6          0.900              1.152              0.556
 Vibration     7          0.918              1.113              0.520

 Optimization completed.
    -- Stationary point found.
 Normal termination of Gaussian 09 at Tue Jul 19 09:19:05 2016.
