 Gaussian 09, Revision E.01,
 Gaussian 09:  EM64L-G09RevE.01 30-Nov-2015

 ---------------------------------------------
 #p b3lyp/6-311++G(3df,2p) freq symmetry=Loose
 ---------------------------------------------

 ---------
 b3lyp opt
 ---------
 Symbolic Z-matrix:
 Charge =  1 Multiplicity = 4

                         Standard orientation:
 ---------------------------------------------------------------------
 Center     Atomic      Atomic             Coordinates (Angstroms)
 Number     Number       Type             X           Y           Z
 ---------------------------------------------------------------------
      1          6           0       -1.096007   -0.571650   -0.000000
      2          6           0       -0.000000    0.331928   -0.000000
      3          6           0        1.396284    0.552438    0.000000
      4          6           0        0.551633    1.582478   -0.000000
      5          6           0       -0.897095   -1.885436    0.000000
      6          1           0        2.374039    0.091989    0.000000
      7          1           0       -2.102927   -0.150529   -0.000000
 ---------------------------------------------------------------------

 SCF Done:  E(UB3LYP) =  -191.105254515     A.U. after   15 cycles

 The electronic state is 4-A'.
 Alpha  occ. eigenvalues --  -10.51923 -10.51304 -10.50309 -10.49875 -10.44612
 Alpha  occ. eigenvalues --   -1.21652  -1.04900  -0.87694  -0.83682  -0.76418
 Alpha  occ. eigenvalues --   -0.70175  -0.66606  -0.66497  -0.61404  -0.54113
 Alpha  occ. eigenvalues --   -0.54059  -0.46602
 Alpha virt. eigenvalues --   -0.32809  -0.27414  -0.17635  -0.14708  -0.13880
 Alpha virt. eigenvalues --   -0.11987  -0.10941  -0.10112  -0.08836  -0.06889
 Alpha virt. eigenvalues --   -0.06244  -0.05773  -0.04936  -0.03778  -0.03701

  Beta  occ. eigenvalues --  -10.51489 -10.50174 -10.49746 -10.46261 -10.44564
  Beta  occ. eigenvalues --   -1.20500  -1.02202  -0.84766  -0.81206  -0.73263
  Beta  occ. eigenvalues --   -0.66149  -0.65916  -0.63728  -0.52429
  Beta virt. eigenvalues --   -0.39869  -0.38828  -0.30338  -0.27183  -0.25276
  Beta virt. eigenvalues --   -0.16130  -0.14293  -0.13480  -0.11255  -0.10353
  Beta virt. eigenvalues --   -0.10138  -0.08183  -0.05916  -0.05748  -0.04775

 Mulliken charges and spin densities:
               1          2
     1  C   -0.033168  -0.215792
     2  C    0.317812   0.121126
     3  C    0.232518  -0.013176
     4  C    0.026725   0.822221
     5  C   -0.072127   2.205870
     6  H    0.312825   0.004985
     7  H    0.215415   0.074766
 Sum of Mulliken charges =   1.00000   3.00000

 Dipole moment (field-independent basis, Debye):
    X=              1.3639    Y=             -0.1417    Z=              0.0000  Tot=              1.3713
 Quadrupole moment (field-independent basis, Debye-Ang):
   XX=            -14.0906   YY=            -18.5591   ZZ=            -26.2640
   XY=              3.2869   XZ=             -0.0000   YZ=              0.0000

  Exact polarizability:  49.871  11.214  60.746  -0.002   0.001  29.045
 Approx polarizability:  74.026  14.814 108.816   0.000  -0.000  41.772

                      1                      2                      3
                     A"                     A'                     A"
 Frequencies --    114.9314               242.3373               421.4567
 Red. masses --      4.2581                 5.4034                 2.9925
 Frc consts  --      0.0331                 0.1870                 0.3132
 IR Inten    --      3.6193                 4.6322                 8.0411

                      4                      5                      6
                     A'                     A"                     A'
 Frequencies --    570.3173               753.6511               806.6572
 Red. masses --      7.3104                 1.7134                 3.3246
 Frc consts  --      1.4010                 0.5734                 1.2746
 IR Inten    --      1.1981                10.8353                 1.0728

                      7                      8                      9
                     A"                     A'                     A'
 Frequencies --    892.9595               977.8978              1152.7895
 Red. masses --      1.4165                 1.4680                 5.6779
 Frc consts  --      0.6655                 0.8271                 4.4457
 IR Inten    --     26.3244                20.4800                71.2026

                     10                     11                     12
                     A'                     A'                     A'
 Frequencies --   1268.7633              1413.3114              1507.8617
 Red. masses --      1.2392                 9.0555                10.0353
 Frc consts  --      1.1753                10.6571                13.4432
 IR Inten    --      9.1493               210.8855                39.5945

                     13                     14                     15
                     A'                     A'                     A'
 Frequencies --   1734.3985              3065.5386              3243.9142
 Red. masses --      8.6247                 1.0850                 1.1187
 Frc consts  --     15.2860                 6.0075                 6.9361
 IR Inten    --     88.0929                27.4832                85.3130

 - Thermochemistry -
 -------------------
 Temperature   298.150 Kelvin.  Pressure   1.00000 Atm.
 Atom     1 has atomic number  6 and mass  12.00000

 Molecular mass:    62.01565 amu.
 Principal axes and moments of inertia in atomic units:
                           1         2         3
     Eigenvalues --    79.61761 430.69221 510.30982
           X            0.62952   0.77699   0.00000
           Y            0.77699  -0.62952   0.00000
           Z            0.00000   0.00000   1.00000
 This molecule is an asymmetric top.
 Rotational symmetry number  1.
 Rotational temperatures (Kelvin)      1.08787     0.20110     0.16973
 Rotational constants (GHZ):          22.66761     4.19033     3.53656
 Zero-point vibrational energy     108661.5 (Joules/Mol)
                                   25.97072 (Kcal/Mol)
 Warning -- explicit consideration of   4 degrees of freedom as
           vibrations may cause significant error
 Vibrational temperatures:    165.36   348.67   606.38   820.56  1084.33
          (Kelvin)           1160.60  1284.77  1406.98  1658.60  1825.47
                             2033.44  2169.47  2495.41  4410.62  4667.26

 Zero-point correction=                           0.041387 (Hartree/Particle)
 Thermal correction to Energy=                    0.046201
 Thermal correction to Enthalpy=                  0.047145
 Thermal correction to Gibbs Free Energy=         0.012654
 Sum of electronic and zero-point Energies=           -191.063868
 Sum of electronic and thermal Energies=              -191.059054
 Sum of electronic and thermal Enthalpies=            -191.058109
 Sum of electronic and thermal Free Energies=         -191.092601

                     E (Thermal)             CV                S
                      KCal/Mol        Cal/Mol-Kelvin    Cal/Mol-Kelvin
 Total                   28.992             15.083             72.593
 Electronic               0.000              0.000              2.755
 Translational            0.889              2.981             38.294
 Rotational               0.889              2.981             24.374
 Vibrational             27.214              9.122              7.171
 Vibration     1          0.608              1.937              3.184
 Vibration     2          0.659              1.775              1.786
 Vibration     3          0.784              1.424              0.887
 Vibration     4          0.926              1.095              0.504

 Optimization completed.
    -- Stationary point found.
 Normal termination of Gaussian 09 at Tue Jul 19 08:24:10 2016.
