 Gaussian 09, Revision E.01,
 Gaussian 09:  EM64L-G09RevE.01 30-Nov-2015

 ---------------------------------------------
 #p b3lyp/6-311++G(3df,2p) freq symmetry=Loose
 ---------------------------------------------

 ---------
 b3lyp opt
 ---------
 Symbolic Z-matrix:
 Charge =  2 Multiplicity = 1

                         Standard orientation:
 ---------------------------------------------------------------------
 Center     Atomic      Atomic             Coordinates (Angstroms)
 Number     Number       Type             X           Y           Z
 ---------------------------------------------------------------------
      1          6           0        0.288016   -0.801982    0.000000
      2          6           0        0.122202    0.444849    0.780939
      3          6           0        0.000000    1.550310   -0.000000
      4          6           0        0.122202    0.444849   -0.780939
      5          6           0       -0.724612   -1.855897    0.000000
      6          1           0       -0.134464    2.633696   -0.000000
      7          1           0        1.287280   -1.326434    0.000000
 ---------------------------------------------------------------------

 SCF Done:  E(RB3LYP) =  -190.522022575     A.U. after   13 cycles

 The electronic state is 1-A'.
 Alpha  occ. eigenvalues --  -10.91432 -10.79430 -10.79410 -10.78443 -10.76343
 Alpha  occ. eigenvalues --   -1.52279  -1.32981  -1.16846  -1.06269  -1.04270
 Alpha  occ. eigenvalues --   -0.98684  -0.94440  -0.89686  -0.83600  -0.79301
 Alpha virt. eigenvalues --   -0.68294  -0.66593  -0.57194  -0.51270  -0.51234
 Alpha virt. eigenvalues --   -0.35275  -0.31332  -0.30994  -0.29423  -0.28524
 Alpha virt. eigenvalues --   -0.25282  -0.25252  -0.24792  -0.22777  -0.21462

 Mulliken charges:
               1
     1  C    0.525063
     2  C    0.213334
     3  C    0.129529
     4  C    0.213334
     5  C    0.214350
     6  H    0.382273
     7  H    0.322116
 Sum of Mulliken charges =   2.00000

 Dipole moment (field-independent basis, Debye):
    X=              0.2653    Y=             -1.2004    Z=              0.0000  Tot=              1.2294
 Quadrupole moment (field-independent basis, Debye-Ang):
   XX=            -19.6745   YY=              1.5348   ZZ=            -22.7315
   XY=             -0.2961   XZ=              0.0000   YZ=              0.0000

  Exact polarizability:  28.639   2.084  51.934  -0.000   0.000  36.178
 Approx polarizability:  48.132   4.501  86.331   0.000  -0.000  91.382

                      1                      2                      3
                     A"                     A'                     A'
 Frequencies --    173.0228               183.9892               462.1098
 Red. masses --     10.2940                 6.3671                 5.6377
 Frc consts  --      0.1816                 0.1270                 0.7093
 IR Inten    --      0.4707                 0.1568                14.3977

                      4                      5                      6
                     A"                     A'                     A'
 Frequencies --    556.8065               709.4676               846.1516
 Red. masses --      7.4118                 8.8578                 1.2202
 Frc consts  --      1.3539                 2.6269                 0.5147
 IR Inten    --     79.5968                 4.1689                15.9345

                      7                      8                      9
                     A'                     A"                     A"
 Frequencies --    884.2604               956.9486               998.0307
 Red. masses --      3.8047                 1.1789                 1.3062
 Frc consts  --      1.7528                 0.6361                 0.7666
 IR Inten    --    167.0840                20.5522                 0.4422

                     10                     11                     12
                     A'                     A"                     A'
 Frequencies --   1103.8230              1169.1938              1315.9388
 Red. masses --      1.6625                 5.2931                 4.5465
 Frc consts  --      1.1935                 4.2632                 4.6387
 IR Inten    --      0.7217                11.1870               218.2085

                     13                     14                     15
                     A'                     A'                     A'
 Frequencies --   1618.6395              2731.1691              3158.2116
 Red. masses --      6.5931                 1.0766                 1.1325
 Frc consts  --     10.1774                 4.7317                 6.6554
 IR Inten    --     74.7019               272.7935               223.5077

 - Thermochemistry -
 -------------------
 Temperature   298.150 Kelvin.  Pressure   1.00000 Atm.
 Atom     1 has atomic number  6 and mass  12.00000

 Molecular mass:    62.01565 amu.
 Principal axes and moments of inertia in atomic units:
                           1         2         3
     Eigenvalues --    78.83649 359.60528 385.30643
           X            0.14809   0.00000   0.98897
           Y            0.98897   0.00000  -0.14809
           Z            0.00000   1.00000   0.00000
 This molecule is an asymmetric top.
 Rotational symmetry number  1.
 Rotational temperatures (Kelvin)      1.09865     0.24086     0.22479
 Rotational constants (GHZ):          22.89221     5.01867     4.68391
 Zero-point vibrational energy     100891.6 (Joules/Mol)
                                   24.11368 (Kcal/Mol)
 Warning -- explicit consideration of   4 degrees of freedom as
           vibrations may cause significant error
 Vibrational temperatures:    248.94   264.72   664.87   801.12  1020.76
          (Kelvin)           1217.42  1272.25  1376.83  1435.94  1588.15
                             1682.21  1893.34  2328.86  3929.54  4543.96

 Zero-point correction=                           0.038428 (Hartree/Particle)
 Thermal correction to Energy=                    0.043260
 Thermal correction to Enthalpy=                  0.044204
 Thermal correction to Gibbs Free Energy=         0.011352
 Sum of electronic and zero-point Energies=           -190.483595
 Sum of electronic and thermal Energies=              -190.478763
 Sum of electronic and thermal Enthalpies=            -190.477819
 Sum of electronic and thermal Free Energies=         -190.510671

                     E (Thermal)             CV                S
                      KCal/Mol        Cal/Mol-Kelvin    Cal/Mol-Kelvin
 Total                   27.146             15.568             69.143
 Electronic               0.000              0.000              0.000
 Translational            0.889              2.981             38.294
 Rotational               0.889              2.981             23.906
 Vibrational             25.368              9.606              6.943
 Vibration     1          0.627              1.876              2.402
 Vibration     2          0.631              1.862              2.288
 Vibration     3          0.820              1.334              0.760
 Vibration     4          0.912              1.125              0.530

 Optimization completed.
    -- Stationary point found.
 Normal termination of Gaussian 09 at Tue Jul 19 05:35:56 2016.
