 Gaussian 09, Revision E.01,
 Gaussian 09:  EM64L-G09RevE.01 30-Nov-2015

 ---------------------------------------------
 #p b3lyp/6-311++G(3df,2p) freq symmetry=Loose
 ---------------------------------------------

 ---------
 b3lyp opt
 ---------
 Symbolic Z-matrix:
 Charge =  3 Multiplicity = 2

                         Standard orientation:
 ---------------------------------------------------------------------
 Center     Atomic      Atomic             Coordinates (Angstroms)
 Number     Number       Type             X           Y           Z
 ---------------------------------------------------------------------
      1          6           0       -0.084317   -0.687341   -0.000000
      2          6           0        0.104629    2.021688    0.000000
      3          6           0       -0.000000    0.672980    0.000000
      4          6           0        1.243751   -1.354643   -0.000000
      5          6           0       -1.310322   -1.526791   -0.000000
      6          1           0        0.138776    2.622321    0.959640
      7          1           0        0.138776    2.622321   -0.959640
 ---------------------------------------------------------------------

 SCF Done:  E(UB3LYP) =  -189.651824602     A.U. after   24 cycles

 The electronic state is 2-A'.
 Alpha  occ. eigenvalues --  -11.12448 -11.12365 -11.06146 -10.99296 -10.98328
 Alpha  occ. eigenvalues --   -1.61710  -1.52018  -1.40819  -1.37151  -1.20915
 Alpha  occ. eigenvalues --   -1.15740  -1.09714  -1.08369  -1.07758  -1.03267
 Alpha virt. eigenvalues --   -0.88008  -0.86822  -0.86152  -0.84383  -0.75099
 Alpha virt. eigenvalues --   -0.67423  -0.55877  -0.50533  -0.46598  -0.44646
 Alpha virt. eigenvalues --   -0.43785  -0.42555  -0.41974  -0.40179  -0.40075

  Beta  occ. eigenvalues --  -11.12184 -11.12104 -11.05383 -10.99297 -10.97853
  Beta  occ. eigenvalues --   -1.60691  -1.49676  -1.39697  -1.36517  -1.20149
  Beta  occ. eigenvalues --   -1.15226  -1.07693  -1.06684  -1.05603
  Beta virt. eigenvalues --   -0.93090  -0.87761  -0.86378  -0.85629  -0.83563
  Beta virt. eigenvalues --   -0.70620  -0.67107  -0.54678  -0.49975  -0.46161
  Beta virt. eigenvalues --   -0.44550  -0.43068  -0.41925  -0.41332  -0.39936

 Mulliken charges and spin densities:
               1          2
     1  C    1.031738   0.020775
     2  C   -0.051992   0.223001
     3  C    0.149713   0.446170
     4  C    0.556201   0.142456
     5  C    0.572166   0.187403
     6  H    0.371087  -0.009903
     7  H    0.371087  -0.009903
 Sum of Mulliken charges =   3.00000   1.00000

 Dipole moment (field-independent basis, Debye):
    X=              0.0077    Y=              1.7580    Z=             -0.0000  Tot=              1.7580
 Quadrupole moment (field-independent basis, Debye-Ang):
   XX=            -10.7792   YY=             23.5402   ZZ=            -18.4495
   XY=              2.6217   XZ=             -0.0000   YZ=             -0.0000

  Exact polarizability:  48.508   3.791  86.361   0.000   0.000  26.467
 Approx polarizability: 117.445   4.458 175.056  -0.000  -0.000  40.273

                      1                      2                      3
                     A"                     A'                     A"
 Frequencies --    152.4935               177.6495               273.3589
 Red. masses --      1.1041                 5.7118                 3.1316
 Frc consts  --      0.0151                 0.1062                 0.1379
 IR Inten    --      0.3875                 0.6860                13.1804

                      4                      5                      6
                     A'                     A'                     A"
 Frequencies --    326.8456               438.2821               478.8761
 Red. masses --     10.0256                 7.3603                 3.1267
 Frc consts  --      0.6310                 0.8330                 0.4225
 IR Inten    --     15.6073                51.1449                 1.3280

                      7                      8                      9
                     A'                     A"                     A'
 Frequencies --    710.3075               844.9191               972.2661
 Red. masses --      9.1963                 1.9627                 1.3603
 Frc consts  --      2.7337                 0.8255                 0.7576
 IR Inten    --     20.7264                 9.8027                29.5117

                     10                     11                     12
                     A'                     A'                     A'
 Frequencies --    974.4954              1085.1589              1200.3887
 Red. masses --     11.6438                 6.6305                 1.1560
 Frc consts  --      6.5148                 4.6002                 0.9814
 IR Inten    --    373.0942               417.9371               119.3553

                     13                     14                     15
                     A'                     A'                     A"
 Frequencies --   1588.7670              2669.8135              2729.7489
 Red. masses --      9.4412                 1.0458                 1.1142
 Frc consts  --     14.0410                 4.3921                 4.8917
 IR Inten    --     24.0770              1031.9147               450.0404

 - Thermochemistry -
 -------------------
 Temperature   298.150 Kelvin.  Pressure   1.00000 Atm.
 Atom     1 has atomic number  6 and mass  12.00000

 Molecular mass:    62.01565 amu.
 Principal axes and moments of inertia in atomic units:
                           1         2         3
     Eigenvalues --   144.88539 450.41717 582.04513
           X            0.09076   0.99587   0.00000
           Y            0.99587  -0.09076   0.00000
           Z            0.00000   0.00000   1.00000
 This molecule is an asymmetric top.
 Rotational symmetry number  1.
 Rotational temperatures (Kelvin)      0.59781     0.19230     0.14881
 Rotational constants (GHZ):          12.45634     4.00682     3.10069
 Zero-point vibrational energy      87467.2 (Joules/Mol)
                                   20.90516 (Kcal/Mol)
 Warning -- explicit consideration of   6 degrees of freedom as
           vibrations may cause significant error
 Vibrational temperatures:    219.40   255.60   393.30   470.26   630.59
          (Kelvin)            689.00  1021.97  1215.65  1398.87  1402.08
                             1561.30  1727.09  2285.88  3841.26  3927.49

 Zero-point correction=                           0.033314 (Hartree/Particle)
 Thermal correction to Energy=                    0.039042
 Thermal correction to Enthalpy=                  0.039986
 Thermal correction to Gibbs Free Energy=         0.004353
 Sum of electronic and zero-point Energies=           -189.618510
 Sum of electronic and thermal Energies=              -189.612782
 Sum of electronic and thermal Enthalpies=            -189.611838
 Sum of electronic and thermal Free Energies=         -189.647471

                     E (Thermal)             CV                S
                      KCal/Mol        Cal/Mol-Kelvin    Cal/Mol-Kelvin
 Total                   24.499             18.517             74.997
 Electronic               0.000              0.000              1.377
 Translational            0.889              2.981             38.294
 Rotational               0.889              2.981             25.144
 Vibrational             22.722             12.555             10.181
 Vibration     1          0.619              1.900              2.641
 Vibration     2          0.628              1.870              2.353
 Vibration     3          0.676              1.722              1.575
 Vibration     4          0.711              1.622              1.276
 Vibration     5          0.798              1.387              0.832
 Vibration     6          0.835              1.297              0.713

 Optimization completed.
    -- Stationary point found.
 Normal termination of Gaussian 09 at Tue Jul 19 05:51:09 2016.
