 Gaussian 09, Revision E.01,
 Gaussian 09:  EM64L-G09RevE.01 30-Nov-2015

 ---------------------------------------------
 #p b3lyp/6-311++G(3df,2p) freq symmetry=Loose
 ---------------------------------------------

 ---------
 b3lyp opt
 ---------
 Symbolic Z-matrix:
 Charge =  2 Multiplicity = 3

                         Standard orientation:
 ---------------------------------------------------------------------
 Center     Atomic      Atomic             Coordinates (Angstroms)
 Number     Number       Type             X           Y           Z
 ---------------------------------------------------------------------
      1          6           0        0.924651   -0.000000   -0.063863
      2          6           0        0.000000   -1.102832   -0.407844
      3          6           0       -0.924651    0.000000   -0.063863
      4          6           0        0.000000    1.102832   -0.407844
      5          6           0       -0.000000   -0.000000    1.089282
      6          1           0       -0.000000   -2.202243   -0.437602
      7          1           0        0.000000    2.202243   -0.437602
 ---------------------------------------------------------------------

 SCF Done:  E(UB3LYP) =  -190.460297636     A.U. after   14 cycles

 The electronic state is 3-B2.
 Alpha  occ. eigenvalues --  -10.86504 -10.83621 -10.83619 -10.81534 -10.81530
 Alpha  occ. eigenvalues --   -1.60259  -1.26639  -1.18325  -1.17853  -1.07378
 Alpha  occ. eigenvalues --   -0.99291  -0.96074  -0.90416  -0.89671  -0.83171
 Alpha  occ. eigenvalues --   -0.82610
 Alpha virt. eigenvalues --   -0.62529  -0.60841  -0.56683  -0.39877  -0.37270
 Alpha virt. eigenvalues --   -0.34075  -0.33684  -0.32626  -0.31116  -0.29641
 Alpha virt. eigenvalues --   -0.27945  -0.24652  -0.24399  -0.23273  -0.22427

  Beta  occ. eigenvalues --  -10.84265 -10.82828 -10.82827 -10.81260 -10.81256
  Beta  occ. eigenvalues --   -1.58970  -1.24299  -1.16693  -1.14040  -1.05545
  Beta  occ. eigenvalues --   -0.98246  -0.95050  -0.89181  -0.83797
  Beta virt. eigenvalues --   -0.70336  -0.69330  -0.60435  -0.56690  -0.48771
  Beta virt. eigenvalues --   -0.39423  -0.36060  -0.32836  -0.31834  -0.31257
  Beta virt. eigenvalues --   -0.30260  -0.28852  -0.27256  -0.24097  -0.23591

 Mulliken charges and spin densities:
               1          2
     1  C    0.708484  -0.038767
     2  C   -0.159525   0.473979
     3  C    0.708484  -0.038767
     4  C   -0.159525   0.473979
     5  C    0.191418   1.099402
     6  H    0.355332   0.015087
     7  H    0.355332   0.015087
 Sum of Mulliken charges =   2.00000   2.00000

 Dipole moment (field-independent basis, Debye):
    X=             -0.0000    Y=             -0.0000    Z=             -0.5923  Tot=              0.5923
 Quadrupole moment (field-independent basis, Debye-Ang):
   XX=            -21.0348   YY=             -4.8897   ZZ=            -18.8729
   XY=              0.0000   XZ=             -0.0000   YZ=              0.0000

  Exact polarizability:  38.166  -0.000  40.730   0.000   0.000  32.717
 Approx polarizability: 107.689  -0.000  68.049   0.000  -0.000  68.660

                      1                      2                      3
                     B1                     A2                     A1
 Frequencies --    435.9094               480.1204               503.2119
 Red. masses --      9.1809                 9.4106                 3.6353
 Frc consts  --      1.0278                 1.2781                 0.5424
 IR Inten    --      2.6406                 0.0000                24.0011

                      4                      5                      6
                     B2                     A1                     B2
 Frequencies --    505.4553               708.9221               817.4175
 Red. masses --      4.4298                 3.7208                 1.4505
 Frc consts  --      0.6668                 1.1017                 0.5710
 IR Inten    --     44.3114                 0.5271                 0.0492

                      7                      8                      9
                     B1                     A1                     A2
 Frequencies --    835.3721               889.6026              1013.3101
 Red. masses --      2.7676                 2.0902                 1.2196
 Frc consts  --      1.1379                 0.9746                 0.7378
 IR Inten    --     94.9888                21.3194                 0.0000

                     10                     11                     12
                     A1                     B1                     B2
 Frequencies --   1053.2313              1056.9517              1158.6447
 Red. masses --      3.7970                 1.5394                 7.0483
 Frc consts  --      2.4816                 1.0133                 5.5749
 IR Inten    --     18.6295                13.5333                49.8772

                     13                     14                     15
                     A1                     B2                     A1
 Frequencies --   1235.3990              3061.6812              3072.4614
 Red. masses --      9.6572                 1.1062                 1.1122
 Frc consts  --      8.6839                 6.1096                 6.1862
 IR Inten    --      8.5396               608.3941                 6.2102

 - Thermochemistry -
 -------------------
 Temperature   298.150 Kelvin.  Pressure   1.00000 Atm.
 Atom     1 has atomic number  6 and mass  12.00000

 Molecular mass:    62.01565 amu.
 Principal axes and moments of inertia in atomic units:
                           1         2         3
     Eigenvalues --   140.06336 205.93473 212.42432
           X            0.00000   1.00000   0.00000
           Y            1.00000  -0.00000   0.00000
           Z           -0.00000  -0.00000   1.00000
 This molecule is an asymmetric top.
 Rotational symmetry number  2.
 Rotational temperatures (Kelvin)      0.61839     0.42059     0.40774
 Rotational constants (GHZ):          12.88518     8.76366     8.49593
 Zero-point vibrational energy     100651.9 (Joules/Mol)
                                   24.05639 (Kcal/Mol)
 Warning -- explicit consideration of   4 degrees of freedom as
           vibrations may cause significant error
 Vibrational temperatures:    627.18   690.79   724.01   727.24  1019.98
          (Kelvin)           1176.08  1201.91  1279.94  1457.93  1515.36
                             1520.72  1667.03  1777.46  4405.07  4420.58

 Zero-point correction=                           0.038336 (Hartree/Particle)
 Thermal correction to Energy=                    0.042562
 Thermal correction to Enthalpy=                  0.043507
 Thermal correction to Gibbs Free Energy=         0.011951
 Sum of electronic and zero-point Energies=           -190.421961
 Sum of electronic and thermal Energies=              -190.417735
 Sum of electronic and thermal Enthalpies=            -190.416791
 Sum of electronic and thermal Free Energies=         -190.448346

                     E (Thermal)             CV                S
                      KCal/Mol        Cal/Mol-Kelvin    Cal/Mol-Kelvin
 Total                   26.708             15.093             66.413
 Electronic               0.000              0.000              2.183
 Translational            0.889              2.981             38.294
 Rotational               0.889              2.981             21.954
 Vibrational             24.931              9.131              3.982
 Vibration     1          0.796              1.392              0.840
 Vibration     2          0.836              1.294              0.710
 Vibration     3          0.859              1.243              0.650
 Vibration     4          0.861              1.238              0.645

 Optimization completed.
    -- Stationary point found.
 Normal termination of Gaussian 09 at Tue Jul 19 08:58:08 2016.
