 Gaussian 09, Revision E.01,
 Gaussian 09:  EM64L-G09RevE.01 30-Nov-2015

 ---------------------------------------------
 #p b3lyp/6-311++G(3df,2p) freq symmetry=Loose
 ---------------------------------------------

 ---------
 b3lyp opt
 ---------
 Symbolic Z-matrix:
 Charge =  2 Multiplicity = 1

                         Standard orientation:
 ---------------------------------------------------------------------
 Center     Atomic      Atomic             Coordinates (Angstroms)
 Number     Number       Type             X           Y           Z
 ---------------------------------------------------------------------
      1          6           0       -1.815756   -0.400444    0.000343
      2          6           0       -0.537285    0.015747   -0.001133
      3          6           0        0.827963    0.014718   -0.001285
      4          6           0        1.996736   -0.791030    0.000699
      5          6           0        0.316959    1.340171    0.000836
      6          1           0       -2.368050   -0.537151   -0.946725
      7          1           0       -2.363651   -0.537809    0.949963
 ---------------------------------------------------------------------

 SCF Done:  E(RB3LYP) =  -190.519911783     A.U. after   14 cycles

 The electronic state is 1-A.
 Alpha  occ. eigenvalues --  -10.85986 -10.79499 -10.78563 -10.76023 -10.74926
 Alpha  occ. eigenvalues --   -1.44420  -1.28271  -1.23638  -1.04294  -0.99124
 Alpha  occ. eigenvalues --   -0.96320  -0.88585  -0.87381  -0.81184  -0.77609
 Alpha virt. eigenvalues --   -0.66371  -0.64331  -0.60199  -0.54747  -0.44715
 Alpha virt. eigenvalues --   -0.35256  -0.32807  -0.29631  -0.28231  -0.26893
 Alpha virt. eigenvalues --   -0.24891  -0.24161  -0.23934  -0.23033  -0.21699

 Mulliken charges:
               1
     1  C    0.005492
     2  C    0.589862
     3  C    0.571339
     4  C    0.084905
     5  C    0.098070
     6  H    0.325349
     7  H    0.324982
 Sum of Mulliken charges =   2.00000

 Dipole moment (field-independent basis, Debye):
    X=             -2.4254    Y=             -2.2245    Z=             -0.0000  Tot=              3.2910
 Quadrupole moment (field-independent basis, Debye-Ang):
   XX=              4.6229   YY=            -20.4567   ZZ=            -20.3318
   XY=              2.1400   XZ=             -0.0057   YZ=             -0.0028

  Exact polarizability:  78.155   0.039  44.740  -0.005   0.003  28.773
 Approx polarizability: 180.275  -7.605 107.232  -0.008   0.018  45.323

                      1                      2                      3
                      A                      A                      A
 Frequencies --    135.7522               210.8601               272.0153
 Red. masses --      5.5044                 6.6213                 7.2597
 Frc consts  --      0.0598                 0.1735                 0.3165
 IR Inten    --      7.8024                 0.5916                29.1967

                      4                      5                      6
                      A                      A                      A
 Frequencies --    372.0848               459.8278               488.8965
 Red. masses --      2.6179                11.2801                 1.1100
 Frc consts  --      0.2135                 1.4052                 0.1563
 IR Inten    --      7.4293                28.7322                 1.0491

                      7                      8                      9
                      A                      A                      A
 Frequencies --    810.5815               891.1559               976.7919
 Red. masses --      6.5506                 1.6572                11.1381
 Frc consts  --      2.5359                 0.7754                 6.2613
 IR Inten    --     51.1687                 0.9294                34.2447

                     10                     11                     12
                      A                      A                      A
 Frequencies --   1059.6344              1260.2315              1347.7361
 Red. masses --      1.3813                 3.1703                 1.4430
 Frc consts  --      0.9138                 2.9666                 1.5442
 IR Inten    --     40.0191               674.3999                25.4258

                     13                     14                     15
                      A                      A                      A
 Frequencies --   1717.1846              2935.4140              3025.3797
 Red. masses --     11.6083                 1.0510                 1.1170
 Frc consts  --     20.1676                 5.3356                 6.0238
 IR Inten    --    269.8157               416.5162               208.3775

 - Thermochemistry -
 -------------------
 Temperature   298.150 Kelvin.  Pressure   1.00000 Atm.
 Atom     1 has atomic number  6 and mass  12.00000

 Molecular mass:    62.01565 amu.
 Principal axes and moments of inertia in atomic units:
                           1         2         3
     Eigenvalues --   118.85593 403.98592 509.89428
           X            0.99947   0.03263  -0.00004
           Y           -0.03263   0.99947  -0.00008
           Z            0.00003   0.00008   1.00000
 This molecule is an asymmetric top.
 Rotational symmetry number  1.
 Rotational temperatures (Kelvin)      0.72873     0.21440     0.16987
 Rotational constants (GHZ):          15.18428     4.46734     3.53944
 Zero-point vibrational energy      95483.2 (Joules/Mol)
                                   22.82103 (Kcal/Mol)
 Warning -- explicit consideration of   6 degrees of freedom as
           vibrations may cause significant error
 Vibrational temperatures:    195.32   303.38   391.37   535.35   661.59
          (Kelvin)            703.41  1166.24  1282.17  1405.38  1524.58
                             1813.19  1939.09  2470.64  4223.40  4352.84

 Zero-point correction=                           0.036368 (Hartree/Particle)
 Thermal correction to Energy=                    0.041920
 Thermal correction to Enthalpy=                  0.042864
 Thermal correction to Gibbs Free Energy=         0.008375
 Sum of electronic and zero-point Energies=           -190.483544
 Sum of electronic and thermal Energies=              -190.477992
 Sum of electronic and thermal Enthalpies=            -190.477048
 Sum of electronic and thermal Free Energies=         -190.511537

                     E (Thermal)             CV                S
                      KCal/Mol        Cal/Mol-Kelvin    Cal/Mol-Kelvin
 Total                   26.305             17.767             72.587
 Electronic               0.000              0.000              0.000
 Translational            0.889              2.981             38.294
 Rotational               0.889              2.981             24.708
 Vibrational             24.527             11.805              9.586
 Vibration     1          0.614              1.918              2.863
 Vibration     2          0.643              1.824              2.036
 Vibration     3          0.675              1.725              1.583
 Vibration     4          0.744              1.529              1.071
 Vibration     5          0.818              1.339              0.767
 Vibration     6          0.845              1.275              0.686

 Normal termination of Gaussian 09 at Sun Jun 19 03:49:24 2016.
