 Gaussian 09, Revision E.01,
 Gaussian 09:  EM64L-G09RevE.01 30-Nov-2015

 ------------------------------------------------------
 #p b3lyp/6-311++G(3df,2p) freq IOp(2/17=3) IOp(2/18=3)
 ------------------------------------------------------

 ---------
 b3lyp opt
 ---------
 Symbolic Z-matrix:
 Charge =  0 Multiplicity = 3

                         Standard orientation:
 ---------------------------------------------------------------------
 Center     Atomic      Atomic             Coordinates (Angstroms)
 Number     Number       Type             X           Y           Z
 ---------------------------------------------------------------------
      1          6           0       -0.687391    0.000000   -0.883451
      2          6           0        0.687391   -0.000000   -0.883451
      3          6           0        1.096073   -0.000000    0.540828
      4          6           0       -0.000000    0.000000    1.265439
      5          6           0       -1.096073    0.000000    0.540828
      6          1           0       -1.341805    0.000000   -1.740579
      7          1           0        1.341805   -0.000000   -1.740579
 ---------------------------------------------------------------------

 SCF Done:  E(UB3LYP) =  -191.466583203     A.U. after   15 cycles

 The electronic state is 3-B2.
 Alpha  occ. eigenvalues --  -10.24250 -10.24241 -10.21505 -10.21449 -10.20299
 Alpha  occ. eigenvalues --   -0.91710  -0.73481  -0.71755  -0.57267  -0.51239
 Alpha  occ. eigenvalues --   -0.49011  -0.42044  -0.41451  -0.34665  -0.27459
 Alpha  occ. eigenvalues --   -0.25968  -0.25899
 Alpha virt. eigenvalues --   -0.13437  -0.00122   0.00929   0.01960   0.04198
 Alpha virt. eigenvalues --    0.05238   0.05457   0.05702   0.06132   0.07703
 Alpha virt. eigenvalues --    0.08973   0.09417   0.10765   0.11718   0.11946

  Beta  occ. eigenvalues --  -10.22186 -10.22185 -10.21411 -10.21273 -10.21217
  Beta  occ. eigenvalues --   -0.89916  -0.73324  -0.67500  -0.55702  -0.51618
  Beta  occ. eigenvalues --   -0.46134  -0.40309  -0.38652  -0.31339  -0.25481
  Beta virt. eigenvalues --   -0.14145  -0.13380  -0.11387  -0.00066   0.02270
  Beta virt. eigenvalues --    0.04163   0.04248   0.05558   0.06050   0.06517
  Beta virt. eigenvalues --    0.07669   0.07886   0.09031   0.09989   0.11038

 Mulliken charges and spin densities:
               1          2
     1  C   -0.225716   0.076317
     2  C   -0.225716   0.076317
     3  C   -0.109228   1.498998
     4  C    0.320261  -1.137185
     5  C   -0.109228   1.498998
     6  H    0.174814  -0.006723
     7  H    0.174814  -0.006723
 Sum of Mulliken charges =  -0.00000   2.00000

 Dipole moment (field-independent basis, Debye):
    X=              0.0000    Y=             -0.0000    Z=             -1.0914  Tot=              1.0914
 Quadrupole moment (field-independent basis, Debye-Ang):
   XX=            -28.6901   YY=            -30.9354   ZZ=            -26.6678
   XY=              0.0000   XZ=             -0.0000   YZ=              0.0000

  Exact polarizability:  64.926  -0.000  35.253   0.000   0.000  57.098
 Approx polarizability: 123.897  -0.000  50.006  -0.000   0.000  89.974

                      1                      2                      3
                     B2                     A2                     B1
 Frequencies --    416.1732               535.1263               625.1309
 Red. masses --     10.0457                 4.8430                10.1213
 Frc consts  --      1.0251                 0.8171                 2.3304
 IR Inten    --      1.1981                 0.0000                 7.8465

                      4                      5                      6
                     A1                     B2                     A2
 Frequencies --    668.6497               700.2573               866.2299
 Red. masses --     11.5902                 1.2044                 1.2598
 Frc consts  --      3.0531                 0.3480                 0.5569
 IR Inten    --     13.9459                62.1604                 0.0000

                      7                      8                      9
                     B1                     B1                     A1
 Frequencies --    954.3177              1008.2780              1059.9743
 Red. masses --      3.9228                 9.6465                 5.9585
 Frc consts  --      2.1049                 5.7780                 3.9444
 IR Inten    --      0.3965                 3.2859                11.0264

                     10                     11                     12
                     A1                     B1                     A1
 Frequencies --   1081.0828              1285.0244              1374.8174
 Red. masses --      1.2452                 1.3707                10.7222
 Frc consts  --      0.8574                 1.3336                11.9406
 IR Inten    --      4.5112                10.3895                 6.1331

                     13                     14                     15
                     A1                     B1                     A1
 Frequencies --   1457.7169              3211.9882              3232.9414
 Red. masses --      4.3510                 1.0861                 1.1014
 Frc consts  --      5.4474                 6.6019                 6.7822
 IR Inten    --      0.0488                 0.6724                 7.1244

 - Thermochemistry -
 -------------------
 Temperature   298.150 Kelvin.  Pressure   1.00000 Atm.
 Atom     1 has atomic number  6 and mass  12.00000

 Molecular mass:    62.01565 amu.
 Principal axes and moments of inertia in atomic units:
                           1         2         3
     Eigenvalues --   156.42058 181.70237 338.12295
           X            0.00000   1.00000  -0.00000
           Y            0.00000   0.00000   1.00000
           Z            1.00000   0.00000  -0.00000
 This molecule is an asymmetric top.
 Rotational symmetry number  2.
 Rotational temperatures (Kelvin)      0.55372     0.47668     0.25616
 Rotational constants (GHZ):          11.53775     9.93240     5.33753
 Zero-point vibrational energy     110521.2 (Joules/Mol)
                                   26.41521 (Kcal/Mol)
 Warning -- explicit consideration of   2 degrees of freedom as
           vibrations may cause significant error
 Vibrational temperatures:    598.78   769.93   899.42   962.04  1007.51
          (Kelvin)           1246.31  1373.05  1450.69  1525.06  1555.44
                             1848.86  1978.05  2097.33  4621.33  4651.48

 Zero-point correction=                           0.042095 (Hartree/Particle)
 Thermal correction to Energy=                    0.046029
 Thermal correction to Enthalpy=                  0.046973
 Thermal correction to Gibbs Free Energy=         0.015622
 Sum of electronic and zero-point Energies=           -191.424488
 Sum of electronic and thermal Energies=              -191.420554
 Sum of electronic and thermal Enthalpies=            -191.419610
 Sum of electronic and thermal Free Energies=         -191.450961

                     E (Thermal)             CV                S
                      KCal/Mol        Cal/Mol-Kelvin    Cal/Mol-Kelvin
 Total                   28.884             13.584             65.985
 Electronic               0.000              0.000              2.183
 Translational            0.889              2.981             38.294
 Rotational               0.889              2.981             22.401
 Vibrational             27.106              7.622              3.107
 Vibration     1          0.779              1.435              0.905
 Vibration     2          0.890              1.172              0.576

 Optimization completed.
    -- Stationary point found.
 Normal termination of Gaussian 09 at Thu Jan 31 04:31:04 2019.
