 Gaussian 09, Revision E.01,
 Gaussian 09:  EM64L-G09RevE.01 30-Nov-2015

 ---------------------------------------------
 #p b3lyp/6-311++G(3df,2p) freq symmetry=Loose
 ---------------------------------------------

 ---------
 b3lyp opt
 ---------
 Symbolic Z-matrix:
 Charge =  3 Multiplicity = 2

                         Standard orientation:
 ---------------------------------------------------------------------
 Center     Atomic      Atomic             Coordinates (Angstroms)
 Number     Number       Type             X           Y           Z
 ---------------------------------------------------------------------
      1          6           0       -1.125758    1.326418    0.001277
      2          6           0       -0.595087    0.010232    0.000261
      3          6           0        0.890624   -0.429582    0.004184
      4          6           0        2.078088    0.374894   -0.005869
      5          6           0       -1.644514   -0.927271   -0.003487
      6          1           0        1.189953   -1.054546    0.934840
      7          1           0        1.189928   -1.073603   -0.913034
 ---------------------------------------------------------------------

 SCF Done:  E(UB3LYP) =  -189.521573644     A.U. after   30 cycles

 The electronic state is 2-A.
 Alpha  occ. eigenvalues --  -11.13926 -11.12826 -11.11506 -11.01956 -10.97615
 Alpha  occ. eigenvalues --   -1.62798  -1.54433  -1.41540  -1.32560  -1.19963
 Alpha  occ. eigenvalues --   -1.18303  -1.11500  -1.09372  -1.07902  -1.05044
 Alpha virt. eigenvalues --   -0.92016  -0.88138  -0.84873  -0.83360  -0.82956
 Alpha virt. eigenvalues --   -0.72315  -0.57375  -0.51938  -0.51131  -0.49023
 Alpha virt. eigenvalues --   -0.46017  -0.44039  -0.43968  -0.42505  -0.39135

  Beta  occ. eigenvalues --  -11.13032 -11.12181 -11.11090 -11.01686 -10.97531
  Beta  occ. eigenvalues --   -1.61969  -1.53687  -1.40249  -1.31617  -1.19133
  Beta  occ. eigenvalues --   -1.18196  -1.07465  -1.06518  -1.02444
  Beta virt. eigenvalues --   -0.96058  -0.90651  -0.86924  -0.83797  -0.83544
  Beta virt. eigenvalues --   -0.82362  -0.71369  -0.57060  -0.51401  -0.50944
  Beta virt. eigenvalues --   -0.48228  -0.45897  -0.43924  -0.43446  -0.41612

 Mulliken charges and spin densities:
               1          2
     1  C    0.409647   0.319500
     2  C    1.005579   0.064689
     3  C   -0.025096  -0.034755
     4  C    0.491985   0.212477
     5  C    0.391287   0.427394
     6  H    0.363376   0.005221
     7  H    0.363222   0.005474
 Sum of Mulliken charges =   3.00000   1.00000

 Dipole moment (field-independent basis, Debye):
    X=              0.2207    Y=             -0.7683    Z=              0.0058  Tot=              0.7994
 Quadrupole moment (field-independent basis, Debye-Ang):
   XX=             11.8563   YY=             -8.1590   ZZ=            -19.1892
   XY=             -1.5420   XZ=              0.0232   YZ=              0.0072

  Exact polarizability: 141.647   6.586  66.807  -0.040   0.083  27.371
 Approx polarizability: 341.526  76.404 181.250  -0.254   0.110  43.637

                      1                      2                      3
                      A                      A                      A
 Frequencies --     43.8168               214.2810               318.2746
 Red. masses --      2.5448                11.8010                10.6345
 Frc consts  --      0.0029                 0.3193                 0.6347
 IR Inten    --      3.4843                 0.7534                23.4081

                      4                      5                      6
                      A                      A                      A
 Frequencies --    334.3586               374.9009               452.3874
 Red. masses --      7.7248                 3.8622                 6.6696
 Frc consts  --      0.5088                 0.3198                 0.8042
 IR Inten    --     18.2669                14.9549               114.3163

                      7                      8                      9
                      A                      A                      A
 Frequencies --    514.0894               647.3745               840.0351
 Red. masses --      2.0288                 5.0616                 2.0659
 Frc consts  --      0.3159                 1.2498                 0.8589
 IR Inten    --      5.4333                59.2413                58.2498

                     10                     11                     12
                      A                      A                      A
 Frequencies --    999.0861              1124.8595              1160.5636
 Red. masses --      1.0909                 8.3870                 1.2050
 Frc consts  --      0.6416                 6.2525                 0.9562
 IR Inten    --      0.6648                14.5367                96.5200

                     13                     14                     15
                      A                      A                      A
 Frequencies --   1287.2909              2473.5030              2480.1000
 Red. masses --      2.3139                 1.0566                 1.0898
 Frc consts  --      2.2592                 3.8088                 3.9494
 IR Inten    --    182.8514               634.9293               391.6797

 - Thermochemistry -
 -------------------
 Temperature   298.150 Kelvin.  Pressure   1.00000 Atm.
 Atom     1 has atomic number  6 and mass  12.00000

 Molecular mass:    62.01565 amu.
 Principal axes and moments of inertia in atomic units:
                           1         2         3
     Eigenvalues --   139.91264 420.75006 548.36614
           X            0.99946  -0.03299   0.00024
           Y            0.03299   0.99946  -0.00019
           Z           -0.00023   0.00020   1.00000
 This molecule is an asymmetric top.
 Rotational symmetry number  1.
 Rotational temperatures (Kelvin)      0.61906     0.20586     0.15795
 Rotational constants (GHZ):          12.89906     4.28934     3.29112
 Zero-point vibrational energy      79341.8 (Joules/Mol)
                                   18.96316 (Kcal/Mol)
 Warning -- explicit consideration of   7 degrees of freedom as
           vibrations may cause significant error
 Vibrational temperatures:     63.04   308.30   457.93   481.07   539.40
          (Kelvin)            650.88   739.66   931.43  1208.62  1437.46
                             1618.42  1669.79  1852.12  3558.81  3568.31

 Zero-point correction=                           0.030220 (Hartree/Particle)
 Thermal correction to Energy=                    0.036320
 Thermal correction to Enthalpy=                  0.037264
 Thermal correction to Gibbs Free Energy=         0.000418
 Sum of electronic and zero-point Energies=           -189.491354
 Sum of electronic and thermal Energies=              -189.485253
 Sum of electronic and thermal Enthalpies=            -189.484309
 Sum of electronic and thermal Free Energies=         -189.521155

                     E (Thermal)             CV                S
                      KCal/Mol        Cal/Mol-Kelvin    Cal/Mol-Kelvin
 Total                   22.791             19.652             77.549
 Electronic               0.000              0.000              1.377
 Translational            0.889              2.981             38.294
 Rotational               0.889              2.981             24.982
 Vibrational             21.014             13.691             12.896
 Vibration     1          0.595              1.980              5.079
 Vibration     2          0.644              1.819              2.007
 Vibration     3          0.705              1.639              1.319
 Vibration     4          0.716              1.607              1.239
 Vibration     5          0.746              1.524              1.060
 Vibration     6          0.811              1.356              0.789
 Vibration     7          0.869              1.219              0.624

 Normal termination of Gaussian 09 at Sun Jun 19 05:06:50 2016.
