 Gaussian 09, Revision E.01,
 Gaussian 09:  EM64L-G09RevE.01 30-Nov-2015

 ---------------------------------------------
 #p b3lyp/6-311++G(3df,2p) freq symmetry=Loose
 ---------------------------------------------

 ---------
 b3lyp opt
 ---------
 Symbolic Z-matrix:
 Charge =  2 Multiplicity = 3

                         Standard orientation:
 ---------------------------------------------------------------------
 Center     Atomic      Atomic             Coordinates (Angstroms)
 Number     Number       Type             X           Y           Z
 ---------------------------------------------------------------------
      1          6           0        0.409201    0.001788    0.093317
      2          6           0       -1.048085    0.007023    0.378261
      3          6           0        1.592647    0.680885   -0.122419
      4          6           0       -2.078439   -0.010173   -0.568453
      5          6           0        1.590591   -0.685555   -0.107667
      6          1           0       -1.397932    0.920950    0.964329
      7          1           0       -1.397559   -0.884758    0.997431
 ---------------------------------------------------------------------

 SCF Done:  E(UB3LYP) =  -190.478673760     A.U. after   23 cycles

 The electronic state is 3-A.
 Alpha  occ. eigenvalues --  -10.85101 -10.78357 -10.78287 -10.77762 -10.72663
 Alpha  occ. eigenvalues --   -1.46439  -1.34438  -1.13538  -1.03681  -1.00437
 Alpha  occ. eigenvalues --   -0.94964  -0.93974  -0.88830  -0.83315  -0.80972
 Alpha  occ. eigenvalues --   -0.76893
 Alpha virt. eigenvalues --   -0.62329  -0.60290  -0.53252  -0.50989  -0.36095
 Alpha virt. eigenvalues --   -0.35730  -0.32485  -0.28456  -0.28096  -0.27305
 Alpha virt. eigenvalues --   -0.26483  -0.23728  -0.22289  -0.20630  -0.19947

  Beta  occ. eigenvalues --  -10.85075 -10.77476 -10.76347 -10.76291 -10.72655
  Beta  occ. eigenvalues --   -1.44321  -1.34211  -1.12753  -0.99883  -0.99196
  Beta  occ. eigenvalues --   -0.92421  -0.89962  -0.87509  -0.80919
  Beta virt. eigenvalues --   -0.64747  -0.61895  -0.60994  -0.58922  -0.52036
  Beta virt. eigenvalues --   -0.46814  -0.35365  -0.34532  -0.31864  -0.28186
  Beta virt. eigenvalues --   -0.27900  -0.26831  -0.23178  -0.22748  -0.21795

 Mulliken charges and spin densities:
               1          2
     1  C    0.485276  -0.107907
     2  C    0.038525  -0.001361
     3  C    0.316061   1.035431
     4  C    0.203621   0.031034
     5  C    0.316734   1.035694
     6  H    0.319800   0.003650
     7  H    0.319983   0.003458
 Sum of Mulliken charges =   2.00000   2.00000

 Dipole moment (field-independent basis, Debye):
    X=             -2.0562    Y=              0.0210    Z=              1.1641  Tot=              2.3630
 Quadrupole moment (field-independent basis, Debye-Ang):
   XX=             -0.4710   YY=            -18.4007   ZZ=            -20.0335
   XY=             -0.0496   XZ=             -2.7709   YZ=             -0.0134

  Exact polarizability:  56.457   0.018  34.516   0.768  -0.024  30.605
 Approx polarizability:  87.094   0.072  63.249   2.762  -0.072  51.570

                      1                      2                      3
                      A                      A                      A
 Frequencies --     51.2815               215.8679               316.7780
 Red. masses --      3.9090                 9.7540                 2.1690
 Frc consts  --      0.0061                 0.2678                 0.1282
 IR Inten    --      3.9050                 3.9644                 5.1193

                      4                      5                      6
                      A                      A                      A
 Frequencies --    444.5648               477.6719               698.6808
 Red. masses --      2.4819                 5.0420                 6.9918
 Frc consts  --      0.2890                 0.6778                 2.0109
 IR Inten    --      0.1581                 3.6951                12.7757

                      7                      8                      9
                      A                      A                      A
 Frequencies --    899.8482               976.3611              1205.3902
 Red. masses --      1.4384                 1.2531                 6.4272
 Frc consts  --      0.6862                 0.7038                 5.5021
 IR Inten    --     13.8438                 9.0893                59.4650

                     10                     11                     12
                      A                      A                      A
 Frequencies --   1219.8952              1305.9158              1398.0317
 Red. masses --      1.1135                 9.0049                 5.0517
 Frc consts  --      0.9763                 9.0482                 5.8173
 IR Inten    --     81.2484                15.9383               311.0480

                     13                     14                     15
                      A                      A                      A
 Frequencies --   1685.8232              2656.8745              2658.9637
 Red. masses --     11.9593                 1.0585                 1.0854
 Frc consts  --     20.0253                 4.4022                 4.5214
 IR Inten    --      7.8798               263.4678               234.4576

 - Thermochemistry -
 -------------------
 Temperature   298.150 Kelvin.  Pressure   1.00000 Atm.
 Atom     1 has atomic number  6 and mass  12.00000

 Molecular mass:    62.01565 amu.
 Principal axes and moments of inertia in atomic units:
                           1         2         3
     Eigenvalues --    73.85605 498.30232 516.21285
           X            0.99974  -0.00040  -0.02267
           Y            0.00044   1.00000   0.00157
           Z            0.02267  -0.00158   0.99974
 This molecule is an asymmetric top.
 Rotational symmetry number  1.
 Rotational temperatures (Kelvin)      1.17274     0.17382     0.16779
 Rotational constants (GHZ):          24.43593     3.62178     3.49612
 Zero-point vibrational energy      96969.0 (Joules/Mol)
                                   23.17614 (Kcal/Mol)
 Warning -- explicit consideration of   5 degrees of freedom as
           vibrations may cause significant error
 Vibrational temperatures:     73.78   310.59   455.77   639.63   687.26
          (Kelvin)           1005.24  1294.68  1404.76  1734.29  1755.15
                             1878.92  2011.45  2425.52  3822.64  3825.65

 Zero-point correction=                           0.036934 (Hartree/Particle)
 Thermal correction to Energy=                    0.042304
 Thermal correction to Enthalpy=                  0.043248
 Thermal correction to Gibbs Free Energy=         0.007505
 Sum of electronic and zero-point Energies=           -190.441740
 Sum of electronic and thermal Energies=              -190.436370
 Sum of electronic and thermal Enthalpies=            -190.435426
 Sum of electronic and thermal Free Energies=         -190.471169

                     E (Thermal)             CV                S
                      KCal/Mol        Cal/Mol-Kelvin    Cal/Mol-Kelvin
 Total                   26.546             16.491             75.228
 Electronic               0.000              0.000              2.183
 Translational            0.889              2.981             38.294
 Rotational               0.889              2.981             24.456
 Vibrational             24.769             10.529             10.295
 Vibration     1          0.596              1.977              4.767
 Vibration     2          0.645              1.817              1.993
 Vibration     3          0.704              1.642              1.327
 Vibration     4          0.804              1.373              0.812
 Vibration     5          0.834              1.300              0.716

 Normal termination of Gaussian 09 at Sun Jun 19 04:39:26 2016.
