 Gaussian 09, Revision E.01,
 Gaussian 09:  EM64L-G09RevE.01 30-Nov-2015

 ---------------------------------------------
 #p b3lyp/6-311++G(3df,2p) freq symmetry=Loose
 ---------------------------------------------

 ---------
 b3lyp opt
 ---------
 Symbolic Z-matrix:
 Charge =  3 Multiplicity = 2

                         Standard orientation:
 ---------------------------------------------------------------------
 Center     Atomic      Atomic             Coordinates (Angstroms)
 Number     Number       Type             X           Y           Z
 ---------------------------------------------------------------------
      1          6           0       -1.018378   -2.077376   -0.000000
      2          6           0       -0.970739   -0.779695    0.000000
      3          6           0        0.000000    0.200156    0.000000
      4          6           0        0.850303    1.148122    0.000000
      5          6           0        1.688056    2.115219    0.000000
      6          1           0       -1.201858   -3.187275   -0.000000
      7          1           0       -2.093592   -0.451283    0.000000
 ---------------------------------------------------------------------

 SCF Done:  E(UB3LYP) =  -189.782516392     A.U. after   20 cycles

 The electronic state is 2-A'.
 Alpha  occ. eigenvalues --  -11.10017 -11.05047 -11.04596 -10.95454 -10.95374
 Alpha  occ. eigenvalues --   -1.57427  -1.53760  -1.45018  -1.35143  -1.23038
 Alpha  occ. eigenvalues --   -1.17915  -1.12946  -1.09423  -1.06366  -1.02675
 Alpha virt. eigenvalues --   -0.87447  -0.87201  -0.82540  -0.70842  -0.63058
 Alpha virt. eigenvalues --   -0.56434  -0.54063  -0.48996  -0.47773  -0.46675
 Alpha virt. eigenvalues --   -0.42787  -0.40804  -0.40472  -0.37636  -0.36185

  Beta  occ. eigenvalues --  -11.06782 -11.05395 -11.05105 -10.95276 -10.95216
  Beta  occ. eigenvalues --   -1.57937  -1.52593  -1.43579  -1.35110  -1.23361
  Beta  occ. eigenvalues --   -1.18411  -1.09865  -1.05392  -1.01659
  Beta virt. eigenvalues --   -0.87514  -0.85542  -0.84942  -0.82855  -0.69669
  Beta virt. eigenvalues --   -0.60550  -0.55058  -0.54404  -0.49051  -0.47773
  Beta virt. eigenvalues --   -0.46837  -0.42865  -0.40853  -0.40532  -0.37782

 Mulliken charges and spin densities:
               1          2
     1  C    0.292917  -0.182737
     2  C    0.295520   0.015337
     3  C   -0.062107  -0.229280
     4  C    1.019372   0.026476
     5  C    0.623022   1.375128
     6  H    0.496478   0.003403
     7  H    0.334797  -0.008327
 Sum of Mulliken charges =   3.00000   1.00000

 Dipole moment (field-independent basis, Debye):
    X=             -0.7929    Y=             -1.8238    Z=              0.0000  Tot=              1.9887
 Quadrupole moment (field-independent basis, Debye-Ang):
   XX=              7.4145   YY=             33.2488   ZZ=            -22.0802
   XY=             32.5104   XZ=              0.0000   YZ=              0.0000

  Exact polarizability:  51.077  34.829  76.787   0.061  -0.110  20.890
 Approx polarizability: 118.150 106.281 195.730   0.000   0.000  28.426

 ******    1 imaginary frequencies (negative Signs) ******

                      1                      2                      3
                     A"                     A"                     A"
 Frequencies --    -33.1149               174.5995               271.3179
 Red. masses --      6.4173                 5.1534                 4.6001
 Frc consts  --      0.0041                 0.0926                 0.1995
 IR Inten    --     29.1144                21.1009                 1.6057

                      4                      5                      6
                     A"                     A"                     A"
 Frequencies --    417.6113               503.7166               642.6402
 Red. masses --      2.5385                 3.9826                 2.3497
 Frc consts  --      0.2608                 0.5954                 0.5717
 IR Inten    --     21.7828                12.7941                85.3749

                      7                      8                      9
                     A"                     A"                     A"
 Frequencies --    751.7938               764.6812               896.6647
 Red. masses --      5.3196                 1.4938                 1.3997
 Frc consts  --      1.7714                 0.5147                 0.6630
 IR Inten    --     21.1808                 7.8004                 2.9763

                     10                     11                     12
                     A"                     A"                     A"
 Frequencies --   1026.0823              1445.9021              1735.2948
 Red. masses --      1.4447                 7.9294                 6.3925
 Frc consts  --      0.8962                 9.7671                11.3414
 IR Inten    --      5.2550               228.6169               450.0994

                     13                     14                     15
                     A"                     A"                     A'
 Frequencies --   2143.5041              2386.5727              2862.4834
 Red. masses --     10.5844                 1.0810                 1.1577
 Frc consts  --     28.6525                 3.6277                 5.5887
 IR Inten    --   1519.4984               637.3046               571.9805

 - Thermochemistry -
 -------------------
 Temperature   298.150 Kelvin.  Pressure   1.00000 Atm.
 Atom     1 has atomic number  6 and mass  12.00000

 Molecular mass:    62.01565 amu.
 Principal axes and moments of inertia in atomic units:
                           1         2         3
     Eigenvalues --    22.68415 733.05157 755.73571
           X            0.57589   0.81753   0.00000
           Y            0.81753  -0.57589   0.00000
           Z            0.00000   0.00000   1.00000
 This molecule is an asymmetric top.
 Rotational symmetry number  1.
 Rotational temperatures (Kelvin)      3.81825     0.11816     0.11461
 Rotational constants (GHZ):          79.55958     2.46196     2.38806
    1 imaginary frequencies ignored.
 Zero-point vibrational energy      95838.0 (Joules/Mol)
                                   22.90583 (Kcal/Mol)
 Warning -- explicit consideration of   4 degrees of freedom as
           vibrations may cause significant error
 Vibrational temperatures:    251.21   390.37   600.85   724.73   924.61
          (Kelvin)           1081.66  1100.20  1290.10  1476.30  2080.33
                             2496.70  3084.02  3433.74  4118.47

 Zero-point correction=                           0.036503 (Hartree/Particle)
 Thermal correction to Energy=                    0.041325
 Thermal correction to Enthalpy=                  0.042269
 Thermal correction to Gibbs Free Energy=         0.008842
 Sum of electronic and zero-point Energies=           -189.746014
 Sum of electronic and thermal Energies=              -189.741191
 Sum of electronic and thermal Enthalpies=            -189.740247
 Sum of electronic and thermal Free Energies=         -189.773675

                     E (Thermal)             CV                S
                      KCal/Mol        Cal/Mol-Kelvin    Cal/Mol-Kelvin
 Total                   25.932             15.609             70.354
 Electronic               0.000              0.000              1.377
 Translational            0.889              2.981             38.294
 Rotational               0.889              2.981             24.045
 Vibrational             24.155              9.647              6.638
 Vibration     1          0.627              1.874              2.385
 Vibration     2          0.675              1.726              1.588
 Vibration     3          0.781              1.432              0.900
 Vibration     4          0.859              1.242              0.649

 Normal termination of Gaussian 09 at Tue Jul 19 08:29:29 2016.
