 Gaussian 09, Revision E.01,
 Gaussian 09:  EM64L-G09RevE.01 30-Nov-2015

 ------------------------------------------------------
 #p b3lyp/6-311++G(3df,2p) freq IOp(2/17=3) IOp(2/18=3)
 ------------------------------------------------------

 ---------
 b3lyp opt
 ---------
 Symbolic Z-matrix:
 Charge =  0 Multiplicity = 1

                         Standard orientation:
 ---------------------------------------------------------------------
 Center     Atomic      Atomic             Coordinates (Angstroms)
 Number     Number       Type             X           Y           Z
 ---------------------------------------------------------------------
      1          6           0        1.900035   -0.000000   -0.684474
      2          6           0        0.715908   -0.000000   -0.173365
      3          6           0       -0.000000    0.000000    1.146678
      4          6           0       -0.715908    0.000000   -0.173365
      5          6           0       -1.900035    0.000000   -0.684474
      6          1           0       -0.000000    0.926544    1.706901
      7          1           0       -0.000000   -0.926544    1.706901
 ---------------------------------------------------------------------

 SCF Done:  E(RB3LYP) =  -191.450334497     A.U. after   11 cycles

 The electronic state is 1-A1.
 Alpha  occ. eigenvalues --  -10.28487 -10.25919 -10.25917 -10.24036 -10.23994
 Alpha  occ. eigenvalues --   -0.94943  -0.77662  -0.74428  -0.63574  -0.52906
 Alpha  occ. eigenvalues --   -0.43568  -0.43041  -0.35634  -0.32496  -0.32211
 Alpha  occ. eigenvalues --   -0.28971
 Alpha virt. eigenvalues --   -0.15647  -0.11319  -0.06789  -0.01138   0.02044
 Alpha virt. eigenvalues --    0.02912   0.03113   0.05813   0.05850   0.05893
 Alpha virt. eigenvalues --    0.07418   0.07652   0.09883   0.09990   0.10771

 Mulliken charges:
               1
     1  C   -0.902100
     2  C    0.981869
     3  C   -0.553293
     4  C    0.981869
     5  C   -0.902100
     6  H    0.196878
     7  H    0.196878
 Sum of Mulliken charges =  -0.00000

 Dipole moment (field-independent basis, Debye):
    X=              0.0000    Y=             -0.0000    Z=              3.0875  Tot=              3.0875
 Quadrupole moment (field-independent basis, Debye-Ang):
   XX=            -41.8286   YY=            -29.5238   ZZ=            -26.2837
   XY=              0.0000   XZ=              0.0000   YZ=              0.0000

  Exact polarizability:  84.630  -0.000  39.437   0.000  -0.000  53.115
 Approx polarizability: 160.551  -0.000  56.935  -0.000   0.000  87.573

                      1                      2                      3
                     A1                     B1                     B2
 Frequencies --     63.0627               166.1011               223.2447
 Red. masses --     10.6044                 6.3169                 6.7090
 Frc consts  --      0.0248                 0.1027                 0.1970
 IR Inten    --     22.8653                12.8588                 0.8657

                      4                      5                      6
                     A2                     B1                     A1
 Frequencies --    338.0405               679.0631               757.2580
 Red. masses --      4.5287                 9.8769                11.6568
 Frc consts  --      0.3049                 2.6834                 3.9384
 IR Inten    --      0.0000                76.0485                 0.1709

                      7                      8                      9
                     A2                     A1                     B2
 Frequencies --    953.0182               982.5166               994.4371
 Red. masses --      1.1917                 6.1363                 1.2652
 Frc consts  --      0.6377                 3.4901                 0.7372
 IR Inten    --      0.0000                 0.4081                 0.0077

                     10                     11                     12
                     B1                     A1                     B1
 Frequencies --   1060.4821              1460.3196              1693.9785
 Red. masses --      1.2221                 1.1052                10.8807
 Frc consts  --      0.8097                 1.3886                18.3959
 IR Inten    --      3.5372                 0.4166               332.8751

                     13                     14                     15
                     A1                     A1                     B2
 Frequencies --   1921.2355              3108.3378              3209.7450
 Red. masses --     11.6103                 1.0480                 1.1206
 Frc consts  --     25.2495                 5.9656                 6.8019
 IR Inten    --     98.0471                 1.0437                 0.9361

 - Thermochemistry -
 -------------------
 Temperature   298.150 Kelvin.  Pressure   1.00000 Atm.
 Atom     1 has atomic number  6 and mass  12.00000

 Molecular mass:    62.01565 amu.
 Principal axes and moments of inertia in atomic units:
                           1         2         3
     Eigenvalues --   125.56534 359.51392 472.72049
           X            1.00000   0.00000   0.00000
           Y           -0.00000   0.00000   1.00000
           Z            0.00000   1.00000  -0.00000
 This molecule is an asymmetric top.
 Rotational symmetry number  2.
 Rotational temperatures (Kelvin)      0.68979     0.24092     0.18322
 Rotational constants (GHZ):          14.37293     5.01995     3.81778
 Zero-point vibrational energy     105336.2 (Joules/Mol)
                                   25.17596 (Kcal/Mol)
 Warning -- explicit consideration of   4 degrees of freedom as
           vibrations may cause significant error
 Vibrational temperatures:     90.73   238.98   321.20   486.36   977.02
          (Kelvin)           1089.52  1371.18  1413.62  1430.77  1525.80
                             2101.07  2437.25  2764.23  4472.20  4618.10

 Zero-point correction=                           0.040120 (Hartree/Particle)
 Thermal correction to Energy=                    0.045649
 Thermal correction to Enthalpy=                  0.046593
 Thermal correction to Gibbs Free Energy=         0.012165
 Sum of electronic and zero-point Energies=           -191.410214
 Sum of electronic and thermal Energies=              -191.404686
 Sum of electronic and thermal Enthalpies=            -191.403742
 Sum of electronic and thermal Free Energies=         -191.438170

                     E (Thermal)             CV                S
                      KCal/Mol        Cal/Mol-Kelvin    Cal/Mol-Kelvin
 Total                   28.645             16.483             72.460
 Electronic               0.000              0.000              0.000
 Translational            0.889              2.981             38.294
 Rotational               0.889              2.981             23.194
 Vibrational             26.868             10.522             10.972
 Vibration     1          0.597              1.972              4.359
 Vibration     2          0.624              1.884              2.479
 Vibration     3          0.649              1.806              1.933
 Vibration     4          0.718              1.600              1.221

 Optimization completed.
    -- Stationary point found.
 Normal termination of Gaussian 09 at Thu Jan 31 04:23:14 2019.
