 Gaussian 09, Revision E.01,
 Gaussian 09:  EM64L-G09RevE.01 30-Nov-2015

 ---------------------------------------------
 #p b3lyp/6-311++G(3df,2p) freq symmetry=Loose
 ---------------------------------------------

 ---------
 b3lyp opt
 ---------
 Symbolic Z-matrix:
 Charge =  2 Multiplicity = 3

                         Standard orientation:
 ---------------------------------------------------------------------
 Center     Atomic      Atomic             Coordinates (Angstroms)
 Number     Number       Type             X           Y           Z
 ---------------------------------------------------------------------
      1          6           0       -0.000000    0.640452   -0.000000
      2          6           0       -0.815197   -0.539737    0.000000
      3          6           0        0.042903   -1.636975    0.000000
      4          6           0        0.850891   -0.502222    0.000000
      5          6           0        0.007764    2.005772   -0.000000
      6          1           0       -0.587170    2.925876   -0.000000
      7          1           0        0.068998   -2.729617    0.000000
 ---------------------------------------------------------------------

 SCF Done:  E(UB3LYP) =  -190.585754662     A.U. after   16 cycles

 The electronic state is 3-A".
 Alpha  occ. eigenvalues --  -10.80904 -10.80034 -10.79879 -10.78857 -10.78776
 Alpha  occ. eigenvalues --   -1.51874  -1.31748  -1.18659  -1.08963  -1.02663
 Alpha  occ. eigenvalues --   -0.98521  -0.96435  -0.95533  -0.81159  -0.79942
 Alpha  occ. eigenvalues --   -0.77556
 Alpha virt. eigenvalues --   -0.60121  -0.58893  -0.54492  -0.41797  -0.35501
 Alpha virt. eigenvalues --   -0.32433  -0.31336  -0.29210  -0.28015  -0.26948
 Alpha virt. eigenvalues --   -0.23789  -0.22807  -0.21887  -0.21085  -0.20747

  Beta  occ. eigenvalues --  -10.80446 -10.79847 -10.79837 -10.78312 -10.76496
  Beta  occ. eigenvalues --   -1.51104  -1.27415  -1.15655  -1.08223  -1.00962
  Beta  occ. eigenvalues --   -0.97438  -0.94901  -0.92603  -0.79408
  Beta virt. eigenvalues --   -0.69735  -0.60723  -0.58568  -0.53959  -0.52083
  Beta virt. eigenvalues --   -0.38013  -0.33509  -0.31944  -0.30640  -0.28432
  Beta virt. eigenvalues --   -0.27472  -0.26605  -0.22776  -0.22143  -0.21530

 Mulliken charges and spin densities:
               1          2
     1  C   -0.014528   0.335864
     2  C    1.166757   0.100040
     3  C   -0.596921   0.329973
     4  C    1.139624   0.037400
     5  C   -0.472918   1.215562
     6  H    0.382860  -0.011717
     7  H    0.395127  -0.007122
 Sum of Mulliken charges =   2.00000   2.00000

 Dipole moment (field-independent basis, Debye):
    X=             -0.5043    Y=              0.8614    Z=             -0.0000  Tot=              0.9982
 Quadrupole moment (field-independent basis, Debye-Ang):
   XX=            -22.0822   YY=             11.8219   ZZ=            -22.5547
   XY=             -2.8244   XZ=             -0.0000   YZ=             -0.0000

  Exact polarizability:  36.764  -1.192  68.691  -0.000  -0.000  22.536
 Approx polarizability:  94.026   0.771 117.752   0.000  -0.000  34.895

                      1                      2                      3
                     A"                     A'                     A"
 Frequencies --    245.7516               349.8702               555.9476
 Red. masses --      3.4427                 2.3717                 4.1891
 Frc consts  --      0.1225                 0.1711                 0.7628
 IR Inten    --     14.4067                27.1193                 0.3835

                      4                      5                      6
                     A'                     A'                     A"
 Frequencies --    572.3435               701.6669               720.9686
 Red. masses --      1.7928                 8.1295                 1.3926
 Frc consts  --      0.3460                 2.3582                 0.4265
 IR Inten    --     27.7929                 9.8994                16.4802

                      7                      8                      9
                     A'                     A"                     A'
 Frequencies --    738.7496               805.3081               962.3137
 Red. masses --      5.3610                 1.3824                 9.2279
 Frc consts  --      1.7238                 0.5282                 5.0349
 IR Inten    --     51.3389                14.2762                26.7918

                     10                     11                     12
                     A'                     A'                     A'
 Frequencies --   1025.0964              1126.0717              1417.8392
 Red. masses --      1.4844                 4.1355                 6.4861
 Frc consts  --      0.9190                 3.0897                 7.6823
 IR Inten    --      6.8528                 9.1171               216.8837

                     13                     14                     15
                     A'                     A'                     A'
 Frequencies --   1617.7838              3105.4977              3144.2456
 Red. masses --      8.8903                 1.1077                 1.1223
 Frc consts  --     13.7091                 6.2939                 6.5374
 IR Inten    --      0.7875               389.5078               238.4947

 - Thermochemistry -
 -------------------
 Temperature   298.150 Kelvin.  Pressure   1.00000 Atm.
 Atom     1 has atomic number  6 and mass  12.00000

 Molecular mass:    62.01565 amu.
 Principal axes and moments of inertia in atomic units:
                           1         2         3
     Eigenvalues --    60.59748 385.95737 446.55485
           X           -0.02661   0.99965   0.00000
           Y            0.99965   0.02661   0.00000
           Z            0.00000   0.00000   1.00000
 This molecule is an asymmetric top.
 Rotational symmetry number  1.
 Rotational temperatures (Kelvin)      1.42933     0.22441     0.19396
 Rotational constants (GHZ):          29.78245     4.67601     4.04148
 Zero-point vibrational energy     102217.6 (Joules/Mol)
                                   24.43060 (Kcal/Mol)
 Warning -- explicit consideration of   4 degrees of freedom as
           vibrations may cause significant error
 Vibrational temperatures:    353.58   503.38   799.88   823.47  1009.54
          (Kelvin)           1037.31  1062.89  1158.66  1384.55  1474.88
                             1620.16  2039.95  2327.63  4468.11  4523.86

 Zero-point correction=                           0.038933 (Hartree/Particle)
 Thermal correction to Energy=                    0.043481
 Thermal correction to Enthalpy=                  0.044425
 Thermal correction to Gibbs Free Energy=         0.011345
 Sum of electronic and zero-point Energies=           -190.546822
 Sum of electronic and thermal Energies=              -190.542274
 Sum of electronic and thermal Enthalpies=            -190.541330
 Sum of electronic and thermal Free Energies=         -190.574410

                     E (Thermal)             CV                S
                      KCal/Mol        Cal/Mol-Kelvin    Cal/Mol-Kelvin
 Total                   27.285             15.718             69.623
 Electronic               0.000              0.000              2.183
 Translational            0.889              2.981             38.294
 Rotational               0.889              2.981             23.861
 Vibrational             25.507              9.756              5.285
 Vibration     1          0.660              1.770              1.761
 Vibration     2          0.727              1.576              1.167
 Vibration     3          0.911              1.127              0.532
 Vibration     4          0.929              1.091              0.500

 Optimization completed.
    -- Stationary point found.
 Normal termination of Gaussian 09 at Tue Jul 19 07:30:09 2016.
