 Gaussian 09, Revision E.01,
 Gaussian 09:  EM64L-G09RevE.01 30-Nov-2015

 ---------------------------------------------
 #p b3lyp/6-311++G(3df,2p) freq symmetry=Loose
 ---------------------------------------------

 ---------
 b3lyp opt
 ---------
 Symbolic Z-matrix:
 Charge =  1 Multiplicity = 2

                         Standard orientation:
 ---------------------------------------------------------------------
 Center     Atomic      Atomic             Coordinates (Angstroms)
 Number     Number       Type             X           Y           Z
 ---------------------------------------------------------------------
      1          6           0        0.778102    0.699037    0.000000
      2          6           0        0.030447   -0.012859    1.077444
      3          6           0        0.030447   -1.045255   -0.000000
      4          6           0        0.030447   -0.012859   -1.077444
      5          6           0       -0.865603    0.370433    0.000000
      6          1           0       -0.011520    0.004515    2.154348
      7          1           0       -0.011520    0.004515   -2.154348
 ---------------------------------------------------------------------

 SCF Done:  E(UB3LYP) =  -191.116337493     A.U. after   18 cycles

 The electronic state is 2-A'.
 Alpha  occ. eigenvalues --  -10.55803 -10.54489 -10.54472 -10.53663 -10.53659
 Alpha  occ. eigenvalues --   -1.35123  -1.00869  -0.93088  -0.88239  -0.83266
 Alpha  occ. eigenvalues --   -0.72958  -0.68700  -0.66333  -0.61845  -0.56440
 Alpha  occ. eigenvalues --   -0.55325
 Alpha virt. eigenvalues --   -0.34837  -0.28799  -0.22294  -0.16593  -0.15909
 Alpha virt. eigenvalues --   -0.15055  -0.14237  -0.11436  -0.09706  -0.09334
 Alpha virt. eigenvalues --   -0.07190  -0.06702  -0.05787  -0.05604  -0.05267

  Beta  occ. eigenvalues --  -10.54292 -10.54169 -10.54153 -10.53702 -10.53696
  Beta  occ. eigenvalues --   -1.34470  -1.00686  -0.91761  -0.85622  -0.83175
  Beta  occ. eigenvalues --   -0.72773  -0.68512  -0.65634  -0.57890  -0.54767
  Beta virt. eigenvalues --   -0.43885  -0.33058  -0.27266  -0.19591  -0.15887
  Beta virt. eigenvalues --   -0.15847  -0.14838  -0.14179  -0.10580  -0.09280
  Beta virt. eigenvalues --   -0.09202  -0.06969  -0.06175  -0.05735  -0.05154

 Mulliken charges and spin densities:
               1          2
     1  C   -0.575402   0.176305
     2  C    0.867141  -0.046399
     3  C   -0.574389   0.175763
     4  C    0.867141  -0.046399
     5  C   -0.346143   0.740376
     6  H    0.380826   0.000177
     7  H    0.380826   0.000177
 Sum of Mulliken charges =   1.00000   1.00000

 Dipole moment (field-independent basis, Debye):
    X=             -0.8447    Y=              0.3628    Z=              0.0000  Tot=              0.9193
 Quadrupole moment (field-independent basis, Debye-Ang):
   XX=            -25.8213   YY=            -26.4578   ZZ=            -13.7538
   XY=             -0.3270   XZ=             -0.0000   YZ=             -0.0000

  Exact polarizability:  37.614   2.822  43.003  -0.000  -0.000  39.119
 Approx polarizability:  83.586   8.902 100.470   0.000  -0.000  61.898

                      1                      2                      3
                     A'                     A'                     A"
 Frequencies --    407.6699               473.5417               646.3181
 Red. masses --     10.1014                 7.5619                 8.7423
 Frc consts  --      0.9891                 0.9991                 2.1516
 IR Inten    --      3.0816                87.2847                 0.2987

                      4                      5                      6
                     A'                     A"                     A'
 Frequencies --    673.5287               679.0834               790.1408
 Red. masses --      7.2060                11.4597                 5.7625
 Frc consts  --      1.9260                 3.1136                 2.1197
 IR Inten    --      7.6686                 0.0000                 7.3273

                      7                      8                      9
                     A'                     A"                     A"
 Frequencies --    896.4746               996.4655              1020.4206
 Red. masses --      2.0991                 1.2529                 1.1852
 Frc consts  --      0.9940                 0.7330                 0.7271
 IR Inten    --     29.5961                 0.0719                 0.0000

                     10                     11                     12
                     A'                     A'                     A'
 Frequencies --   1073.4312              1107.4649              1324.9111
 Red. masses --      1.1651                 2.0621                 6.2709
 Frc consts  --      0.7909                 1.4901                 6.4856
 IR Inten    --     12.6786                16.2280                 0.6013

                     13                     14                     15
                     A"                     A"                     A'
 Frequencies --   1331.7350              3273.7308              3280.8232
 Red. masses --      6.9830                 1.1062                 1.1174
 Frc consts  --      7.2967                 6.9852                 7.0863
 IR Inten    --     43.8489               177.2567                 0.6416

 - Thermochemistry -
 -------------------
 Temperature   298.150 Kelvin.  Pressure   1.00000 Atm.
 Atom     1 has atomic number  6 and mass  12.00000

 Molecular mass:    62.01565 amu.
 Principal axes and moments of inertia in atomic units:
                           1         2         3
     Eigenvalues --   131.82719 187.56094 210.07004
           X            0.00000   0.39513   0.91863
           Y            0.00000   0.91863  -0.39513
           Z            1.00000  -0.00000   0.00000
 This molecule is an asymmetric top.
 Rotational symmetry number  1.
 Rotational temperatures (Kelvin)      0.65703     0.46179     0.41231
 Rotational constants (GHZ):          13.69020     9.62216     8.59114
 Zero-point vibrational energy     107518.8 (Joules/Mol)
                                   25.69761 (Kcal/Mol)
 Warning -- explicit consideration of   2 degrees of freedom as
           vibrations may cause significant error
 Vibrational temperatures:    586.55   681.32   929.91   969.06   977.05
          (Kelvin)           1136.83  1289.83  1433.69  1468.16  1544.43
                             1593.39  1906.25  1916.07  4710.16  4720.37

 Zero-point correction=                           0.040952 (Hartree/Particle)
 Thermal correction to Energy=                    0.044991
 Thermal correction to Enthalpy=                  0.045935
 Thermal correction to Gibbs Free Energy=         0.014451
 Sum of electronic and zero-point Energies=           -191.075386
 Sum of electronic and thermal Energies=              -191.071346
 Sum of electronic and thermal Enthalpies=            -191.070402
 Sum of electronic and thermal Free Energies=         -191.101887

                     E (Thermal)             CV                S
                      KCal/Mol        Cal/Mol-Kelvin    Cal/Mol-Kelvin
 Total                   28.232             14.165             66.265
 Electronic               0.000              0.000              1.377
 Translational            0.889              2.981             38.294
 Rotational               0.889              2.981             23.167
 Vibrational             26.455              8.204              3.427
 Vibration     1          0.772              1.454              0.935
 Vibration     2          0.830              1.309              0.728

 Optimization completed.
    -- Stationary point found.
 Normal termination of Gaussian 09 at Tue Jul 19 07:35:18 2016.
