 Gaussian 09, Revision E.01,
 Gaussian 09:  EM64L-G09RevE.01 30-Nov-2015

 ---------------------------------------------
 #p b3lyp/6-311++G(3df,2p) freq symmetry=Loose
 ---------------------------------------------

 ---------
 b3lyp opt
 ---------
 Symbolic Z-matrix:
 Charge =  0 Multiplicity = 3

                         Standard orientation:
 ---------------------------------------------------------------------
 Center     Atomic      Atomic             Coordinates (Angstroms)
 Number     Number       Type             X           Y           Z
 ---------------------------------------------------------------------
      1          6           0        1.446998    0.597235    0.037595
      2          6           0        0.205596   -0.375349    0.426849
      3          6           0       -1.069542   -0.016838   -0.056505
      4          6           0       -2.291108    0.217159   -0.163682
      5          6           0        1.374928   -0.536190   -0.533002
      6          1           0        0.227762   -0.885890    1.384630
      7          1           0        1.771011    1.569780    0.347842
 ---------------------------------------------------------------------

 SCF Done:  E(UB3LYP) =  -191.430398702     A.U. after   25 cycles

 The electronic state is 3-A.
 Alpha  occ. eigenvalues --  -10.26883 -10.24231 -10.23225 -10.23018 -10.22805
 Alpha  occ. eigenvalues --   -0.92103  -0.80701  -0.68995  -0.59702  -0.53488
 Alpha  occ. eigenvalues --   -0.45624  -0.42341  -0.37437  -0.33864  -0.31976
 Alpha  occ. eigenvalues --   -0.31122  -0.25393
 Alpha virt. eigenvalues --   -0.03307  -0.02552  -0.00920   0.00120   0.01534
 Alpha virt. eigenvalues --    0.03086   0.03698   0.06093   0.06756   0.07043
 Alpha virt. eigenvalues --    0.08289   0.09400   0.09744   0.10106   0.10356

  Beta  occ. eigenvalues --  -10.26345 -10.23080 -10.22622 -10.22455 -10.22040
  Beta  occ. eigenvalues --   -0.90896  -0.77940  -0.66897  -0.58914  -0.52585
  Beta  occ. eigenvalues --   -0.42958  -0.39811  -0.30837  -0.30477  -0.29710
  Beta virt. eigenvalues --   -0.20545  -0.14749  -0.02005  -0.00882   0.00045
  Beta virt. eigenvalues --    0.01216   0.02557   0.03538   0.04242   0.06326
  Beta virt. eigenvalues --    0.07032   0.07383   0.08861   0.09651   0.10286

 Mulliken charges and spin densities:
               1          2
     1  C    0.175211   0.040864
     2  C   -0.014951   0.227924
     3  C    0.411555  -0.008985
     4  C   -0.632949   1.154061
     5  C   -0.415681   0.592974
     6  H    0.192109  -0.010285
     7  H    0.284708   0.003448
 Sum of Mulliken charges =  -0.00000   2.00000

 Dipole moment (field-independent basis, Debye):
    X=              1.5555    Y=              1.1902    Z=              1.1642  Tot=              2.2784
 Quadrupole moment (field-independent basis, Debye-Ang):
   XX=            -33.6943   YY=            -28.0898   ZZ=            -28.8206
   XY=              3.2670   XZ=              2.6267   YZ=             -0.9992

  Exact polarizability: 128.698 -11.330  51.049  -2.779   3.577  43.165
 Approx polarizability: 191.612 -19.066  80.001 -11.533  10.022  65.697

                      1                      2                      3
                      A                      A                      A
 Frequencies --    193.3898               225.4436               386.3412
 Red. masses --      4.9008                 8.5190                 5.7473
 Frc consts  --      0.1080                 0.2551                 0.5054
 IR Inten    --      2.6866                17.9629                22.7285

                      4                      5                      6
                      A                      A                      A
 Frequencies --    494.6806               575.3461               649.1181
 Red. masses --      9.5407                 6.6772                 1.3928
 Frc consts  --      1.3756                 1.3023                 0.3458
 IR Inten    --     42.9867                 0.7477                68.3738

                      7                      8                      9
                      A                      A                      A
 Frequencies --    825.2617               855.0972               916.3198
 Red. masses --      1.9198                 2.1331                 1.3790
 Frc consts  --      0.7704                 0.9189                 0.6822
 IR Inten    --    368.0381                98.8395                13.5918

                     10                     11                     12
                      A                      A                      A
 Frequencies --    992.1277              1308.3599              1403.7794
 Red. masses --      4.7710                 1.2275                 7.9153
 Frc consts  --      2.7669                 1.2380                 9.1900
 IR Inten    --    292.4024               190.7007              1168.0739

                     13                     14                     15
                      A                      A                      A
 Frequencies --   1741.3200              3111.3411              3330.3358
 Red. masses --      6.6282                 1.0836                 1.1241
 Frc consts  --     11.8414                 6.1801                 7.3455
 IR Inten    --     14.8910                 3.7846                26.0971

 - Thermochemistry -
 -------------------
 Temperature   298.150 Kelvin.  Pressure   1.00000 Atm.
 Atom     1 has atomic number  6 and mass  12.00000

 Molecular mass:    62.01565 amu.
 Principal axes and moments of inertia in atomic units:
                           1         2         3
     Eigenvalues --    75.59910 486.18563 505.39967
           X            0.99971   0.02330   0.00553
           Y           -0.02248   0.99265  -0.11889
           Z           -0.00826   0.11873   0.99289
 This molecule is an asymmetric top.
 Rotational symmetry number  1.
 Rotational temperatures (Kelvin)      1.14570     0.17815     0.17138
 Rotational constants (GHZ):          23.87252     3.71204     3.57092
 Zero-point vibrational energy     101732.0 (Joules/Mol)
                                   24.31453 (Kcal/Mol)
 Warning -- explicit consideration of   5 degrees of freedom as
           vibrations may cause significant error
 Vibrational temperatures:    278.24   324.36   555.86   711.73   827.79
          (Kelvin)            933.94  1187.37  1230.29  1318.38  1427.45
                             1882.44  2019.72  2505.37  4476.52  4791.60

 Zero-point correction=                           0.038748 (Hartree/Particle)
 Thermal correction to Energy=                    0.043777
 Thermal correction to Enthalpy=                  0.044721
 Thermal correction to Gibbs Free Energy=         0.010415
 Sum of electronic and zero-point Energies=           -191.391651
 Sum of electronic and thermal Energies=              -191.386622
 Sum of electronic and thermal Enthalpies=            -191.385677
 Sum of electronic and thermal Free Energies=         -191.419983

                     E (Thermal)             CV                S
                      KCal/Mol        Cal/Mol-Kelvin    Cal/Mol-Kelvin
 Total                   27.471             16.707             72.203
 Electronic               0.000              0.000              2.183
 Translational            0.889              2.981             38.294
 Rotational               0.889              2.981             24.433
 Vibrational             25.693             10.745              7.293
 Vibration     1          0.635              1.849              2.195
 Vibration     2          0.650              1.802              1.915
 Vibration     3          0.755              1.499              1.014
 Vibration     4          0.850              1.262              0.672
 Vibration     5          0.932              1.085              0.494

 Normal termination of Gaussian 09 at Sun Jun 19 02:22:28 2016.
