 Gaussian 09, Revision E.01,
 Gaussian 09:  EM64L-G09RevE.01 30-Nov-2015

 ---------------------------------------------
 #p b3lyp/6-311++G(3df,2p) freq symmetry=Loose
 ---------------------------------------------

 ---------
 b3lyp opt
 ---------
 Symbolic Z-matrix:
 Charge =  0 Multiplicity = 1

                         Standard orientation:
 ---------------------------------------------------------------------
 Center     Atomic      Atomic             Coordinates (Angstroms)
 Number     Number       Type             X           Y           Z
 ---------------------------------------------------------------------
      1          6           0       -1.070502   -0.000112   -0.000097
      2          6           0       -2.384900    0.000046    0.000453
      3          6           0        0.190017    0.000035   -0.000575
      4          6           0        1.485792   -0.000054   -0.000657
      5          6           0        2.763801    0.000048    0.000648
      6          1           0       -2.952753   -0.924963    0.000673
      7          1           0       -2.952487    0.925187    0.000680
 ---------------------------------------------------------------------

 SCF Done:  E(RB3LYP) =  -191.560463103     A.U. after   14 cycles

 The electronic state is 1-A.
 Alpha  occ. eigenvalues --  -10.26555 -10.25966 -10.23811 -10.21744 -10.19271
 Alpha  occ. eigenvalues --   -0.86058  -0.80375  -0.73615  -0.64377  -0.54366
 Alpha  occ. eigenvalues --   -0.50637  -0.40750  -0.38127  -0.31513  -0.29278
 Alpha  occ. eigenvalues --   -0.26253
 Alpha virt. eigenvalues --   -0.16683  -0.05886  -0.02114  -0.01297   0.01236
 Alpha virt. eigenvalues --    0.02118   0.04348   0.05726   0.07282   0.07796
 Alpha virt. eigenvalues --    0.08089   0.09061   0.09153   0.10149   0.11612

 Mulliken charges:
               1
     1  C    0.734383
     2  C   -0.567472
     3  C   -0.812025
     4  C    1.087149
     5  C   -0.844751
     6  H    0.201325
     7  H    0.201391
 Sum of Mulliken charges =  -0.00000

 Dipole moment (field-independent basis, Debye):
    X=             -6.2595    Y=              0.0001    Z=             -0.0013  Tot=              6.2595
 Quadrupole moment (field-independent basis, Debye-Ang):
   XX=            -34.0041   YY=            -29.0757   ZZ=            -29.1849
   XY=             -0.0004   XZ=             -0.0094   YZ=              0.0000

  Exact polarizability: 153.131   0.001  38.832  -0.008   0.000  36.753
 Approx polarizability: 367.706   0.007  54.022  -0.019   0.000  52.953

                      1                      2                      3
                      A                      A                      A
 Frequencies --    130.6999               145.6900               276.2126
 Red. masses --      6.7244                 4.6728                 4.8395
 Frc consts  --      0.0677                 0.0584                 0.2175
 IR Inten    --      2.8273                 0.0462                 6.3626

                      4                      5                      6
                      A                      A                      A
 Frequencies --    286.9538               514.9969               623.8816
 Red. masses --      7.0983                11.3006                10.1507
 Frc consts  --      0.3444                 1.7659                 2.3278
 IR Inten    --      9.8283                 0.8868                 3.4067

                      7                      8                      9
                      A                      A                      A
 Frequencies --    770.3228               980.4810              1035.1157
 Red. masses --      6.5794                 1.3397                 1.3982
 Frc consts  --      2.3003                 0.7588                 0.8827
 IR Inten    --      0.0665                30.7135                 0.5378

                     10                     11                     12
                      A                      A                      A
 Frequencies --   1373.7020              1515.9852              1977.8539
 Red. masses --      1.9726                 1.9647                11.3059
 Frc consts  --      2.1932                 2.6603                26.0582
 IR Inten    --      9.0032                 7.9958               227.0973

                     13                     14                     15
                      A                      A                      A
 Frequencies --   2207.0434              3099.2236              3175.1224
 Red. masses --     11.8090                 1.0557                 1.1162
 Frc consts  --     33.8911                 5.9746                 6.6300
 IR Inten    --    857.9559                 1.6666                 0.0063

 - Thermochemistry -
 -------------------
 Temperature   298.150 Kelvin.  Pressure   1.00000 Atm.
 Atom     1 has atomic number  6 and mass  12.00000

 Molecular mass:    62.01565 amu.
 Principal axes and moments of inertia in atomic units:
                           1         2         3
     Eigenvalues --     6.15987 777.10264 783.26238
           X            1.00000  -0.00000   0.00003
           Y            0.00000   1.00000  -0.00000
           Z           -0.00003   0.00000   1.00000
 This molecule is an asymmetric top.
 Rotational symmetry number  1.
 Rotational temperatures (Kelvin)     14.06099     0.11146     0.11058
 Rotational constants (GHZ):         292.98386     2.32240     2.30413
 Zero-point vibrational energy     108341.5 (Joules/Mol)
                                   25.89424 (Kcal/Mol)
 Warning -- explicit consideration of   5 degrees of freedom as
           vibrations may cause significant error
 Vibrational temperatures:    188.05   209.62   397.41   412.86   740.96
          (Kelvin)            897.63  1108.32  1410.69  1489.30  1976.45
                             2181.16  2845.69  3175.44  4459.09  4568.29

 Zero-point correction=                           0.041265 (Hartree/Particle)
 Thermal correction to Energy=                    0.046847
 Thermal correction to Enthalpy=                  0.047791
 Thermal correction to Gibbs Free Energy=         0.013900
 Sum of electronic and zero-point Energies=           -191.519198
 Sum of electronic and thermal Energies=              -191.513616
 Sum of electronic and thermal Enthalpies=            -191.512672
 Sum of electronic and thermal Free Energies=         -191.546563

                     E (Thermal)             CV                S
                      KCal/Mol        Cal/Mol-Kelvin    Cal/Mol-Kelvin
 Total                   29.397             17.051             71.330
 Electronic               0.000              0.000              0.000
 Translational            0.889              2.981             38.294
 Rotational               0.889              2.981             22.843
 Vibrational             27.620             11.089             10.193
 Vibration     1          0.612              1.923              2.936
 Vibration     2          0.617              1.907              2.728
 Vibration     3          0.678              1.717              1.557
 Vibration     4          0.684              1.698              1.492
 Vibration     5          0.870              1.217              0.622

 Optimization completed.
    -- Stationary point found.
 Normal termination of Gaussian 09 at Sun Jun 19 01:28:48 2016.
