 Gaussian 09, Revision E.01,
 Gaussian 09:  EM64L-G09RevE.01 30-Nov-2015

 ---------------------------------------------
 #p b3lyp/6-311++G(3df,2p) freq symmetry=Loose
 ---------------------------------------------

 ---------
 b3lyp opt
 ---------
 Symbolic Z-matrix:
 Charge =  0 Multiplicity = 3

                         Standard orientation:
 ---------------------------------------------------------------------
 Center     Atomic      Atomic             Coordinates (Angstroms)
 Number     Number       Type             X           Y           Z
 ---------------------------------------------------------------------
      1          6           0       -1.248882    1.226968   -0.000000
      2          6           0       -0.000000    0.657794    0.000000
      3          6           0        0.527199   -0.771039    0.000000
      4          6           0       -0.011180   -1.983433   -0.000000
      5          6           0        1.321757    0.401295    0.000000
      6          1           0       -1.766683    1.405245    0.932181
      7          1           0       -1.766683    1.405245   -0.932181
 ---------------------------------------------------------------------

 SCF Done:  E(UB3LYP) =  -191.447551656     A.U. after   18 cycles

 The electronic state is 3-A".
 Alpha  occ. eigenvalues --  -10.29315 -10.26440 -10.24916 -10.24645 -10.24317
 Alpha  occ. eigenvalues --   -0.96640  -0.80556  -0.76895  -0.57135  -0.51512
 Alpha  occ. eigenvalues --   -0.49181  -0.45053  -0.42177  -0.32791  -0.30309
 Alpha  occ. eigenvalues --   -0.27750  -0.26234
 Alpha virt. eigenvalues --   -0.09657  -0.06377  -0.01849   0.00805   0.02194
 Alpha virt. eigenvalues --    0.03064   0.04431   0.05953   0.06658   0.07061
 Alpha virt. eigenvalues --    0.07526   0.09315   0.09324   0.10465   0.10995

  Beta  occ. eigenvalues --  -10.29053 -10.26191 -10.24517 -10.23919 -10.22928
  Beta  occ. eigenvalues --   -0.95608  -0.78026  -0.72660  -0.55997  -0.50191
  Beta  occ. eigenvalues --   -0.47898  -0.43851  -0.39434  -0.29945  -0.28309
  Beta virt. eigenvalues --   -0.16926  -0.15312  -0.06231  -0.04439  -0.01580
  Beta virt. eigenvalues --    0.01581   0.03196   0.04026   0.04910   0.06028
  Beta virt. eigenvalues --    0.06903   0.07866   0.08767   0.09505   0.10063

 Mulliken charges and spin densities:
               1          2
     1  C   -0.604637   0.744948
     2  C    0.566474   0.157737
     3  C    0.865285   0.187789
     4  C   -0.774848   0.858888
     5  C   -0.450160   0.065994
     6  H    0.198943  -0.007678
     7  H    0.198943  -0.007678
 Sum of Mulliken charges =  -0.00000   2.00000

 Dipole moment (field-independent basis, Debye):
    X=             -2.4316    Y=              2.9511    Z=             -0.0000  Tot=              3.8239
 Quadrupole moment (field-independent basis, Debye-Ang):
   XX=            -30.5617   YY=            -36.0615   ZZ=            -27.7007
   XY=             -5.0903   XZ=              0.0000   YZ=             -0.0000

  Exact polarizability:  68.763  -9.063  87.768   0.000   0.000  40.169
 Approx polarizability: 122.857 -14.702 170.421   0.000  -0.000  57.879

                      1                      2                      3
                     A"                     A'                     A"
 Frequencies --    177.1180               212.9015               349.2881
 Red. masses --      1.0769                 5.4930                 4.2710
 Frc consts  --      0.0199                 0.1467                 0.3070
 IR Inten    --      5.2348                 7.2815                 7.8317

                      4                      5                      6
                     A'                     A"                     A'
 Frequencies --    385.5378               399.6515               459.1253
 Red. masses --      6.5593                 4.8168                 7.9596
 Frc consts  --      0.5744                 0.4533                 0.9886
 IR Inten    --      2.1978                11.8943                11.5782

                      7                      8                      9
                     A'                     A'                     A'
 Frequencies --    674.3361               871.6739               962.7495
 Red. masses --      1.4538                10.0581                 5.3508
 Frc consts  --      0.3895                 4.5027                 2.9221
 IR Inten    --     56.1547                 2.1205                 3.8492

                     10                     11                     12
                     A"                     A'                     A'
 Frequencies --    986.6820              1416.1092              1430.1138
 Red. masses --      1.5109                 1.6235                 2.9642
 Frc consts  --      0.8666                 1.9182                 3.5719
 IR Inten    --      0.4063                28.0149                16.8094

                     13                     14                     15
                     A'                     A'                     A"
 Frequencies --   1706.6858              3140.8479              3238.7989
 Red. masses --     11.6574                 1.0499                 1.1176
 Frc consts  --     20.0060                 6.1021                 6.9070
 IR Inten    --     30.5420                 8.4932                 3.8056

 - Thermochemistry -
 -------------------
 Temperature   298.150 Kelvin.  Pressure   1.00000 Atm.
 Atom     1 has atomic number  6 and mass  12.00000

 Molecular mass:    62.01565 amu.
 Principal axes and moments of inertia in atomic units:
                           1         2         3
     Eigenvalues --   144.70025 340.96810 473.15876
           X           -0.43379   0.90101   0.00000
           Y            0.90101   0.43379   0.00000
           Z           -0.00000  -0.00000   1.00000
 This molecule is an asymmetric top.
 Rotational symmetry number  1.
 Rotational temperatures (Kelvin)      0.59857     0.25402     0.18305
 Rotational constants (GHZ):          12.47227     5.29299     3.81424
 Zero-point vibrational energy      98163.3 (Joules/Mol)
                                   23.46159 (Kcal/Mol)
 Warning -- explicit consideration of   6 degrees of freedom as
           vibrations may cause significant error
 Vibrational temperatures:    254.83   306.32   502.55   554.70   575.01
          (Kelvin)            660.58   970.22  1254.14  1385.18  1419.61
                             2037.46  2057.61  2455.54  4518.97  4659.90

 Zero-point correction=                           0.037388 (Hartree/Particle)
 Thermal correction to Energy=                    0.042891
 Thermal correction to Enthalpy=                  0.043835
 Thermal correction to Gibbs Free Energy=         0.008593
 Sum of electronic and zero-point Energies=           -191.410163
 Sum of electronic and thermal Energies=              -191.404660
 Sum of electronic and thermal Enthalpies=            -191.403716
 Sum of electronic and thermal Free Energies=         -191.438958

                     E (Thermal)             CV                S
                      KCal/Mol        Cal/Mol-Kelvin    Cal/Mol-Kelvin
 Total                   26.915             18.005             74.173
 Electronic               0.000              0.000              2.183
 Translational            0.889              2.981             38.294
 Rotational               0.889              2.981             24.660
 Vibrational             25.137             12.044              9.036
 Vibration     1          0.628              1.871              2.359
 Vibration     2          0.644              1.821              2.019
 Vibration     3          0.727              1.577              1.169
 Vibration     4          0.754              1.501              1.017
 Vibration     5          0.766              1.471              0.964
 Vibration     6          0.817              1.341              0.769

 Optimization completed.
    -- Stationary point found.
 Normal termination of Gaussian 09 at Tue Jul 19 06:22:59 2016.
