 Gaussian 09, Revision E.01,
 Gaussian 09:  EM64L-G09RevE.01 30-Nov-2015

 ---------------------------------------------
 #p b3lyp/6-311++G(3df,2p) freq symmetry=Loose
 ---------------------------------------------

 ---------
 b3lyp opt
 ---------
 Symbolic Z-matrix:
 Charge =  0 Multiplicity = 3

                         Standard orientation:
 ---------------------------------------------------------------------
 Center     Atomic      Atomic             Coordinates (Angstroms)
 Number     Number       Type             X           Y           Z
 ---------------------------------------------------------------------
      1          6           0       -0.057920    0.758416    0.000000
      2          6           0       -0.057920   -0.472096    0.901726
      3          6           0       -0.445615   -1.433992   -0.000000
      4          6           0       -0.057920   -0.472096   -0.901726
      5          6           0        0.893468    1.815539    0.000000
      6          1           0       -0.631789   -2.491385   -0.000000
      7          1           0       -1.012766    1.316753    0.000000
 ---------------------------------------------------------------------

 SCF Done:  E(UB3LYP) =  -191.386445788     A.U. after   19 cycles

 The electronic state is 3-A'.
 Alpha  occ. eigenvalues --  -10.27560 -10.25275 -10.25043 -10.25043 -10.23837
 Alpha  occ. eigenvalues --   -0.96319  -0.79802  -0.63780  -0.60398  -0.54792
 Alpha  occ. eigenvalues --   -0.48193  -0.44931  -0.38574  -0.33067  -0.31724
 Alpha  occ. eigenvalues --   -0.25820  -0.21680
 Alpha virt. eigenvalues --   -0.13565  -0.06765  -0.04428  -0.00147   0.00898
 Alpha virt. eigenvalues --    0.04303   0.04326   0.06267   0.07235   0.07353
 Alpha virt. eigenvalues --    0.08518   0.08693   0.08903   0.10670   0.11494

  Beta  occ. eigenvalues --  -10.26244 -10.25287 -10.23995 -10.23975 -10.23874
  Beta  occ. eigenvalues --   -0.95055  -0.78132  -0.62516  -0.57339  -0.53487
  Beta  occ. eigenvalues --   -0.47417  -0.42772  -0.35923  -0.30550  -0.29025
  Beta virt. eigenvalues --   -0.12258  -0.12124  -0.09124  -0.04424  -0.03273
  Beta virt. eigenvalues --    0.00008   0.01203   0.04610   0.04988   0.06433
  Beta virt. eigenvalues --    0.07282   0.08174   0.08581   0.09027   0.09497

 Mulliken charges and spin densities:
               1          2
     1  C    0.802241  -0.120669
     2  C   -0.537119   0.667127
     3  C    0.467131  -0.128466
     4  C   -0.537119   0.667127
     5  C   -0.671011   0.920606
     6  H    0.266479   0.000846
     7  H    0.209400  -0.006571
 Sum of Mulliken charges =  -0.00000   2.00000

 Dipole moment (field-independent basis, Debye):
    X=             -2.2495    Y=             -1.4800    Z=             -0.0000  Tot=              2.6927
 Quadrupole moment (field-independent basis, Debye-Ang):
   XX=            -30.0126   YY=            -28.5247   ZZ=            -34.2406
   XY=             -2.7408   XZ=             -0.0000   YZ=             -0.0000

  Exact polarizability:  44.014   9.499  67.188  -0.000   0.000  61.361
 Approx polarizability:  68.097  14.246  98.140   0.000   0.000 130.017

                      1                      2                      3
                     A'                     A"                     A'
 Frequencies --    211.8665               297.5857               520.8785
 Red. masses --      6.0317                 6.3538                 4.0266
 Frc consts  --      0.1595                 0.3315                 0.6437
 IR Inten    --      9.9549                 0.0027                24.5279

                      4                      5                      6
                     A"                     A'                     A"
 Frequencies --    601.3450               693.6680               765.7975
 Red. masses --      9.2930                 8.2817                 1.2346
 Frc consts  --      1.9800                 2.3479                 0.4266
 IR Inten    --     53.5444                 1.0320                42.0711

                      7                      8                      9
                     A'                     A'                     A"
 Frequencies --    834.4730               884.0660              1005.3404
 Red. masses --      1.7957                 2.1952                 3.3510
 Frc consts  --      0.7367                 1.0109                 1.9955
 IR Inten    --     12.3358                21.9643                14.4243

                     10                     11                     12
                     A'                     A"                     A'
 Frequencies --   1042.1129              1119.5696              1268.4513
 Red. masses --      1.6212                 1.4426                 5.4510
 Frc consts  --      1.0373                 1.0654                 5.1674
 IR Inten    --      0.2600                 0.4300                 5.7443

                     13                     14                     15
                     A'                     A'                     A'
 Frequencies --   1478.0901              2945.5504              3290.7351
 Red. masses --      7.0580                 1.0774                 1.1067
 Frc consts  --      9.0851                 5.5074                 7.0610
 IR Inten    --      4.9412                35.8417                 4.3555

 - Thermochemistry -
 -------------------
 Temperature   298.150 Kelvin.  Pressure   1.00000 Atm.
 Atom     1 has atomic number  6 and mass  12.00000

 Molecular mass:    62.01565 amu.
 Principal axes and moments of inertia in atomic units:
                           1         2         3
     Eigenvalues --    84.27548 349.74546 404.84592
           X            0.32344   0.00000   0.94625
           Y            0.94625   0.00000  -0.32344
           Z            0.00000   1.00000   0.00000
 This molecule is an asymmetric top.
 Rotational symmetry number  1.
 Rotational temperatures (Kelvin)      1.02775     0.24765     0.21394
 Rotational constants (GHZ):          21.41478     5.16016     4.45785
 Zero-point vibrational energy     101440.5 (Joules/Mol)
                                   24.24486 (Kcal/Mol)
 Warning -- explicit consideration of   4 degrees of freedom as
           vibrations may cause significant error
 Vibrational temperatures:    304.83   428.16   749.43   865.20   998.03
          (Kelvin)           1101.81  1200.62  1271.97  1446.46  1499.37
                             1610.81  1825.02  2126.64  4237.98  4734.63

 Zero-point correction=                           0.038637 (Hartree/Particle)
 Thermal correction to Energy=                    0.043242
 Thermal correction to Enthalpy=                  0.044186
 Thermal correction to Gibbs Free Energy=         0.010862
 Sum of electronic and zero-point Energies=           -191.347809
 Sum of electronic and thermal Energies=              -191.343204
 Sum of electronic and thermal Enthalpies=            -191.342259
 Sum of electronic and thermal Free Energies=         -191.375584

                     E (Thermal)             CV                S
                      KCal/Mol        Cal/Mol-Kelvin    Cal/Mol-Kelvin
 Total                   27.135             15.577             70.136
 Electronic               0.000              0.000              2.183
 Translational            0.889              2.981             38.294
 Rotational               0.889              2.981             23.993
 Vibrational             25.357              9.615              5.666
 Vibration     1          0.643              1.823              2.028
 Vibration     2          0.691              1.678              1.430
 Vibration     3          0.876              1.204              0.608
 Vibration     4          0.960              1.029              0.447

 Optimization completed.
    -- Stationary point found.
 Normal termination of Gaussian 09 at Tue Jul 19 07:16:01 2016.
