 Gaussian 09, Revision E.01,
 Gaussian 09:  EM64L-G09RevE.01 30-Nov-2015

 ---------------------------------------------
 #p b3lyp/6-311++G(3df,2p) freq symmetry=Loose
 ---------------------------------------------

 ---------
 b3lyp opt
 ---------
 Symbolic Z-matrix:
 Charge =  0 Multiplicity = 1

                         Standard orientation:
 ---------------------------------------------------------------------
 Center     Atomic      Atomic             Coordinates (Angstroms)
 Number     Number       Type             X           Y           Z
 ---------------------------------------------------------------------
      1          6           0       -0.501048   -0.961926    0.307745
      2          6           0        0.739153   -0.096152    0.087480
      3          6           0       -0.385164    0.842351    0.091111
      4          6           0       -1.368595   -0.049106   -0.299297
      5          6           0        1.990987   -0.019356   -0.221353
      6          1           0       -2.422290   -0.021059   -0.513300
      7          1           0       -0.429710    1.726192    0.719186
 ---------------------------------------------------------------------

 SCF Done:  E(RB3LYP) =  -191.476124456     A.U. after   13 cycles

 The electronic state is 1-A.
 Alpha  occ. eigenvalues --  -10.28525 -10.26102 -10.24546 -10.23168 -10.21328
 Alpha  occ. eigenvalues --   -0.97075  -0.77196  -0.66178  -0.64309  -0.51016
 Alpha  occ. eigenvalues --   -0.48866  -0.44196  -0.40601  -0.30343  -0.28012
 Alpha  occ. eigenvalues --   -0.26778
 Alpha virt. eigenvalues --   -0.12294  -0.07980  -0.06767  -0.01268   0.00738
 Alpha virt. eigenvalues --    0.02851   0.03896   0.05276   0.06423   0.06931
 Alpha virt. eigenvalues --    0.07649   0.08253   0.08437   0.09860   0.10845

 Mulliken charges:
               1
     1  C   -0.161508
     2  C    0.647540
     3  C   -0.156089
     4  C   -0.107367
     5  C   -0.637847
     6  H    0.215302
     7  H    0.199969
 Sum of Mulliken charges =  -0.00000

 Dipole moment (field-independent basis, Debye):
    X=             -3.8443    Y=              2.0767    Z=             -0.0860  Tot=              4.3702
 Quadrupole moment (field-independent basis, Debye-Ang):
   XX=            -33.2259   YY=            -28.7162   ZZ=            -30.6956
   XY=             -1.7799   XZ=              2.3379   YZ=              2.5431

  Exact polarizability:  81.360   1.839  54.588  -1.285  -2.158  39.656
 Approx polarizability: 156.467   5.532 104.214  -1.626  -6.159  61.327

                      1                      2                      3
                      A                      A                      A
 Frequencies --    207.9873               252.5989               540.7070
 Red. masses --      8.0600                 5.2591                 3.0086
 Frc consts  --      0.2054                 0.1977                 0.5182
 IR Inten    --     15.0274                 0.2996                17.7274

                      4                      5                      6
                      A                      A                      A
 Frequencies --    634.7206               672.3049               818.5424
 Red. masses --      7.3558                 4.6352                 1.5537
 Frc consts  --      1.7460                 1.2344                 0.6134
 IR Inten    --     27.1543                 4.8223                30.1570

                      7                      8                      9
                      A                      A                      A
 Frequencies --    863.3122               983.9160              1044.2446
 Red. masses --      2.1128                 3.0722                 1.3179
 Frc consts  --      0.9278                 1.7524                 0.8467
 IR Inten    --     50.2254                 5.9049                 4.5231

                     10                     11                     12
                      A                      A                      A
 Frequencies --   1177.6094              1277.1169              1435.0439
 Red. masses --      1.4813                 2.8032                 5.2378
 Frc consts  --      1.2103                 2.6938                 6.3552
 IR Inten    --      5.4504                 9.1867                15.4938

                     13                     14                     15
                      A                      A                      A
 Frequencies --   1797.1732              3139.6885              3266.6852
 Red. masses --     11.4134                 1.0920                 1.1051
 Frc consts  --     21.7192                 6.3423                 6.9481
 IR Inten    --    231.5402                 2.4556                 4.0403

 - Thermochemistry -
 -------------------
 Temperature   298.150 Kelvin.  Pressure   1.00000 Atm.
 Atom     1 has atomic number  6 and mass  12.00000

 Molecular mass:    62.01565 amu.
 Principal axes and moments of inertia in atomic units:
                           1         2         3
     Eigenvalues --    94.55321 325.21644 393.44269
           X            0.99987  -0.01271   0.01035
           Y            0.01201   0.99781   0.06501
           Z           -0.01115  -0.06488   0.99783
 This molecule is an asymmetric top.
 Rotational symmetry number  1.
 Rotational temperatures (Kelvin)      0.91603     0.26633     0.22014
 Rotational constants (GHZ):          19.08704     5.54935     4.58705
 Zero-point vibrational energy     108331.7 (Joules/Mol)
                                   25.89190 (Kcal/Mol)
 Warning -- explicit consideration of   3 degrees of freedom as
           vibrations may cause significant error
 Vibrational temperatures:    299.25   363.43   777.96   913.22   967.30
          (Kelvin)           1177.70  1242.11  1415.63  1502.43  1694.32
                             1837.48  2064.71  2585.73  4517.31  4700.03

 Zero-point correction=                           0.041261 (Hartree/Particle)
 Thermal correction to Energy=                    0.045831
 Thermal correction to Enthalpy=                  0.046775
 Thermal correction to Gibbs Free Energy=         0.014466
 Sum of electronic and zero-point Energies=           -191.434863
 Sum of electronic and thermal Energies=              -191.430294
 Sum of electronic and thermal Enthalpies=            -191.429349
 Sum of electronic and thermal Free Energies=         -191.461658

                     E (Thermal)             CV                S
                      KCal/Mol        Cal/Mol-Kelvin    Cal/Mol-Kelvin
 Total                   28.759             14.949             67.999
 Electronic               0.000              0.000              0.000
 Translational            0.889              2.981             38.294
 Rotational               0.889              2.981             24.007
 Vibrational             26.982              8.988              5.698
 Vibration     1          0.641              1.828              2.061
 Vibration     2          0.664              1.758              1.712
 Vibration     3          0.896              1.160              0.564

 Optimization completed.
    -- Stationary point found.
 Normal termination of Gaussian 09 at Sun Jun 19 01:30:07 2016.
