 Gaussian 09, Revision E.01,
 Gaussian 09:  EM64L-G09RevE.01 30-Nov-2015

 ---------------------------------------------
 #p b3lyp/6-311++G(3df,2p) freq symmetry=Loose
 ---------------------------------------------

 ---------
 b3lyp opt
 ---------
 Symbolic Z-matrix:
 Charge =  0 Multiplicity = 3

                         Standard orientation:
 ---------------------------------------------------------------------
 Center     Atomic      Atomic             Coordinates (Angstroms)
 Number     Number       Type             X           Y           Z
 ---------------------------------------------------------------------
      1          6           0       -1.136910   -0.446610    0.181781
      2          6           0        0.224469   -0.265155    0.075482
      3          6           0        1.286996    0.649915    0.140971
      4          6           0        1.567330   -0.576924   -0.300830
      5          6           0       -1.940871    0.595569   -0.262375
      6          1           0        1.518250    1.659121    0.437848
      7          1           0       -1.524331   -1.399899    0.551981
 ---------------------------------------------------------------------

 SCF Done:  E(UB3LYP) =  -191.434110759     A.U. after   22 cycles

 The electronic state is 3-A.
 Alpha  occ. eigenvalues --  -10.29403 -10.27748 -10.27045 -10.21025 -10.20660
 Alpha  occ. eigenvalues --   -0.98735  -0.81487  -0.64549  -0.61813  -0.54813
 Alpha  occ. eigenvalues --   -0.48493  -0.43876  -0.42963  -0.32975  -0.29545
 Alpha  occ. eigenvalues --   -0.28333  -0.20165
 Alpha virt. eigenvalues --   -0.09103  -0.06379  -0.00974   0.00302   0.00531
 Alpha virt. eigenvalues --    0.03018   0.04123   0.04913   0.06239   0.07108
 Alpha virt. eigenvalues --    0.07755   0.09057   0.09688   0.10712   0.11499

  Beta  occ. eigenvalues --  -10.28995 -10.27550 -10.26197 -10.20946 -10.19073
  Beta  occ. eigenvalues --   -0.97579  -0.79728  -0.63364  -0.58978  -0.52510
  Beta  occ. eigenvalues --   -0.46406  -0.42630  -0.41406  -0.29376  -0.26237
  Beta virt. eigenvalues --   -0.18978  -0.08188  -0.06070  -0.04005  -0.00694
  Beta virt. eigenvalues --    0.00656   0.02009   0.03281   0.04232   0.05336
  Beta virt. eigenvalues --    0.06481   0.07391   0.08240   0.09226   0.10096

 Mulliken charges and spin densities:
               1          2
     1  C   -0.033413   0.066808
     2  C    0.242987   0.129464
     3  C    0.257267   0.042032
     4  C   -0.284944   0.540462
     5  C   -0.604842   1.128054
     6  H    0.267743   0.011142
     7  H    0.155202   0.082038
 Sum of Mulliken charges =  -0.00000   2.00000

 Dipole moment (field-independent basis, Debye):
    X=              3.1970    Y=             -0.1772    Z=              1.6134  Tot=              3.5855
 Quadrupole moment (field-independent basis, Debye-Ang):
   XX=            -36.1193   YY=            -28.6572   ZZ=            -29.6747
   XY=              8.3150   XZ=             -0.4300   YZ=              0.3278

  Exact polarizability: 137.696 -19.432  58.763   1.760  -1.762  40.953
 Approx polarizability: 263.550 -47.964  96.165  -1.843  -0.092  62.337

                      1                      2                      3
                      A                      A                      A
 Frequencies --     70.3230               201.0131               352.7429
 Red. masses --      5.7953                 4.7175                 2.3638
 Frc consts  --      0.0169                 0.1123                 0.1733
 IR Inten    --     35.0773                16.0943                78.6625

                      4                      5                      6
                      A                      A                      A
 Frequencies --    525.8571               657.5871               804.3107
 Red. masses --      5.9900                 2.6572                 2.7033
 Frc consts  --      0.9759                 0.6770                 1.0304
 IR Inten    --     62.3148               234.6626                 9.3042

                      7                      8                      9
                      A                      A                      A
 Frequencies --    826.7382               901.4564               975.0289
 Red. masses --      1.6743                 3.2876                 1.5839
 Frc consts  --      0.6743                 1.5741                 0.8872
 IR Inten    --     87.7553               173.3239                34.6162

                     10                     11                     12
                      A                      A                      A
 Frequencies --   1130.2072              1270.7706              1359.0948
 Red. masses --      1.3927                 4.1395                 7.2356
 Frc consts  --      1.0482                 3.9385                 7.8746
 IR Inten    --     13.9244               147.0265               103.8219

                     13                     14                     15
                      A                      A                      A
 Frequencies --   1679.8687              3010.6789              3258.7487
 Red. masses --      7.8624                 1.0830                 1.1136
 Frc consts  --     13.0724                 5.7835                 6.9673
 IR Inten    --    118.8404                 4.9120                19.5060

 - Thermochemistry -
 -------------------
 Temperature   298.150 Kelvin.  Pressure   1.00000 Atm.
 Atom     1 has atomic number  6 and mass  12.00000

 Molecular mass:    62.01565 amu.
 Principal axes and moments of inertia in atomic units:
                           1         2         3
     Eigenvalues --    86.34276 423.75958 487.96340
           X            0.99880   0.04891  -0.00167
           Y           -0.04892   0.99880  -0.00272
           Z            0.00154   0.00280   0.99999
 This molecule is an asymmetric top.
 Rotational symmetry number  1.
 Rotational temperatures (Kelvin)      1.00314     0.20439     0.17750
 Rotational constants (GHZ):          20.90206     4.25888     3.69852
 Zero-point vibrational energy     101828.7 (Joules/Mol)
                                   24.33764 (Kcal/Mol)
 Warning -- explicit consideration of   4 degrees of freedom as
           vibrations may cause significant error
 Vibrational temperatures:    101.18   289.21   507.52   756.59   946.12
          (Kelvin)           1157.22  1189.49  1296.99  1402.85  1626.11
                             1828.35  1955.43  2416.95  4331.69  4688.61

 Zero-point correction=                           0.038784 (Hartree/Particle)
 Thermal correction to Energy=                    0.043952
 Thermal correction to Enthalpy=                  0.044897
 Thermal correction to Gibbs Free Energy=         0.009739
 Sum of electronic and zero-point Energies=           -191.395326
 Sum of electronic and thermal Energies=              -191.390158
 Sum of electronic and thermal Enthalpies=            -191.389214
 Sum of electronic and thermal Free Energies=         -191.424372

                     E (Thermal)             CV                S
                      KCal/Mol        Cal/Mol-Kelvin    Cal/Mol-Kelvin
 Total                   27.581             16.177             73.995
 Electronic               0.000              0.000              2.183
 Translational            0.889              2.981             38.294
 Rotational               0.889              2.981             24.394
 Vibrational             25.803             10.216              9.125
 Vibration     1          0.598              1.968              4.144
 Vibration     2          0.638              1.838              2.124
 Vibration     3          0.729              1.570              1.154
 Vibration     4          0.881              1.193              0.597

 Normal termination of Gaussian 09 at Sun Jun 19 01:42:21 2016.
