 Gaussian 09, Revision E.01,
 Gaussian 09:  EM64L-G09RevE.01 30-Nov-2015

 ---------------------------------------------
 #p b3lyp/6-311++G(3df,2p) freq symmetry=Loose
 ---------------------------------------------

 ---------
 b3lyp opt
 ---------
 Symbolic Z-matrix:
 Charge =  1 Multiplicity = 2

                         Standard orientation:
 ---------------------------------------------------------------------
 Center     Atomic      Atomic             Coordinates (Angstroms)
 Number     Number       Type             X           Y           Z
 ---------------------------------------------------------------------
      1          6           0       -1.319162    0.303060   -0.000000
      2          6           0       -0.000000    0.782474    0.000000
      3          6           0        1.132424    0.001249    0.000000
      4          6           0        2.200829   -0.578608    0.000000
      5          6           0       -1.676078   -0.983483   -0.000000
      6          1           0        0.146684    1.860793    0.000000
      7          1           0       -2.174765    0.991050   -0.000000
 ---------------------------------------------------------------------

 SCF Done:  E(UB3LYP) =  -191.111473083     A.U. after   28 cycles

 The electronic state is 2-A'.
 Alpha  occ. eigenvalues --  -10.52802 -10.52292 -10.51551 -10.44760 -10.44464
 Alpha  occ. eigenvalues --   -1.10727  -1.03585  -0.96101  -0.83146  -0.74979
 Alpha  occ. eigenvalues --   -0.70595  -0.64340  -0.62350  -0.55875  -0.54868
 Alpha  occ. eigenvalues --   -0.54043
 Alpha virt. eigenvalues --   -0.39623  -0.35688  -0.23495  -0.22555  -0.15139
 Alpha virt. eigenvalues --   -0.13112  -0.13104  -0.11416  -0.09974  -0.08339
 Alpha virt. eigenvalues --   -0.07389  -0.06953  -0.05725  -0.04735  -0.04609

  Beta  occ. eigenvalues --  -10.52936 -10.52280 -10.49080 -10.44686 -10.44489
  Beta  occ. eigenvalues --   -1.10818  -1.02399  -0.94970  -0.82833  -0.75096
  Beta  occ. eigenvalues --   -0.70464  -0.62360  -0.55381  -0.53859  -0.53034
  Beta virt. eigenvalues --   -0.42067  -0.38638  -0.35821  -0.22769  -0.20397
  Beta virt. eigenvalues --   -0.14835  -0.12963  -0.12038  -0.11307  -0.09722
  Beta virt. eigenvalues --   -0.08034  -0.06909  -0.06799  -0.05394  -0.04787

 Mulliken charges and spin densities:
               1          2
     1  C    0.237749  -0.024496
     2  C   -0.239844   0.072909
     3  C    0.622871   0.014288
     4  C    0.184286   1.014428
     5  C   -0.248737  -0.073068
     6  H    0.236183  -0.005819
     7  H    0.207493   0.001758
 Sum of Mulliken charges =   1.00000   1.00000

 Dipole moment (field-independent basis, Debye):
    X=             -0.1425    Y=              2.0502    Z=              0.0000  Tot=              2.0552
 Quadrupole moment (field-independent basis, Debye-Ang):
   XX=            -10.6572   YY=            -22.0199   ZZ=            -26.7696
   XY=             -5.1868   XZ=             -0.0000   YZ=             -0.0000

  Exact polarizability:  86.656   0.830  46.822  -0.000  -0.000  30.620
 Approx polarizability: 172.676  -4.608  80.285   0.000   0.000  43.953

                      1                      2                      3
                     A'                     A"                     A'
 Frequencies --    115.8177               180.6677               191.4198
 Red. masses --     10.4129                 3.6924                 8.9948
 Frc consts  --      0.0823                 0.0710                 0.1942
 IR Inten    --      2.4747                 6.3205                11.9080

                      4                      5                      6
                     A"                     A'                     A"
 Frequencies --    311.7992               516.8114               684.1557
 Red. masses --      3.6296                 6.4641                 1.3218
 Frc consts  --      0.2079                 1.0172                 0.3645
 IR Inten    --      5.8246                 2.1114                24.7804

                      7                      8                      9
                     A'                     A"                     A'
 Frequencies --    946.9807               984.6661              1056.5383
 Red. masses --      2.4364                 1.5744                 1.8925
 Frc consts  --      1.2873                 0.8994                 1.2447
 IR Inten    --      4.2712                 0.2848                 2.1499

                     10                     11                     12
                     A'                     A'                     A'
 Frequencies --   1191.2686              1451.7844              1624.0373
 Red. masses --      1.4937                 2.4295                 7.6741
 Frc consts  --      1.2489                 3.0170                11.9252
 IR Inten    --     40.1458                34.8555               489.5898

                     13                     14                     15
                     A'                     A'                     A'
 Frequencies --   2153.9333              3035.8622              3133.6909
 Red. masses --     11.7967                 1.0822                 1.0896
 Frc consts  --     32.2459                 5.8764                 6.3044
 IR Inten    --    241.5041               113.1188                29.8138

 - Thermochemistry -
 -------------------
 Temperature   298.150 Kelvin.  Pressure   1.00000 Atm.
 Atom     1 has atomic number  6 and mass  12.00000

 Molecular mass:    62.01565 amu.
 Principal axes and moments of inertia in atomic units:
                           1         2         3
     Eigenvalues --   101.35543 474.48809 575.84352
           X            0.99980   0.01997   0.00000
           Y           -0.01997   0.99980   0.00000
           Z            0.00000  -0.00000   1.00000
 This molecule is an asymmetric top.
 Rotational symmetry number  1.
 Rotational temperatures (Kelvin)      0.85456     0.18254     0.15041
 Rotational constants (GHZ):          17.80606     3.80355     3.13408
 Zero-point vibrational energy     105148.4 (Joules/Mol)
                                   25.13106 (Kcal/Mol)
 Warning -- explicit consideration of   5 degrees of freedom as
           vibrations may cause significant error
 Vibrational temperatures:    166.64   259.94   275.41   448.61   743.58
          (Kelvin)            984.35  1362.49  1416.71  1520.12  1713.97
                             2088.79  2336.62  3099.03  4367.92  4508.68

 Zero-point correction=                           0.040049 (Hartree/Particle)
 Thermal correction to Energy=                    0.045629
 Thermal correction to Enthalpy=                  0.046574
 Thermal correction to Gibbs Free Energy=         0.011007
 Sum of electronic and zero-point Energies=           -191.071424
 Sum of electronic and thermal Energies=              -191.065844
 Sum of electronic and thermal Enthalpies=            -191.064900
 Sum of electronic and thermal Free Energies=         -191.100466

                     E (Thermal)             CV                S
                      KCal/Mol        Cal/Mol-Kelvin    Cal/Mol-Kelvin
 Total                   28.633             16.846             74.856
 Electronic               0.000              0.000              1.377
 Translational            0.889              2.981             38.294
 Rotational               0.889              2.981             24.830
 Vibrational             26.855             10.885             10.355
 Vibration     1          0.608              1.936              3.169
 Vibration     2          0.630              1.866              2.322
 Vibration     3          0.634              1.852              2.214
 Vibration     4          0.700              1.651              1.353
 Vibration     5          0.872              1.213              0.617

 Optimization completed.
    -- Stationary point found.
 Normal termination of Gaussian 09 at Tue Jul 19 08:29:11 2016.
