 Gaussian 09, Revision E.01,
 Gaussian 09:  EM64L-G09RevE.01 30-Nov-2015

 ---------------------------------------------
 #p b3lyp/6-311++G(3df,2p) freq symmetry=Loose
 ---------------------------------------------

 ---------
 b3lyp opt
 ---------
 Symbolic Z-matrix:
 Charge =  3 Multiplicity = 2

                         Standard orientation:
 ---------------------------------------------------------------------
 Center     Atomic      Atomic             Coordinates (Angstroms)
 Number     Number       Type             X           Y           Z
 ---------------------------------------------------------------------
      1          6           0       -1.410609    1.185784   -0.102656
      2          6           0       -0.622242   -0.000209    0.023462
      3          6           0        0.816269   -0.016016    0.349260
      4          6           0        1.954265    0.006842   -0.277804
      5          6           0       -1.431528   -1.169475   -0.125045
      6          1           0        3.011554    0.019648   -0.659030
      7          1           0        1.151515   -0.061210    1.455727
 ---------------------------------------------------------------------

 SCF Done:  E(UB3LYP) =  -189.628367246     A.U. after   29 cycles

 The electronic state is 2-A.
 Alpha  occ. eigenvalues --  -11.12256 -11.12246 -11.05136 -11.00657 -10.97683
 Alpha  occ. eigenvalues --   -1.61572  -1.53722  -1.40107  -1.34301  -1.23695
 Alpha  occ. eigenvalues --   -1.18835  -1.09647  -1.09473  -1.06466  -1.04099
 Alpha virt. eigenvalues --   -0.90658  -0.86900  -0.82857  -0.82614  -0.73254
 Alpha virt. eigenvalues --   -0.72090  -0.54661  -0.50474  -0.48907  -0.46718
 Alpha virt. eigenvalues --   -0.43685  -0.42545  -0.41018  -0.40476  -0.38756

  Beta  occ. eigenvalues --  -11.11602 -11.11594 -11.04613 -11.00409 -10.97612
  Beta  occ. eigenvalues --   -1.60759  -1.52409  -1.38885  -1.33496  -1.23105
  Beta  occ. eigenvalues --   -1.18693  -1.06093  -1.05528  -1.03578
  Beta virt. eigenvalues --   -0.94553  -0.89352  -0.85948  -0.82943  -0.81955
  Beta virt. eigenvalues --   -0.71338  -0.70779  -0.54257  -0.50218  -0.48283
  Beta virt. eigenvalues --   -0.46675  -0.43476  -0.42031  -0.40689  -0.39916

 Mulliken charges and spin densities:
               1          2
     1  C    0.388293   0.359818
     2  C    1.061399   0.027153
     3  C    0.062909   0.003182
     4  C    0.285664   0.262913
     5  C    0.390428   0.360820
     6  H    0.486935  -0.007684
     7  H    0.324373  -0.006203
 Sum of Mulliken charges =   3.00000   1.00000

 Dipole moment (field-independent basis, Debye):
    X=              2.2830    Y=             -0.0008    Z=             -0.2007  Tot=              2.2918
 Quadrupole moment (field-independent basis, Debye-Ang):
   XX=             23.2047   YY=            -12.3732   ZZ=            -16.6582
   XY=              0.0362   XZ=             -1.0226   YZ=             -0.1679

  Exact polarizability: 100.221   0.040  60.019   2.861   0.042  28.693
 Approx polarizability: 199.168   0.621 163.838   0.293   0.808  47.659

                      1                      2                      3
                      A                      A                      A
 Frequencies --     15.9040               229.1792               277.4280
 Red. masses --      2.5407                 3.3697                 3.3635
 Frc consts  --      0.0004                 0.1043                 0.1525
 IR Inten    --      0.0519                23.3341                 1.3835

                      4                      5                      6
                      A                      A                      A
 Frequencies --    337.3056               424.5685               589.3924
 Red. masses --      9.8403                 5.4766                 1.7064
 Frc consts  --      0.6596                 0.5816                 0.3493
 IR Inten    --      8.6722                 0.2677                65.9899

                      7                      8                      9
                      A                      A                      A
 Frequencies --    738.3331               743.7365               769.5425
 Red. masses --      3.1688                 5.7191                 2.0677
 Frc consts  --      1.0178                 1.8639                 0.7214
 IR Inten    --     23.5945                11.1748                 0.0196

                     10                     11                     12
                      A                      A                      A
 Frequencies --    916.6227              1021.3225              1175.9845
 Red. masses --      1.4129                 1.4226                 6.6231
 Frc consts  --      0.6994                 0.8743                 5.3965
 IR Inten    --     10.4840                28.6355                 1.2670

                     13                     14                     15
                      A                      A                      A
 Frequencies --   1627.5735              2498.9116              2867.4283
 Red. masses --      5.2207                 1.0723                 1.1524
 Frc consts  --      8.1481                 3.9451                 5.5828
 IR Inten    --   1157.9423               586.5126               561.4717

 - Thermochemistry -
 -------------------
 Temperature   298.150 Kelvin.  Pressure   1.00000 Atm.
 Atom     1 has atomic number  6 and mass  12.00000

 Molecular mass:    62.01565 amu.
 Principal axes and moments of inertia in atomic units:
                           1         2         3
     Eigenvalues --   137.72245 437.15513 537.21704
           X            1.00000  -0.00018  -0.00226
           Y            0.00017   0.99999  -0.00363
           Z            0.00226   0.00363   0.99999
 This molecule is an asymmetric top.
 Rotational symmetry number  1.
 Rotational temperatures (Kelvin)      0.62890     0.19813     0.16123
 Rotational constants (GHZ):          13.10419     4.12838     3.35943
 Zero-point vibrational energy      85133.6 (Joules/Mol)
                                   20.34743 (Kcal/Mol)
 Warning -- explicit consideration of   6 degrees of freedom as
           vibrations may cause significant error
 Vibrational temperatures:     22.88   329.74   399.16   485.31   610.86
          (Kelvin)            848.00  1062.30  1070.07  1107.20  1318.81
                             1469.45  1691.98  2341.71  3595.37  4125.58

 Zero-point correction=                           0.032426 (Hartree/Particle)
 Thermal correction to Energy=                    0.038348
 Thermal correction to Enthalpy=                  0.039292
 Thermal correction to Gibbs Free Energy=         0.001864
 Sum of electronic and zero-point Energies=           -189.595942
 Sum of electronic and thermal Energies=              -189.590019
 Sum of electronic and thermal Enthalpies=            -189.589075
 Sum of electronic and thermal Free Energies=         -189.626503

                     E (Thermal)             CV                S
                      KCal/Mol        Cal/Mol-Kelvin    Cal/Mol-Kelvin
 Total                   24.064             18.842             78.774
 Electronic               0.000              0.000              1.377
 Translational            0.889              2.981             38.294
 Rotational               0.889              2.981             24.984
 Vibrational             22.286             12.881             14.119
 Vibration     1          0.593              1.986              7.089
 Vibration     2          0.652              1.796              1.885
 Vibration     3          0.678              1.715              1.549
 Vibration     4          0.718              1.601              1.225
 Vibration     5          0.787              1.417              0.877
 Vibration     6          0.947              1.054              0.468

 Normal termination of Gaussian 09 at Sun Jun 19 04:40:13 2016.
