 Gaussian 09, Revision E.01,
 Gaussian 09:  EM64L-G09RevE.01 30-Nov-2015

 ---------------------------------------------
 #p b3lyp/6-311++G(3df,2p) freq symmetry=Loose
 ---------------------------------------------

 ---------
 b3lyp opt
 ---------
 Symbolic Z-matrix:
 Charge =  1 Multiplicity = 4

                         Standard orientation:
 ---------------------------------------------------------------------
 Center     Atomic      Atomic             Coordinates (Angstroms)
 Number     Number       Type             X           Y           Z
 ---------------------------------------------------------------------
      1          6           0       -0.137302    0.409408   -0.000000
      2          6           0       -0.035194    1.791455   -0.000000
      3          6           0       -0.137302   -0.703819    0.907905
      4          6           0        0.444420   -1.570800    0.000000
      5          6           0       -0.137302   -0.703819   -0.907905
      6          1           0        0.008044    2.332722    0.936682
      7          1           0        0.008044    2.332722   -0.936682
 ---------------------------------------------------------------------

 SCF Done:  E(UB3LYP) =  -191.104953444     A.U. after   16 cycles

 The electronic state is 4-A".
 Alpha  occ. eigenvalues --  -10.52961 -10.52819 -10.51580 -10.51579 -10.48969
 Alpha  occ. eigenvalues --   -1.24246  -1.04704  -0.88988  -0.87458  -0.75351
 Alpha  occ. eigenvalues --   -0.73328  -0.70336  -0.65529  -0.60947  -0.57459
 Alpha  occ. eigenvalues --   -0.52871  -0.49387
 Alpha virt. eigenvalues --   -0.33159  -0.30922  -0.21385  -0.15681  -0.11819
 Alpha virt. eigenvalues --   -0.11215  -0.10755  -0.10559  -0.09412  -0.08326
 Alpha virt. eigenvalues --   -0.06413  -0.05324  -0.04422  -0.03964  -0.02509

  Beta  occ. eigenvalues --  -10.52482 -10.50951 -10.50189 -10.50189 -10.48090
  Beta  occ. eigenvalues --   -1.22063  -1.01764  -0.86096  -0.83799  -0.73455
  Beta  occ. eigenvalues --   -0.71784  -0.65110  -0.64134  -0.54200
  Beta virt. eigenvalues --   -0.44234  -0.38402  -0.34531  -0.28165  -0.27449
  Beta virt. eigenvalues --   -0.16914  -0.15211  -0.11323  -0.10338  -0.09993
  Beta virt. eigenvalues --   -0.09488  -0.08871  -0.07821  -0.05678  -0.05001

 Mulliken charges and spin densities:
               1          2
     1  C    0.693176   0.183022
     2  C   -0.259983   0.548774
     3  C   -0.052874   0.706213
     4  C    0.166079   0.882679
     5  C   -0.052874   0.706213
     6  H    0.253238  -0.013451
     7  H    0.253238  -0.013451
 Sum of Mulliken charges =   1.00000   3.00000

 Dipole moment (field-independent basis, Debye):
    X=              0.2772    Y=              2.4391    Z=              0.0000  Tot=              2.4548
 Quadrupole moment (field-independent basis, Debye-Ang):
   XX=            -25.7978   YY=            -12.2320   ZZ=            -24.4314
   XY=             -0.4927   XZ=             -0.0000   YZ=              0.0000

  Exact polarizability:  30.594  -2.777  70.182  -0.000  -0.000  46.125
 Approx polarizability:  47.012  -9.933 118.166  -0.000  -0.000  95.446

                      1                      2                      3
                     A'                     A"                     A"
 Frequencies --    259.3773               342.1673               363.6060
 Red. masses --      6.0015                 1.1299                 2.8827
 Frc consts  --      0.2379                 0.0779                 0.2245
 IR Inten    --      0.8423                 1.9532                 0.1082

                      4                      5                      6
                     A'                     A'                     A"
 Frequencies --    486.0294               655.3104               878.8040
 Red. masses --      9.4447                 7.9083                 3.8484
 Frc consts  --      1.3145                 2.0009                 1.7511
 IR Inten    --     25.5458                13.4972                 3.4606

                      7                      8                      9
                     A'                     A'                     A"
 Frequencies --    912.1495               974.2192              1065.6192
 Red. masses --      5.0935                 1.4340                 2.2164
 Frc consts  --      2.4969                 0.8019                 1.4828
 IR Inten    --     17.9321                24.9119                 0.0047

                     10                     11                     12
                     A"                     A'                     A'
 Frequencies --   1184.3772              1433.3056              1456.0207
 Red. masses --      5.3231                 8.5918                 1.2102
 Frc consts  --      4.3994                10.3995                 1.5116
 IR Inten    --      0.5607                53.3822                15.2374

                     13                     14                     15
                     A'                     A'                     A"
 Frequencies --   1588.6299              3141.0454              3256.4026
 Red. masses --      8.2143                 1.0531                 1.1232
 Frc consts  --     12.2142                 6.1214                 7.0174
 IR Inten    --     12.3991                42.1194                28.8320

 - Thermochemistry -
 -------------------
 Temperature   298.150 Kelvin.  Pressure   1.00000 Atm.
 Atom     1 has atomic number  6 and mass  12.00000

 Molecular mass:    62.01565 amu.
 Principal axes and moments of inertia in atomic units:
                           1         2         3
     Eigenvalues --    85.70374 341.77717 409.99683
           X           -0.08234   0.00000   0.99660
           Y            0.99660   0.00000   0.08234
           Z           -0.00000   1.00000  -0.00000
 This molecule is an asymmetric top.
 Rotational symmetry number  1.
 Rotational temperatures (Kelvin)      1.01062     0.25342     0.21125
 Rotational constants (GHZ):          21.05790     5.28046     4.40184
 Zero-point vibrational energy     107646.3 (Joules/Mol)
                                   25.72809 (Kcal/Mol)
 Warning -- explicit consideration of   4 degrees of freedom as
           vibrations may cause significant error
 Vibrational temperatures:    373.19   492.30   523.15   699.29   942.84
          (Kelvin)           1264.40  1312.38  1401.68  1533.19  1704.05
                             2062.20  2094.89  2285.68  4519.26  4685.23

 Zero-point correction=                           0.041000 (Hartree/Particle)
 Thermal correction to Energy=                    0.045602
 Thermal correction to Enthalpy=                  0.046547
 Thermal correction to Gibbs Free Energy=         0.012991
 Sum of electronic and zero-point Energies=           -191.063953
 Sum of electronic and thermal Energies=              -191.059351
 Sum of electronic and thermal Enthalpies=            -191.058407
 Sum of electronic and thermal Free Energies=         -191.091962

                     E (Thermal)             CV                S
                      KCal/Mol        Cal/Mol-Kelvin    Cal/Mol-Kelvin
 Total                   28.616             15.227             70.623
 Electronic               0.000              0.000              2.755
 Translational            0.889              2.981             38.294
 Rotational               0.889              2.981             24.000
 Vibrational             26.838              9.266              5.575
 Vibration     1          0.668              1.747              1.666
 Vibration     2          0.721              1.591              1.202
 Vibration     3          0.737              1.547              1.107
 Vibration     4          0.842              1.281              0.694

 Optimization completed.
    -- Stationary point found.
 Normal termination of Gaussian 09 at Tue Jul 19 09:09:08 2016.
