 Gaussian 09, Revision E.01,
 Gaussian 09:  EM64L-G09RevE.01 30-Nov-2015

 ---------------------------------------------
 #p b3lyp/6-311++G(3df,2p) freq symmetry=Loose
 ---------------------------------------------

 ---------
 b3lyp opt
 ---------
 Symbolic Z-matrix:
 Charge =  1 Multiplicity = 4

                         Standard orientation:
 ---------------------------------------------------------------------
 Center     Atomic      Atomic             Coordinates (Angstroms)
 Number     Number       Type             X           Y           Z
 ---------------------------------------------------------------------
      1          6           0        0.520537   -1.537486    0.677730
      2          6           0        0.520537   -0.153591    0.000000
      3          6           0       -0.397126    0.887282   -0.000000
      4          6           0       -1.127579    1.854191   -0.000000
      5          6           0        0.520537   -1.537486   -0.677730
      6          1           0       -1.795335    2.689595   -0.000000
      7          1           0        1.573893    0.232953    0.000000
 ---------------------------------------------------------------------

 SCF Done:  E(UB3LYP) =  -191.082563914     A.U. after   22 cycles

 The electronic state is 4-A".
 Alpha  occ. eigenvalues --  -10.55449 -10.55375 -10.51631 -10.43905 -10.42944
 Alpha  occ. eigenvalues --   -1.20184  -1.02631  -0.93094  -0.78837  -0.77569
 Alpha  occ. eigenvalues --   -0.74484  -0.70980  -0.61241  -0.58222  -0.57718
 Alpha  occ. eigenvalues --   -0.52891  -0.49826
 Alpha virt. eigenvalues --   -0.31014  -0.22604  -0.22009  -0.15916  -0.12471
 Alpha virt. eigenvalues --   -0.10955  -0.10677  -0.10421  -0.09315  -0.08501
 Alpha virt. eigenvalues --   -0.06216  -0.05804  -0.05290  -0.04768  -0.03385

  Beta  occ. eigenvalues --  -10.53335 -10.53279 -10.51115 -10.43328 -10.42920
  Beta  occ. eigenvalues --   -1.16219  -1.01066  -0.90383  -0.76108  -0.73141
  Beta  occ. eigenvalues --   -0.69686  -0.67192  -0.53243  -0.51798
  Beta virt. eigenvalues --   -0.44663  -0.43592  -0.38406  -0.23981  -0.20701
  Beta virt. eigenvalues --   -0.19670  -0.15065  -0.12161  -0.10231  -0.10219
  Beta virt. eigenvalues --   -0.10086  -0.07924  -0.06165  -0.05556  -0.05286

 Mulliken charges and spin densities:
               1          2
     1  C    0.132318   1.243155
     2  C    0.501082  -0.167217
     3  C   -0.448214   0.243335
     4  C    0.028126   0.316280
     5  C    0.132318   1.243155
     6  H    0.371046  -0.010448
     7  H    0.283325   0.131739
 Sum of Mulliken charges =   1.00000   3.00000

 Dipole moment (field-independent basis, Debye):
    X=              0.3740    Y=              0.4076    Z=              0.0000  Tot=              0.5532
 Quadrupole moment (field-independent basis, Debye-Ang):
   XX=            -18.7115   YY=            -11.9977   ZZ=            -25.7230
   XY=             -7.2829   XZ=             -0.0000   YZ=              0.0000

  Exact polarizability:  51.245 -34.433 101.542   0.000  -0.000  42.446
 Approx polarizability:  92.962 -83.708 224.124   0.000   0.000  80.019

                      1                      2                      3
                     A'                     A"                     A"
 Frequencies --    164.0754               206.2407               451.1266
 Red. masses --      4.9016                 5.6011                 7.3161
 Frc consts  --      0.0777                 0.1404                 0.8773
 IR Inten    --     24.4166                 7.7908                 5.7506

                      4                      5                      6
                     A'                     A"                     A"
 Frequencies --    461.3755               647.8923               736.1654
 Red. masses --      6.9042                 8.7800                 1.2813
 Frc consts  --      0.8659                 2.1715                 0.4091
 IR Inten    --     27.5700                 2.0072                20.5097

                      7                      8                      9
                     A'                     A'                     A"
 Frequencies --    742.4330               750.8699               814.6528
 Red. masses --      1.2750                 8.3924                 1.2571
 Frc consts  --      0.4141                 2.7878                 0.4916
 IR Inten    --     26.5827                17.7168                37.1245

                     10                     11                     12
                     A'                     A'                     A'
 Frequencies --   1005.3199              1157.5926              1329.5746
 Red. masses --      1.1659                 8.5619                 7.0145
 Frc consts  --      0.6942                 6.7597                 7.3059
 IR Inten    --    197.4450                13.6294                64.0689

                     13                     14                     15
                     A'                     A'                     A'
 Frequencies --   2096.4171              2740.0932              3393.1043
 Red. masses --      6.2217                 1.0724                 1.1562
 Frc consts  --     16.1106                 4.7441                 7.8427
 IR Inten    --    765.8564               125.7189                73.7063

 - Thermochemistry -
 -------------------
 Temperature   298.150 Kelvin.  Pressure   1.00000 Atm.
 Atom     1 has atomic number  6 and mass  12.00000

 Molecular mass:    62.01565 amu.
 Principal axes and moments of inertia in atomic units:
                           1         2         3
     Eigenvalues --    60.52686 527.00857 545.21397
           X           -0.44372  -0.00000   0.89617
           Y            0.89617  -0.00000   0.44372
           Z           -0.00000   1.00000   0.00000
 This molecule is an asymmetric top.
 Rotational symmetry number  1.
 Rotational temperatures (Kelvin)      1.43100     0.16435     0.15886
 Rotational constants (GHZ):          29.81720     3.42450     3.31015
 Zero-point vibrational energy      99869.8 (Joules/Mol)
                                   23.86946 (Kcal/Mol)
 Warning -- explicit consideration of   4 degrees of freedom as
           vibrations may cause significant error
 Vibrational temperatures:    236.07   296.73   649.07   663.82   932.17
          (Kelvin)           1059.18  1068.19  1080.33  1172.10  1446.43
                             1665.52  1912.96  3016.27  3942.38  4881.91

 Zero-point correction=                           0.038038 (Hartree/Particle)
 Thermal correction to Energy=                    0.043124
 Thermal correction to Enthalpy=                  0.044068
 Thermal correction to Gibbs Free Energy=         0.009354
 Sum of electronic and zero-point Energies=           -191.044526
 Sum of electronic and thermal Energies=              -191.039440
 Sum of electronic and thermal Enthalpies=            -191.038496
 Sum of electronic and thermal Free Energies=         -191.073210

                     E (Thermal)             CV                S
                      KCal/Mol        Cal/Mol-Kelvin    Cal/Mol-Kelvin
 Total                   27.061             16.928             73.063
 Electronic               0.000              0.000              2.755
 Translational            0.889              2.981             38.294
 Rotational               0.889              2.981             24.368
 Vibrational             25.283             10.966              7.646
 Vibration     1          0.623              1.887              2.502
 Vibration     2          0.641              1.831              2.077
 Vibration     3          0.810              1.358              0.792
 Vibration     4          0.819              1.336              0.762

 Optimization completed.
    -- Stationary point found.
 Normal termination of Gaussian 09 at Tue Jul 19 13:16:29 2016.
