 Gaussian 09, Revision E.01,
 Gaussian 09:  EM64L-G09RevE.01 30-Nov-2015

 ---------------------------------------------
 #p b3lyp/6-311++G(3df,2p) freq symmetry=Loose
 ---------------------------------------------

 ---------
 b3lyp opt
 ---------
 Symbolic Z-matrix:
 Charge =  1 Multiplicity = 4

                         Standard orientation:
 ---------------------------------------------------------------------
 Center     Atomic      Atomic             Coordinates (Angstroms)
 Number     Number       Type             X           Y           Z
 ---------------------------------------------------------------------
      1          6           0        1.479516    0.591582   -0.004981
      2          6           0        0.201233   -0.209571    0.300436
      3          6           0       -1.129604   -0.012583   -0.062854
      4          6           0       -2.344695    0.139613   -0.134235
      5          6           0        1.459258   -0.682591   -0.322838
      6          1           0        0.172374   -0.570558    1.370020
      7          1           0        1.833381    1.611850   -0.023183
 ---------------------------------------------------------------------

 SCF Done:  E(UB3LYP) =  -191.057350039     A.U. after   22 cycles

 The electronic state is 4-A.
 Alpha  occ. eigenvalues --  -10.50869 -10.50673 -10.50517 -10.49796 -10.45886
 Alpha  occ. eigenvalues --   -1.18546  -1.04699  -0.93625  -0.83316  -0.76587
 Alpha  occ. eigenvalues --   -0.70992  -0.66102  -0.63773  -0.57799  -0.56751
 Alpha  occ. eigenvalues --   -0.54259  -0.50469
 Alpha virt. eigenvalues --   -0.27914  -0.23770  -0.23188  -0.15651  -0.13893
 Alpha virt. eigenvalues --   -0.12290  -0.11127  -0.09099  -0.08324  -0.07426
 Alpha virt. eigenvalues --   -0.06314  -0.06041  -0.04826  -0.04262  -0.03895

  Beta  occ. eigenvalues --  -10.50388 -10.49216 -10.48918 -10.47775 -10.45765
  Beta  occ. eigenvalues --   -1.16350  -1.01890  -0.90173  -0.81697  -0.73585
  Beta  occ. eigenvalues --   -0.67172  -0.63767  -0.52969  -0.52209
  Beta virt. eigenvalues --   -0.44212  -0.41034  -0.38042  -0.23840  -0.19904
  Beta virt. eigenvalues --   -0.19728  -0.14565  -0.13351  -0.11741  -0.10552
  Beta virt. eigenvalues --   -0.08193  -0.07681  -0.05985  -0.05429  -0.05186

 Mulliken charges and spin densities:
               1          2
     1  C    0.164956   0.343991
     2  C    0.532853  -0.012784
     3  C    0.148743  -0.034046
     4  C   -0.340938   1.619836
     5  C   -0.116148   0.927890
     6  H    0.281637   0.158791
     7  H    0.328897  -0.003678
 Sum of Mulliken charges =   1.00000   3.00000

 Dipole moment (field-independent basis, Debye):
    X=              0.4579    Y=              1.3482    Z=              0.9132  Tot=              1.6916
 Quadrupole moment (field-independent basis, Debye-Ang):
   XX=            -11.0994   YY=            -23.0348   ZZ=            -23.9091
   XY=              2.7205   XZ=              0.9545   YZ=             -1.1535

  Exact polarizability: 119.024  -1.465  40.833  -1.826   1.140  33.691
 Approx polarizability: 277.405 -16.711  67.602  -7.917   4.909  51.406

                      1                      2                      3
                      A                      A                      A
 Frequencies --    186.2028               220.0283               420.0753
 Red. masses --      5.1629                 8.7303                 3.8217
 Frc consts  --      0.1055                 0.2490                 0.3973
 IR Inten    --      0.8783                 4.4881                 5.6492

                      4                      5                      6
                      A                      A                      A
 Frequencies --    502.7977               646.9972               707.3195
 Red. masses --      8.4926                 1.3901                 7.9367
 Frc consts  --      1.2650                 0.3428                 2.3395
 IR Inten    --      5.6551                44.8020                28.6310

                      7                      8                      9
                      A                      A                      A
 Frequencies --    772.1640               803.1728               922.9061
 Red. masses --      3.2704                 1.7084                 1.2400
 Frc consts  --      1.1489                 0.6493                 0.6223
 IR Inten    --     14.9609                21.7828               226.7969

                     10                     11                     12
                      A                      A                      A
 Frequencies --    947.6411              1170.7577              1496.6537
 Red. masses --      1.1574                10.5943                 5.7328
 Frc consts  --      0.6124                 8.5557                 7.5659
 IR Inten    --    292.5592                74.0234               319.6919

                     13                     14                     15
                      A                      A                      A
 Frequencies --   2014.8177              2668.4832              3248.4928
 Red. masses --     11.4952                 1.0693                 1.1144
 Frc consts  --     27.4940                 4.4861                 6.9286
 IR Inten    --    377.9888               108.1495                90.1581

 - Thermochemistry -
 -------------------
 Temperature   298.150 Kelvin.  Pressure   1.00000 Atm.
 Atom     1 has atomic number  6 and mass  12.00000

 Molecular mass:    62.01565 amu.
 Principal axes and moments of inertia in atomic units:
                           1         2         3
     Eigenvalues --    63.83994 504.95971 537.42829
           X            0.99973   0.02330  -0.00011
           Y           -0.02322   0.99597  -0.08665
           Z           -0.00191   0.08663   0.99624
 This molecule is an asymmetric top.
 Rotational symmetry number  1.
 Rotational temperatures (Kelvin)      1.35673     0.17153     0.16116
 Rotational constants (GHZ):          28.26978     3.57403     3.35811
 Zero-point vibrational energy     100058.7 (Joules/Mol)
                                   23.91461 (Kcal/Mol)
 Warning -- explicit consideration of   4 degrees of freedom as
           vibrations may cause significant error
 Vibrational temperatures:    267.90   316.57   604.39   723.41   930.88
          (Kelvin)           1017.67  1110.97  1155.59  1327.85  1363.44
                             1684.46  2153.35  2898.87  3839.35  4673.85

 Zero-point correction=                           0.038110 (Hartree/Particle)
 Thermal correction to Energy=                    0.043097
 Thermal correction to Enthalpy=                  0.044041
 Thermal correction to Gibbs Free Energy=         0.009550
 Sum of electronic and zero-point Energies=           -191.019240
 Sum of electronic and thermal Energies=              -191.014253
 Sum of electronic and thermal Enthalpies=            -191.013309
 Sum of electronic and thermal Free Energies=         -191.047800

                     E (Thermal)             CV                S
                      KCal/Mol        Cal/Mol-Kelvin    Cal/Mol-Kelvin
 Total                   27.044             16.614             72.592
 Electronic               0.000              0.000              2.755
 Translational            0.889              2.981             38.294
 Rotational               0.889              2.981             24.364
 Vibrational             25.266             10.653              7.179
 Vibration     1          0.632              1.859              2.265
 Vibration     2          0.647              1.811              1.959
 Vibration     3          0.783              1.427              0.892
 Vibration     4          0.858              1.244              0.651

 Optimization completed.
    -- Stationary point found.
 Normal termination of Gaussian 09 at Sun Jun 19 03:40:49 2016.
