 Gaussian 09, Revision E.01,
 Gaussian 09:  EM64L-G09RevE.01 30-Nov-2015

 ---------------------------------------------
 #p b3lyp/6-311++G(3df,2p) freq symmetry=Loose
 ---------------------------------------------

 ---------
 b3lyp opt
 ---------
 Symbolic Z-matrix:
 Charge =  3 Multiplicity = 2

                         Standard orientation:
 ---------------------------------------------------------------------
 Center     Atomic      Atomic             Coordinates (Angstroms)
 Number     Number       Type             X           Y           Z
 ---------------------------------------------------------------------
      1          6           0       -1.433761    0.299672    0.000135
      2          6           0        2.478480   -0.099617    0.000442
      3          6           0        1.200486   -0.008278   -0.000792
      4          6           0       -0.057758    0.108336   -0.000259
      5          6           0       -2.470800   -0.499095    0.000178
      6          1           0        3.597635   -0.177802    0.001132
      7          1           0       -1.897517    1.371692    0.000646
 ---------------------------------------------------------------------

 SCF Done:  E(UB3LYP) =  -189.784119251     A.U. after   22 cycles

 The electronic state is 2-A.
 Alpha  occ. eigenvalues --  -11.11953 -11.04260 -11.03912 -10.96929 -10.93649
 Alpha  occ. eigenvalues --   -1.58311  -1.53065  -1.44409  -1.34930  -1.21534
 Alpha  occ. eigenvalues --   -1.19835  -1.13686  -1.09628  -1.05115  -1.02714
 Alpha virt. eigenvalues --   -0.86971  -0.86332  -0.84947  -0.71402  -0.61959
 Alpha virt. eigenvalues --   -0.56020  -0.52647  -0.50161  -0.47655  -0.45585
 Alpha virt. eigenvalues --   -0.42269  -0.40592  -0.40348  -0.37374  -0.37365

  Beta  occ. eigenvalues --  -11.09283 -11.04188 -11.04144 -10.96839 -10.93642
  Beta  occ. eigenvalues --   -1.57363  -1.52516  -1.43974  -1.33935  -1.21710
  Beta  occ. eigenvalues --   -1.19228  -1.09269  -1.05360  -1.01562
  Beta virt. eigenvalues --   -0.90795  -0.86010  -0.85183  -0.81286  -0.69616
  Beta virt. eigenvalues --   -0.61849  -0.55936  -0.52601  -0.50120  -0.47751
  Beta virt. eigenvalues --   -0.45280  -0.42059  -0.40618  -0.40233  -0.37260

 Mulliken charges and spin densities:
               1          2
     1  C    0.423634  -0.163927
     2  C    0.606644  -0.098180
     3  C    0.611281  -0.033909
     4  C   -0.006341   0.067421
     5  C    0.520199   1.232566
     6  H    0.500443   0.003547
     7  H    0.344140  -0.007518
 Sum of Mulliken charges =   3.00000   1.00000

 Dipole moment (field-independent basis, Debye):
    X=              0.1692    Y=             -0.0546    Z=              0.0031  Tot=              0.1778
 Quadrupole moment (field-independent basis, Debye-Ang):
   XX=             57.9898   YY=            -15.5511   ZZ=            -22.1325
   XY=             -1.0698   XZ=              0.0047   YZ=              0.0012

  Exact polarizability: 102.183   0.718  26.801   0.003  -0.000  21.825
 Approx polarizability: 284.364   8.168  46.250   0.018  -0.001  29.025

                      1                      2                      3
                      A                      A                      A
 Frequencies --    157.0907               181.6184               291.1294
 Red. masses --      4.5870                 3.1533                 6.2897
 Frc consts  --      0.0667                 0.0613                 0.3141
 IR Inten    --     30.0082                48.8906                 4.4494

                      4                      5                      6
                      A                      A                      A
 Frequencies --    433.0921               519.7999               636.0613
 Red. masses --      2.7557                 4.7210                 3.0236
 Frc consts  --      0.3045                 0.7515                 0.7207
 IR Inten    --      3.2999                 8.7220                43.9514

                      7                      8                      9
                      A                      A                      A
 Frequencies --    779.0285               825.8314               876.3373
 Red. masses --      8.0056                 1.3677                 1.3843
 Frc consts  --      2.8625                 0.5496                 0.6264
 IR Inten    --     16.8202                14.8286                10.0665

                     10                     11                     12
                      A                      A                      A
 Frequencies --    935.3258              1423.4248              1621.5988
 Red. masses --      1.2320                 6.9163                 9.0713
 Frc consts  --      0.6350                 8.2564                14.0542
 IR Inten    --      1.4264               291.5513                88.1335

                     13                     14                     15
                      A                      A                      A
 Frequencies --   2155.1209              2399.4392              2909.7766
 Red. masses --      6.4278                 1.0839                 1.2017
 Frc consts  --     17.5897                 3.6768                 5.9947
 IR Inten    --   2016.7035               664.3088               385.9950

 - Thermochemistry -
 -------------------
 Temperature   298.150 Kelvin.  Pressure   1.00000 Atm.
 Atom     1 has atomic number  6 and mass  12.00000

 Molecular mass:    62.01565 amu.
 Principal axes and moments of inertia in atomic units:
                           1         2         3
     Eigenvalues --    22.07697 734.39892 756.47580
           X            0.99987  -0.01597   0.00001
           Y            0.01597   0.99987   0.00011
           Z           -0.00001  -0.00011   1.00000
 This molecule is an asymmetric top.
 Rotational symmetry number  1.
 Rotational temperatures (Kelvin)      3.92327     0.11794     0.11450
 Rotational constants (GHZ):          81.74768     2.45744     2.38572
 Zero-point vibrational energy      96566.6 (Joules/Mol)
                                   23.07997 (Kcal/Mol)
 Warning -- explicit consideration of   5 degrees of freedom as
           vibrations may cause significant error
 Vibrational temperatures:    226.02   261.31   418.87   623.12   747.88
          (Kelvin)            915.15  1120.85  1188.19  1260.85  1345.72
                             2047.99  2333.12  3100.73  3452.25  4186.51

 Zero-point correction=                           0.036780 (Hartree/Particle)
 Thermal correction to Energy=                    0.042167
 Thermal correction to Enthalpy=                  0.043111
 Thermal correction to Gibbs Free Energy=         0.008608
 Sum of electronic and zero-point Energies=           -189.747339
 Sum of electronic and thermal Energies=              -189.741952
 Sum of electronic and thermal Enthalpies=            -189.741008
 Sum of electronic and thermal Free Energies=         -189.775511

                     E (Thermal)             CV                S
                      KCal/Mol        Cal/Mol-Kelvin    Cal/Mol-Kelvin
 Total                   26.460             17.409             72.618
 Electronic               0.000              0.000              1.377
 Translational            0.889              2.981             38.294
 Rotational               0.889              2.981             24.021
 Vibrational             24.683             11.448              8.926
 Vibration     1          0.621              1.895              2.585
 Vibration     2          0.630              1.865              2.312
 Vibration     3          0.687              1.690              1.467
 Vibration     4          0.794              1.398              0.849
 Vibration     5          0.875              1.206              0.610

 Normal termination of Gaussian 09 at Sun Jun 19 05:05:09 2016.
