 Gaussian 09, Revision E.01,
 Gaussian 09:  EM64L-G09RevE.01 30-Nov-2015

 ---------------------------------------------
 #p b3lyp/6-311++G(3df,2p) freq symmetry=Loose
 ---------------------------------------------

 ---------
 b3lyp opt
 ---------
 Symbolic Z-matrix:
 Charge =  2 Multiplicity = 3

                         Standard orientation:
 ---------------------------------------------------------------------
 Center     Atomic      Atomic             Coordinates (Angstroms)
 Number     Number       Type             X           Y           Z
 ---------------------------------------------------------------------
      1          6           0       -0.658267   -0.140909    0.296757
      2          6           0        0.610986    0.847009   -0.001183
      3          6           0        1.565846   -0.124401    0.054489
      4          6           0        0.493564   -0.929483   -0.274685
      5          6           0       -1.950741    0.086683   -0.247719
      6          1           0        0.524501    1.885948   -0.351547
      7          1           0       -0.892831   -0.319339    1.385586
 ---------------------------------------------------------------------

 SCF Done:  E(UB3LYP) =  -190.447702383     A.U. after   25 cycles

 The electronic state is 3-A.
 Alpha  occ. eigenvalues --  -10.86403 -10.82253 -10.79193 -10.77565 -10.75943
 Alpha  occ. eigenvalues --   -1.47705  -1.30922  -1.14780  -1.10699  -1.02422
 Alpha  occ. eigenvalues --   -0.97456  -0.94720  -0.87220  -0.84135  -0.80862
 Alpha  occ. eigenvalues --   -0.77992
 Alpha virt. eigenvalues --   -0.65449  -0.62947  -0.56103  -0.52183  -0.37927
 Alpha virt. eigenvalues --   -0.33713  -0.32321  -0.29430  -0.27442  -0.26472
 Alpha virt. eigenvalues --   -0.25198  -0.24211  -0.23340  -0.22084  -0.20708

  Beta  occ. eigenvalues --  -10.86180 -10.80562 -10.79051 -10.75641 -10.75626
  Beta  occ. eigenvalues --   -1.45903  -1.29582  -1.12757  -1.08499  -1.00788
  Beta  occ. eigenvalues --   -0.94835  -0.92405  -0.85383  -0.82014
  Beta virt. eigenvalues --   -0.66155  -0.63848  -0.62605  -0.60138  -0.53594
  Beta virt. eigenvalues --   -0.48733  -0.37052  -0.32998  -0.31726  -0.28678
  Beta virt. eigenvalues --   -0.26434  -0.25962  -0.24493  -0.23379  -0.22654

 Mulliken charges and spin densities:
               1          2
     1  C    0.430940   0.029429
     2  C    0.122284   0.012982
     3  C    0.452983   0.940094
     4  C    0.369993   0.823382
     5  C   -0.034912   0.168692
     6  H    0.342208   0.025868
     7  H    0.316505  -0.000447
 Sum of Mulliken charges =   2.00000   2.00000

 Dipole moment (field-independent basis, Debye):
    X=             -1.1228    Y=              1.0127    Z=              0.4151  Tot=              1.5680
 Quadrupole moment (field-independent basis, Debye-Ang):
   XX=             -8.5624   YY=            -15.4267   ZZ=            -20.1262
   XY=              1.0735   XZ=             -1.4285   YZ=             -1.0113

  Exact polarizability:  63.436  -0.947  38.472   1.230   0.148  28.531
 Approx polarizability: 119.372  -3.143  74.977   6.041   3.193  46.811

                      1                      2                      3
                      A                      A                      A
 Frequencies --    204.1731               253.4002               366.8972
 Red. masses --      7.9150                 6.2354                 4.8502
 Frc consts  --      0.1944                 0.2359                 0.3847
 IR Inten    --      2.6118                 6.0873                 0.9683

                      4                      5                      6
                      A                      A                      A
 Frequencies --    407.0029               567.1745               780.1226
 Red. masses --      9.6590                 8.2661                 2.0677
 Frc consts  --      0.9427                 1.5667                 0.7414
 IR Inten    --      6.4750                 3.9934                 9.1138

                      7                      8                      9
                      A                      A                      A
 Frequencies --    824.2345               920.0206              1034.7426
 Red. masses --      1.6993                 1.2428                 1.3429
 Frc consts  --      0.6802                 0.6198                 0.8472
 IR Inten    --     66.8326                25.9835                28.9424

                     10                     11                     12
                      A                      A                      A
 Frequencies --   1073.7837              1275.4430              1287.7189
 Red. masses --      1.3273                 5.2016                 8.8753
 Frc consts  --      0.9017                 4.9855                 8.6711
 IR Inten    --      1.5521               408.6163                47.1709

                     13                     14                     15
                      A                      A                      A
 Frequencies --   1463.3049              2740.7424              3040.1723
 Red. masses --      8.7255                 1.0739                 1.1013
 Frc consts  --     11.0081                 4.7528                 5.9975
 IR Inten    --     24.9705               243.4207               248.5404

 - Thermochemistry -
 -------------------
 Temperature   298.150 Kelvin.  Pressure   1.00000 Atm.
 Atom     1 has atomic number  6 and mass  12.00000

 Molecular mass:    62.01565 amu.
 Principal axes and moments of inertia in atomic units:
                           1         2         3
     Eigenvalues --    99.51999 333.90748 399.94456
           X            0.99968   0.01782  -0.01770
           Y           -0.01883   0.99807  -0.05915
           Z            0.01661   0.05946   0.99809
 This molecule is an asymmetric top.
 Rotational symmetry number  1.
 Rotational temperatures (Kelvin)      0.87032     0.25939     0.21656
 Rotational constants (GHZ):          18.13446     5.40491     4.51248
 Zero-point vibrational energy      97130.4 (Joules/Mol)
                                   23.21472 (Kcal/Mol)
 Warning -- explicit consideration of   5 degrees of freedom as
           vibrations may cause significant error
 Vibrational temperatures:    293.76   364.59   527.88   585.59   816.04
          (Kelvin)           1122.42  1185.89  1323.70  1488.76  1544.93
                             1835.08  1852.74  2105.37  3943.31  4374.12

 Zero-point correction=                           0.036995 (Hartree/Particle)
 Thermal correction to Energy=                    0.041984
 Thermal correction to Enthalpy=                  0.042928
 Thermal correction to Gibbs Free Energy=         0.008869
 Sum of electronic and zero-point Energies=           -190.410707
 Sum of electronic and thermal Energies=              -190.405719
 Sum of electronic and thermal Enthalpies=            -190.404774
 Sum of electronic and thermal Free Energies=         -190.438834

                     E (Thermal)             CV                S
                      KCal/Mol        Cal/Mol-Kelvin    Cal/Mol-Kelvin
 Total                   26.345             16.464             71.684
 Electronic               0.000              0.000              2.183
 Translational            0.889              2.981             38.294
 Rotational               0.889              2.981             24.101
 Vibrational             24.568             10.502              7.107
 Vibration     1          0.640              1.834              2.095
 Vibration     2          0.665              1.757              1.707
 Vibration     3          0.740              1.540              1.093
 Vibration     4          0.772              1.455              0.937
 Vibration     5          0.923              1.102              0.510

 Optimization completed.
    -- Stationary point found.
 Normal termination of Gaussian 09 at Sun Jun 19 04:14:14 2016.
