 Gaussian 09, Revision E.01,
 Gaussian 09:  EM64L-G09RevE.01 30-Nov-2015

 ------------------------------------------------------
 #p b3lyp/6-311++G(3df,2p) freq IOp(2/17=3) IOp(2/18=3)
 ------------------------------------------------------

 ---------
 b3lyp opt
 ---------
 Symbolic Z-matrix:
 Charge =  1 Multiplicity = 2

                         Standard orientation:
 ---------------------------------------------------------------------
 Center     Atomic      Atomic             Coordinates (Angstroms)
 Number     Number       Type             X           Y           Z
 ---------------------------------------------------------------------
      1          6           0        0.000000    2.251458    0.000000
      2          6           0       -0.290164    1.072450    0.000000
      3          6           0       -0.661889   -0.243985    0.000000
      4          6           0        0.235549   -1.285263    0.000000
      5          6           0        0.960725   -2.262140    0.000000
      6          1           0        0.260587    3.290047    0.000000
      7          1           0       -1.725910   -0.485168    0.000000
 ---------------------------------------------------------------------

 SCF Done:  E(UB3LYP) =  -191.192874461     A.U. after   23 cycles

 The electronic state is 2-A'.
 Alpha  occ. eigenvalues --  -10.51502 -10.51177 -10.45720 -10.44484 -10.43501
 Alpha  occ. eigenvalues --   -1.08543  -1.02116  -0.96698  -0.82139  -0.76088
 Alpha  occ. eigenvalues --   -0.74133  -0.64126  -0.61596  -0.54722  -0.54269
 Alpha  occ. eigenvalues --   -0.53295
 Alpha virt. eigenvalues --   -0.39433  -0.22727  -0.20143  -0.19359  -0.15244
 Alpha virt. eigenvalues --   -0.11892  -0.11823  -0.10914  -0.09992  -0.08679
 Alpha virt. eigenvalues --   -0.06846  -0.06636  -0.05201  -0.05201  -0.04369

  Beta  occ. eigenvalues --  -10.51490 -10.48693 -10.45887 -10.44409 -10.43512
  Beta  occ. eigenvalues --   -1.08484  -1.01129  -0.95595  -0.81809  -0.76092
  Beta  occ. eigenvalues --   -0.74253  -0.61551  -0.53509  -0.53393  -0.52927
  Beta virt. eigenvalues --   -0.41697  -0.38309  -0.21722  -0.18889  -0.18123
  Beta virt. eigenvalues --   -0.15137  -0.11868  -0.11275  -0.10744  -0.09813
  Beta virt. eigenvalues --   -0.08356  -0.06832  -0.05894  -0.05137  -0.05115

 Mulliken charges and spin densities:
               1          2
     1  C    0.505730  -0.079195
     2  C   -0.040900  -0.019944
     3  C   -0.773382   0.041122
     4  C    0.563910  -0.117115
     5  C    0.137231   1.177169
     6  H    0.376994   0.002882
     7  H    0.230417  -0.004918
 Sum of Mulliken charges =   1.00000   1.00000

 Dipole moment (field-independent basis, Debye):
    X=             -0.3014    Y=              0.8643    Z=              0.0000  Tot=              0.9153
 Quadrupole moment (field-independent basis, Debye-Ang):
   XX=            -21.4864   YY=             -1.6384   ZZ=            -26.0858
   XY=             -2.1366   XZ=              0.0000   YZ=              0.0000

  Exact polarizability:  42.207  -8.634 104.931  -0.000  -0.001  28.617
 Approx polarizability:  68.652 -30.332 225.474  -0.000  -0.000  39.810

                      1                      2                      3
                     A'                     A'                     A"
 Frequencies --    105.2928               240.6291               273.6100
 Red. masses --      7.3092                 5.6104                 2.8272
 Frc consts  --      0.0477                 0.1914                 0.1247
 IR Inten    --      0.8676                 6.8968                22.5847

                      4                      5                      6
                     A"                     A'                     A'
 Frequencies --    292.7878               553.3179               688.4040
 Red. masses --      6.3944                 8.5607                 1.2486
 Frc consts  --      0.3230                 1.5442                 0.3486
 IR Inten    --      1.8741                 5.2486                43.1515

                      7                      8                      9
                     A"                     A"                     A'
 Frequencies --    845.0816               927.6092               974.9309
 Red. masses --      1.3376                 1.7601                 7.1337
 Frc consts  --      0.5628                 0.8923                 3.9950
 IR Inten    --     11.5141                 2.9621                 7.6470

                     10                     11                     12
                     A'                     A'                     A'
 Frequencies --   1169.5046              1418.7149              2140.5198
 Red. masses --      1.5969                 2.5136                 8.4361
 Frc consts  --      1.2869                 2.9809                22.7736
 IR Inten    --     64.7840                28.5918               793.2218

                     13                     14                     15
                     A'                     A'                     A'
 Frequencies --   2172.6798              3103.2510              3384.3545
 Red. masses --      7.8617                 1.0877                 1.1614
 Frc consts  --     21.8653                 6.1716                 7.8378
 IR Inten    --     97.0392                38.4086               106.5709

 - Thermochemistry -
 -------------------
 Temperature   298.150 Kelvin.  Pressure   1.00000 Atm.
 Atom     1 has atomic number  6 and mass  12.00000

 Molecular mass:    62.01565 amu.
 Principal axes and moments of inertia in atomic units:
                           1         2         3
     Eigenvalues --    54.43030 619.22299 673.65328
           X           -0.19156   0.98148   0.00000
           Y            0.98148   0.19156   0.00000
           Z           -0.00000   0.00000   1.00000
 This molecule is an asymmetric top.
 Rotational symmetry number  1.
 Rotational temperatures (Kelvin)      1.59128     0.13987     0.12857
 Rotational constants (GHZ):          33.15692     2.91453     2.67904
 Zero-point vibrational energy     109402.6 (Joules/Mol)
                                   26.14785 (Kcal/Mol)
 Warning -- explicit consideration of   5 degrees of freedom as
           vibrations may cause significant error
 Vibrational temperatures:    151.49   346.21   393.66   421.26   796.10
          (Kelvin)            990.46  1215.88  1334.62  1402.71  1682.65
                             2041.21  3079.73  3126.00  4464.88  4869.33

 Zero-point correction=                           0.041669 (Hartree/Particle)
 Thermal correction to Energy=                    0.047097
 Thermal correction to Enthalpy=                  0.048041
 Thermal correction to Gibbs Free Energy=         0.012970
 Sum of electronic and zero-point Energies=           -191.151205
 Sum of electronic and thermal Energies=              -191.145778
 Sum of electronic and thermal Enthalpies=            -191.144834
 Sum of electronic and thermal Free Energies=         -191.179904

                     E (Thermal)             CV                S
                      KCal/Mol        Cal/Mol-Kelvin    Cal/Mol-Kelvin
 Total                   29.554             16.864             73.812
 Electronic               0.000              0.000              1.377
 Translational            0.889              2.981             38.294
 Rotational               0.889              2.981             24.633
 Vibrational             27.776             10.903              9.508
 Vibration     1          0.605              1.945              3.354
 Vibration     2          0.658              1.778              1.798
 Vibration     3          0.676              1.722              1.573
 Vibration     4          0.688              1.687              1.458
 Vibration     5          0.909              1.132              0.537

 Optimization completed.
    -- Stationary point found.
 Normal termination of Gaussian 09 at Thu Jan 31 04:42:49 2019.
