 Gaussian 09, Revision E.01,
 Gaussian 09:  EM64L-G09RevE.01 30-Nov-2015

 ---------------------------------------------
 #p b3lyp/6-311++G(3df,2p) freq symmetry=Loose
 ---------------------------------------------

 ---------
 b3lyp opt
 ---------
 Symbolic Z-matrix:
 Charge =  0 Multiplicity = 1

                         Standard orientation:
 ---------------------------------------------------------------------
 Center     Atomic      Atomic             Coordinates (Angstroms)
 Number     Number       Type             X           Y           Z
 ---------------------------------------------------------------------
      1          6           0       -0.620309   -0.053887    0.298849
      2          6           0        0.628480    0.763488    0.091135
      3          6           0        1.785661    0.034714   -0.235580
      4          6           0        0.652737   -0.747142    0.010664
      5          6           0       -1.894494   -0.124958   -0.332321
      6          1           0       -2.325053    0.888672   -0.347057
      7          1           0       -0.987396   -0.121965    1.350582
 ---------------------------------------------------------------------

 SCF Done:  E(RB3LYP) =  -191.400248063     A.U. after   15 cycles

 The electronic state is 1-A.
 Alpha  occ. eigenvalues --  -10.29464 -10.27660 -10.27570 -10.27331 -10.23386
 Alpha  occ. eigenvalues --   -1.01364  -0.83265  -0.68540  -0.56848  -0.55744
 Alpha  occ. eigenvalues --   -0.49703  -0.42671  -0.37057  -0.35182  -0.28421
 Alpha  occ. eigenvalues --   -0.26676
 Alpha virt. eigenvalues --   -0.15544  -0.09209  -0.04623  -0.04192  -0.00690
 Alpha virt. eigenvalues --    0.00750   0.04028   0.04216   0.06102   0.06453
 Alpha virt. eigenvalues --    0.07198   0.07423   0.08335   0.10038   0.10777

 Mulliken charges:
               1
     1  C    0.531840
     2  C    0.045945
     3  C   -0.464124
     4  C    0.110100
     5  C   -0.634382
     6  H    0.214364
     7  H    0.196258
 Sum of Mulliken charges =  -0.00000

 Dipole moment (field-independent basis, Debye):
    X=             -3.0824    Y=              1.1495    Z=              1.5850  Tot=              3.6517
 Quadrupole moment (field-independent basis, Debye-Ang):
   XX=            -37.7990   YY=            -32.6329   ZZ=            -27.1363
   XY=             -3.9059   XZ=             -0.6736   YZ=             -1.2304

  Exact polarizability:  82.567   0.545  50.169   0.333   0.532  40.859
 Approx polarizability: 136.114   0.935 101.507   0.044   2.344  67.831

                      1                      2                      3
                      A                      A                      A
 Frequencies --    156.8162               386.4620               475.8276
 Red. masses --      5.8972                 6.3608                 4.7847
 Frc consts  --      0.0854                 0.5597                 0.6383
 IR Inten    --     12.2633                10.8860                 4.8120

                      4                      5                      6
                      A                      A                      A
 Frequencies --    520.5217               596.2603               737.0130
 Red. masses --      3.8303                 1.3416                 5.9370
 Frc consts  --      0.6114                 0.2810                 1.9001
 IR Inten    --     62.5032                43.2138                 1.2369

                      7                      8                      9
                      A                      A                      A
 Frequencies --    905.7307               926.8471               959.2620
 Red. masses --      1.1460                 3.9983                 4.7401
 Frc consts  --      0.5539                 2.0237                 2.5699
 IR Inten    --     22.4355                17.9857                12.3626

                     10                     11                     12
                      A                      A                      A
 Frequencies --   1031.2520              1090.9313              1332.4947
 Red. masses --      1.6745                 1.9080                 4.2524
 Frc consts  --      1.0492                 1.3379                 4.4486
 IR Inten    --     49.2130                 3.2822                 3.2859

                     13                     14                     15
                      A                      A                      A
 Frequencies --   1478.0617              2855.0056              3008.0732
 Red. masses --     10.6830                 1.0752                 1.0833
 Frc consts  --     13.7508                 5.1638                 5.7755
 IR Inten    --     24.6622                36.8729                11.3303

 - Thermochemistry -
 -------------------
 Temperature   298.150 Kelvin.  Pressure   1.00000 Atm.
 Atom     1 has atomic number  6 and mass  12.00000

 Molecular mass:    62.01565 amu.
 Principal axes and moments of inertia in atomic units:
                           1         2         3
     Eigenvalues --    70.67719 382.78451 417.15350
           X            0.99973  -0.02284  -0.00498
           Y            0.02258   0.99867  -0.04632
           Z            0.00604   0.04620   0.99891
 This molecule is an asymmetric top.
 Rotational symmetry number  1.
 Rotational temperatures (Kelvin)      1.22548     0.22627     0.20763
 Rotational constants (GHZ):          25.53499     4.71477     4.32632
 Zero-point vibrational energy      98456.0 (Joules/Mol)
                                   23.53155 (Kcal/Mol)
 Warning -- explicit consideration of   5 degrees of freedom as
           vibrations may cause significant error
 Vibrational temperatures:    225.62   556.03   684.61   748.91   857.88
          (Kelvin)           1060.40  1303.14  1333.52  1380.16  1483.74
                             1569.60  1917.16  2126.60  4107.71  4327.94

 Zero-point correction=                           0.037500 (Hartree/Particle)
 Thermal correction to Energy=                    0.042218
 Thermal correction to Enthalpy=                  0.043162
 Thermal correction to Gibbs Free Energy=         0.010643
 Sum of electronic and zero-point Energies=           -191.362748
 Sum of electronic and thermal Energies=              -191.358030
 Sum of electronic and thermal Enthalpies=            -191.357086
 Sum of electronic and thermal Free Energies=         -191.389605

                     E (Thermal)             CV                S
                      KCal/Mol        Cal/Mol-Kelvin    Cal/Mol-Kelvin
 Total                   26.492             15.891             68.441
 Electronic               0.000              0.000              0.000
 Translational            0.889              2.981             38.294
 Rotational               0.889              2.981             23.938
 Vibrational             24.715              9.929              6.209
 Vibration     1          0.620              1.895              2.588
 Vibration     2          0.755              1.499              1.014
 Vibration     3          0.832              1.304              0.721
 Vibration     4          0.876              1.205              0.609
 Vibration     5          0.954              1.040              0.456

 Optimization completed.
    -- Stationary point found.
 Normal termination of Gaussian 09 at Sun Jun 19 01:21:51 2016.
