 Gaussian 09, Revision E.01,
 Gaussian 09:  EM64L-G09RevE.01 30-Nov-2015

 ---------------------------------------------
 #p b3lyp/6-311++G(3df,2p) freq symmetry=Loose
 ---------------------------------------------

 ---------
 b3lyp opt
 ---------
 Symbolic Z-matrix:
 Charge =  0 Multiplicity = 1

                         Standard orientation:
 ---------------------------------------------------------------------
 Center     Atomic      Atomic             Coordinates (Angstroms)
 Number     Number       Type             X           Y           Z
 ---------------------------------------------------------------------
      1          6           0        0.722195    0.002816    0.052209
      2          6           0       -0.506907    0.805571    0.163414
      3          6           0       -1.495179   -0.002201   -0.469308
      4          6           0       -0.504312   -0.805670    0.164234
      5          6           0        1.995543   -0.000687   -0.196622
      6          1           0       -0.637345    1.628089    0.856773
      7          1           0       -0.630698   -1.627057    0.859668
 ---------------------------------------------------------------------

 SCF Done:  E(RB3LYP) =  -191.457832933     A.U. after   12 cycles

 The electronic state is 1-A.
 Alpha  occ. eigenvalues --  -10.29105 -10.29094 -10.24778 -10.23221 -10.22939
 Alpha  occ. eigenvalues --   -1.00123  -0.78472  -0.67643  -0.64307  -0.58739
 Alpha  occ. eigenvalues --   -0.43610  -0.42964  -0.39116  -0.33004  -0.30705
 Alpha  occ. eigenvalues --   -0.25799
 Alpha virt. eigenvalues --   -0.13809  -0.07869  -0.04636  -0.01694   0.01024
 Alpha virt. eigenvalues --    0.01547   0.03853   0.04611   0.06221   0.06709
 Alpha virt. eigenvalues --    0.07461   0.07815   0.08133   0.10162   0.10987

 Mulliken charges:
               1
     1  C    0.550920
     2  C    0.068327
     3  C   -0.526942
     4  C    0.065007
     5  C   -0.556836
     6  H    0.199758
     7  H    0.199765
 Sum of Mulliken charges =  -0.00000

 Dipole moment (field-independent basis, Debye):
    X=             -0.7728    Y=              0.0101    Z=              2.3978  Tot=              2.5193
 Quadrupole moment (field-independent basis, Debye-Ang):
   XX=            -43.3613   YY=            -24.0477   ZZ=            -29.8225
   XY=             -0.0041   XZ=             -2.3607   YZ=             -0.0111

  Exact polarizability:  77.964  -0.009  48.517  -0.131  -0.010  40.271
 Approx polarizability: 132.875   0.002  83.248   0.213  -0.004  61.165

                      1                      2                      3
                      A                      A                      A
 Frequencies --    184.1675               249.6589               541.0039
 Red. masses --      6.7896                 9.4103                 5.5936
 Frc consts  --      0.1357                 0.3456                 0.9646
 IR Inten    --     20.1094                19.9831                34.1369

                      4                      5                      6
                      A                      A                      A
 Frequencies --    682.6136               725.0457               865.8826
 Red. masses --      4.4307                10.5930                 1.5047
 Frc consts  --      1.2164                 3.2810                 0.6647
 IR Inten    --      2.0936                 0.1022                12.3448

                      7                      8                      9
                      A                      A                      A
 Frequencies --    948.1373               978.8406              1078.7481
 Red. masses --      1.9855                 2.0247                 1.6645
 Frc consts  --      1.0516                 1.1430                 1.1413
 IR Inten    --      1.0040                 3.1771                 1.6661

                     10                     11                     12
                      A                      A                      A
 Frequencies --   1125.2127              1159.9759              1353.1625
 Red. masses --      1.5652                 1.9568                 4.7480
 Frc consts  --      1.1676                 1.5513                 5.1222
 IR Inten    --      0.0168                12.6978                 8.2268

                     13                     14                     15
                      A                      A                      A
 Frequencies --   1772.1803              3165.9079              3172.7721
 Red. masses --     11.0182                 1.0885                 1.0964
 Frc consts  --     20.3882                 6.4280                 6.5027
 IR Inten    --     98.5284                 1.5727                 1.2906

 - Thermochemistry -
 -------------------
 Temperature   298.150 Kelvin.  Pressure   1.00000 Atm.
 Atom     1 has atomic number  6 and mass  12.00000

 Molecular mass:    62.01565 amu.
 Principal axes and moments of inertia in atomic units:
                           1         2         3
     Eigenvalues --    93.28603 332.15764 388.25768
           X            0.99991  -0.00017  -0.01349
           Y            0.00017   1.00000  -0.00023
           Z            0.01349   0.00023   0.99991
 This molecule is an asymmetric top.
 Rotational symmetry number  1.
 Rotational temperatures (Kelvin)      0.92848     0.26076     0.22308
 Rotational constants (GHZ):          19.34632     5.43339     4.64831
 Zero-point vibrational energy     107683.7 (Joules/Mol)
                                   25.73702 (Kcal/Mol)
 Warning -- explicit consideration of   3 degrees of freedom as
           vibrations may cause significant error
 Vibrational temperatures:    264.98   359.20   778.38   982.13  1043.18
          (Kelvin)           1245.81  1364.16  1408.33  1552.08  1618.93
                             1668.94  1946.90  2549.77  4555.03  4564.91

 Zero-point correction=                           0.041015 (Hartree/Particle)
 Thermal correction to Energy=                    0.045565
 Thermal correction to Enthalpy=                  0.046509
 Thermal correction to Gibbs Free Energy=         0.014172
 Sum of electronic and zero-point Energies=           -191.416818
 Sum of electronic and thermal Energies=              -191.412268
 Sum of electronic and thermal Enthalpies=            -191.411324
 Sum of electronic and thermal Free Energies=         -191.443661

                     E (Thermal)             CV                S
                      KCal/Mol        Cal/Mol-Kelvin    Cal/Mol-Kelvin
 Total                   28.592             14.720             68.058
 Electronic               0.000              0.000              0.000
 Translational            0.889              2.981             38.294
 Rotational               0.889              2.981             24.002
 Vibrational             26.815              8.758              5.763
 Vibration     1          0.631              1.861              2.286
 Vibration     2          0.662              1.763              1.733
 Vibration     3          0.896              1.159              0.563

 Normal termination of Gaussian 09 at Sun Jun 19 01:30:34 2016.
