 Gaussian 09, Revision E.01,
 Gaussian 09:  EM64L-G09RevE.01 30-Nov-2015

 ------------------------------------------------------
 #p b3lyp/6-311++G(3df,2p) freq IOp(2/17=3) IOp(2/18=3)
 ------------------------------------------------------

 ---------
 b3lyp opt
 ---------
 Symbolic Z-matrix:
 Charge =  3 Multiplicity = 4

                         Standard orientation:
 ---------------------------------------------------------------------
 Center     Atomic      Atomic             Coordinates (Angstroms)
 Number     Number       Type             X           Y           Z
 ---------------------------------------------------------------------
      1          6           0       -0.818839    1.735358    0.000000
      2          6           0        0.000000    0.590655    0.000000
      3          6           0        0.252272   -0.854744    0.000000
      4          6           0       -0.340718   -2.187903    0.000000
      5          6           0        1.292909   -0.018992    0.000000
      6          1           0       -1.157015    2.206987   -0.963882
      7          1           0       -1.157015    2.206987    0.963882
 ---------------------------------------------------------------------

 SCF Done:  E(UB3LYP) =  -189.644932732     A.U. after   19 cycles

 The electronic state is 4-A'.
 Alpha  occ. eigenvalues --  -11.14272 -11.06076 -11.04678 -11.04416 -11.00641
 Alpha  occ. eigenvalues --   -1.70683  -1.51109  -1.48669  -1.26442  -1.23092
 Alpha  occ. eigenvalues --   -1.18602  -1.17532  -1.13927  -1.11114  -1.06686
 Alpha  occ. eigenvalues --   -1.00351
 Alpha virt. eigenvalues --   -0.92601  -0.84568  -0.77600  -0.71222  -0.56213
 Alpha virt. eigenvalues --   -0.55582  -0.52116  -0.48742  -0.46637  -0.44864
 Alpha virt. eigenvalues --   -0.43435  -0.41620  -0.41107  -0.39550  -0.37753

  Beta  occ. eigenvalues --  -11.10373 -11.04423 -11.04117 -11.03986 -11.00382
  Beta  occ. eigenvalues --   -1.69567  -1.48723  -1.44175  -1.24622  -1.18500
  Beta  occ. eigenvalues --   -1.17167  -1.15119  -1.10429
  Beta virt. eigenvalues --   -0.91660  -0.88564  -0.88435  -0.83440  -0.76741
  Beta virt. eigenvalues --   -0.75788  -0.67564  -0.54941  -0.52470  -0.48400
  Beta virt. eigenvalues --   -0.47335  -0.44784  -0.44489  -0.42840  -0.41445

 Mulliken charges and spin densities:
               1          2
     1  C   -0.046117   0.159557
     2  C    0.450207   0.091538
     3  C    0.659591   0.105413
     4  C    0.706097   1.753813
     5  C    0.481947   0.902080
     6  H    0.374137  -0.006201
     7  H    0.374137  -0.006201
 Sum of Mulliken charges =   3.00000   3.00000

 Dipole moment (field-independent basis, Debye):
    X=             -2.4243    Y=             -0.0612    Z=             -0.0000  Tot=              2.4251
 Quadrupole moment (field-independent basis, Debye-Ang):
   XX=             -9.7053   YY=             23.7548   ZZ=            -17.4132
   XY=             -6.8540   XZ=              0.0000   YZ=             -0.0000

  Exact polarizability:  35.383  -8.076  67.244  -0.000  -0.000  23.563
 Approx polarizability:  64.224  -9.487 127.565   0.000  -0.000  34.400

                      1                      2                      3
                     A'                     A"                     A"
 Frequencies --    229.5980               324.5379               424.0530
 Red. masses --      4.6222                 3.3542                 1.9820
 Frc consts  --      0.1436                 0.2081                 0.2100
 IR Inten    --     15.8228                13.4622                 2.5297

                      4                      5                      6
                     A'                     A"                     A'
 Frequencies --    466.8782               566.3129               618.9715
 Red. masses --      7.5796                 1.5263                 9.5435
 Frc consts  --      0.9734                 0.2884                 2.1543
 IR Inten    --      5.5464                 0.3677                28.5321

                      7                      8                      9
                     A'                     A'                     A"
 Frequencies --    747.2586               849.5879               909.8298
 Red. masses --     11.0436                 6.8926                 1.7473
 Frc consts  --      3.6333                 2.9312                 0.8522
 IR Inten    --     42.2959               114.0332                 1.7552

                     10                     11                     12
                     A'                     A'                     A'
 Frequencies --   1096.8648              1270.6888              1317.7205
 Red. masses --      1.4656                 1.3738                 3.6112
 Frc consts  --      1.0389                 1.3069                 3.6945
 IR Inten    --     12.3589                51.7146               101.5441

                     13                     14                     15
                     A'                     A'                     A"
 Frequencies --   1615.6900              2739.0319              2830.3963
 Red. masses --     11.5367                 1.0449                 1.1219
 Frc consts  --     17.7439                 4.6185                 5.2954
 IR Inten    --    100.7052               773.8151               366.9024

 - Thermochemistry -
 -------------------
 Temperature   298.150 Kelvin.  Pressure   1.00000 Atm.
 Atom     1 has atomic number  6 and mass  12.00000

 Molecular mass:    62.01565 amu.
 Principal axes and moments of inertia in atomic units:
                           1         2         3
     Eigenvalues --   113.50946 431.67746 531.81202
           X           -0.18234   0.98324   0.00000
           Y            0.98324   0.18234   0.00000
           Z            0.00000   0.00000   1.00000
 This molecule is an asymmetric top.
 Rotational symmetry number  1.
 Rotational temperatures (Kelvin)      0.76305     0.20064     0.16287
 Rotational constants (GHZ):          15.89948     4.18076     3.39357
 Zero-point vibrational energy      95745.6 (Joules/Mol)
                                   22.88376 (Kcal/Mol)
 Warning -- explicit consideration of   6 degrees of freedom as
           vibrations may cause significant error
 Vibrational temperatures:    330.34   466.94   610.12   671.73   814.80
          (Kelvin)            890.56  1075.14  1222.37  1309.04  1578.14
                             1828.24  1895.90  2324.61  3940.85  4072.30

 Zero-point correction=                           0.036468 (Hartree/Particle)
 Thermal correction to Energy=                    0.041336
 Thermal correction to Enthalpy=                  0.042280
 Thermal correction to Gibbs Free Energy=         0.007962
 Sum of electronic and zero-point Energies=           -189.608465
 Sum of electronic and thermal Energies=              -189.603597
 Sum of electronic and thermal Enthalpies=            -189.602653
 Sum of electronic and thermal Free Energies=         -189.636971

                     E (Thermal)             CV                S
                      KCal/Mol        Cal/Mol-Kelvin    Cal/Mol-Kelvin
 Total                   25.939             16.658             72.228
 Electronic               0.000              0.000              2.755
 Translational            0.889              2.981             38.294
 Rotational               0.889              2.981             24.770
 Vibrational             24.161             10.696              6.410
 Vibration     1          0.652              1.796              1.882
 Vibration     2          0.709              1.626              1.287
 Vibration     3          0.786              1.418              0.878
 Vibration     4          0.824              1.324              0.746
 Vibration     5          0.922              1.104              0.511
 Vibration     6          0.979              0.992              0.418

 Optimization completed.
    -- Stationary point found.
 Normal termination of Gaussian 09 at Thu Jan 31 05:15:58 2019.
