 Gaussian 09, Revision E.01,
 Gaussian 09:  EM64L-G09RevE.01 30-Nov-2015

 ---------------------------------------------
 #p b3lyp/6-311++G(3df,2p) freq symmetry=Loose
 ---------------------------------------------

 ---------
 b3lyp opt
 ---------
 Symbolic Z-matrix:
 Charge =  0 Multiplicity = 3

                         Standard orientation:
 ---------------------------------------------------------------------
 Center     Atomic      Atomic             Coordinates (Angstroms)
 Number     Number       Type             X           Y           Z
 ---------------------------------------------------------------------
      1          6           0       -0.387168    0.098849    0.104754
      2          6           0        1.054022    0.351185    0.295847
      3          6           0       -1.503983   -0.679094    0.272556
      4          6           0        1.980808   -0.460164   -0.480369
      5          6           0       -1.588314    0.461938   -0.458568
      6          1           0        1.379185   -0.060761    1.280511
      7          1           0        1.288620    1.424476    0.314170
 ---------------------------------------------------------------------

 SCF Done:  E(UB3LYP) =  -191.380190760     A.U. after   19 cycles

 The electronic state is 3-A.
 Alpha  occ. eigenvalues --  -10.28942 -10.28111 -10.25163 -10.23583 -10.23493
 Alpha  occ. eigenvalues --   -0.96997  -0.85353  -0.64653  -0.56029  -0.54408
 Alpha  occ. eigenvalues --   -0.47592  -0.45510  -0.41277  -0.33817  -0.30489
 Alpha  occ. eigenvalues --   -0.27325  -0.25409
 Alpha virt. eigenvalues --   -0.13660  -0.06466  -0.02964  -0.01345   0.01051
 Alpha virt. eigenvalues --    0.03441   0.04177   0.04981   0.05510   0.06641
 Alpha virt. eigenvalues --    0.06985   0.09067   0.09987   0.10515   0.10767

  Beta  occ. eigenvalues --  -10.28258 -10.26667 -10.25276 -10.22812 -10.22722
  Beta  occ. eigenvalues --   -0.96031  -0.84156  -0.61852  -0.54187  -0.52541
  Beta  occ. eigenvalues --   -0.45914  -0.42095  -0.40161  -0.31757  -0.27417
  Beta virt. eigenvalues --   -0.15665  -0.11933  -0.10097  -0.05052  -0.01606
  Beta virt. eigenvalues --   -0.01177   0.01249   0.03654   0.04608   0.05207
  Beta virt. eigenvalues --    0.05879   0.06984   0.07121   0.09556   0.10183

 Mulliken charges and spin densities:
               1          2
     1  C    0.616234   0.268778
     2  C   -0.038268  -0.020132
     3  C   -0.267046   0.366264
     4  C   -0.377188   0.960620
     5  C   -0.313076   0.358726
     6  H    0.206840   0.002841
     7  H    0.172504   0.062903
 Sum of Mulliken charges =  -0.00000   2.00000

 Dipole moment (field-independent basis, Debye):
    X=              1.5816    Y=              1.6652    Z=              1.7967  Tot=              2.9159
 Quadrupole moment (field-independent basis, Debye-Ang):
   XX=            -36.6401   YY=            -31.9620   ZZ=            -29.1807
   XY=              2.8049   XZ=              2.9315   YZ=              0.6995

  Exact polarizability:  70.955  -1.635  60.168   0.271  -8.727  48.874
 Approx polarizability:  98.700  -3.007  91.558   1.452 -16.192  76.806

                      1                      2                      3
                      A                      A                      A
 Frequencies --     79.3447               208.3587               290.0194
 Red. masses --      5.0238                 9.6825                 2.6546
 Frc consts  --      0.0186                 0.2477                 0.1316
 IR Inten    --      5.1305                17.0909                30.9794

                      4                      5                      6
                      A                      A                      A
 Frequencies --    472.2761               539.1368               676.0694
 Red. masses --      1.7651                 7.6702                11.3038
 Frc consts  --      0.2320                 1.3136                 3.0441
 IR Inten    --     10.7688                 0.0852               412.9516

                      7                      8                      9
                      A                      A                      A
 Frequencies --    779.6786               975.8114              1093.4620
 Red. masses --      6.0465                 1.7757                 1.4133
 Frc consts  --      2.1656                 0.9962                 0.9956
 IR Inten    --     16.0255                19.6258                33.5642

                     10                     11                     12
                      A                      A                      A
 Frequencies --   1226.8864              1302.8090              1318.7699
 Red. masses --      1.9055                 1.2905                 4.2964
 Frc consts  --      1.6899                 1.2905                 4.4025
 IR Inten    --     75.0419                15.2216                64.8119

                     13                     14                     15
                      A                      A                      A
 Frequencies --   1694.7719              2863.0522              2977.2254
 Red. masses --     11.7693                 1.0671                 1.0841
 Frc consts  --     19.9170                 5.1538                 5.6615
 IR Inten    --     38.5808                30.3535                 1.9269

 - Thermochemistry -
 -------------------
 Temperature   298.150 Kelvin.  Pressure   1.00000 Atm.
 Atom     1 has atomic number  6 and mass  12.00000

 Molecular mass:    62.01565 amu.
 Principal axes and moments of inertia in atomic units:
                           1         2         3
     Eigenvalues --    83.05245 472.01649 490.80499
           X            0.99968   0.01474   0.02070
           Y           -0.01641   0.99640   0.08318
           Z           -0.01940  -0.08350   0.99632
 This molecule is an asymmetric top.
 Rotational symmetry number  1.
 Rotational temperatures (Kelvin)      1.04288     0.18350     0.17647
 Rotational constants (GHZ):          21.73014     3.82347     3.67710
 Zero-point vibrational energy      98678.0 (Joules/Mol)
                                   23.58461 (Kcal/Mol)
 Warning -- explicit consideration of   5 degrees of freedom as
           vibrations may cause significant error
 Vibrational temperatures:    114.16   299.78   417.27   679.50   775.70
          (Kelvin)            972.71  1121.78  1403.97  1573.25  1765.21
                             1874.45  1897.41  2438.40  4119.29  4283.56

 Zero-point correction=                           0.037584 (Hartree/Particle)
 Thermal correction to Energy=                    0.042926
 Thermal correction to Enthalpy=                  0.043871
 Thermal correction to Gibbs Free Energy=         0.008471
 Sum of electronic and zero-point Energies=           -191.342606
 Sum of electronic and thermal Energies=              -191.337264
 Sum of electronic and thermal Enthalpies=            -191.336320
 Sum of electronic and thermal Free Energies=         -191.371719

                     E (Thermal)             CV                S
                      KCal/Mol        Cal/Mol-Kelvin    Cal/Mol-Kelvin
 Total                   26.937             16.682             74.504
 Electronic               0.000              0.000              2.183
 Translational            0.889              2.981             38.294
 Rotational               0.889              2.981             24.468
 Vibrational             25.159             10.721              9.559
 Vibration     1          0.600              1.963              3.907
 Vibration     2          0.642              1.828              2.058
 Vibration     3          0.686              1.692              1.474
 Vibration     4          0.829              1.312              0.731
 Vibration     5          0.894              1.164              0.567

 Normal termination of Gaussian 09 at Sun Jun 19 02:21:47 2016.
