 Gaussian 09, Revision E.01,
 Gaussian 09:  EM64L-G09RevE.01 30-Nov-2015

 ------------------------------------------------------
 #p b3lyp/6-311++G(3df,2p) freq IOp(2/17=3) IOp(2/18=3)
 ------------------------------------------------------

 ---------
 b3lyp opt
 ---------
 Symbolic Z-matrix:
 Charge =  1 Multiplicity = 2

                         Standard orientation:
 ---------------------------------------------------------------------
 Center     Atomic      Atomic             Coordinates (Angstroms)
 Number     Number       Type             X           Y           Z
 ---------------------------------------------------------------------
      1          6           0        0.665700   -0.000000   -1.019430
      2          6           0       -0.665700    0.000000   -1.019430
      3          6           0       -0.752065    0.000000    0.505323
      4          6           0       -0.000000    0.000000    1.608837
      5          6           0        0.752065   -0.000000    0.505323
      6          1           0        1.467611   -0.000000   -1.741865
      7          1           0       -1.467611    0.000000   -1.741865
 ---------------------------------------------------------------------

 SCF Done:  E(UB3LYP) =  -191.174045013     A.U. after   13 cycles

 The electronic state is 2-A1.
 Alpha  occ. eigenvalues --  -10.54962 -10.54935 -10.51247 -10.49135 -10.49054
 Alpha  occ. eigenvalues --   -1.26237  -1.08122  -0.90421  -0.82280  -0.77963
 Alpha  occ. eigenvalues --   -0.73385  -0.70056  -0.65963  -0.65010  -0.54224
 Alpha  occ. eigenvalues --   -0.51115
 Alpha virt. eigenvalues --   -0.38417  -0.24571  -0.23907  -0.21009  -0.19052
 Alpha virt. eigenvalues --   -0.13864  -0.12074  -0.11688  -0.10978  -0.09688
 Alpha virt. eigenvalues --   -0.09502  -0.06057  -0.05849  -0.04926  -0.04190

  Beta  occ. eigenvalues --  -10.54442 -10.54419 -10.50029 -10.49107 -10.49028
  Beta  occ. eigenvalues --   -1.25897  -1.07740  -0.89611  -0.81544  -0.76340
  Beta  occ. eigenvalues --   -0.72486  -0.69594  -0.65586  -0.59766  -0.53815
  Beta virt. eigenvalues --   -0.38855  -0.37881  -0.21892  -0.21814  -0.20687
  Beta virt. eigenvalues --   -0.18527  -0.13539  -0.11947  -0.11182  -0.10943
  Beta virt. eigenvalues --   -0.09523  -0.09245  -0.06034  -0.05259  -0.04915

 Mulliken charges and spin densities:
               1          2
     1  C   -0.043842   0.002732
     2  C   -0.043842   0.002732
     3  C    0.113754   0.242643
     4  C    0.281758   0.498260
     5  C    0.113754   0.242643
     6  H    0.289208   0.005495
     7  H    0.289208   0.005495
 Sum of Mulliken charges =   1.00000   1.00000

 Dipole moment (field-independent basis, Debye):
    X=             -0.0000    Y=              0.0000    Z=             -2.0513  Tot=              2.0513
 Quadrupole moment (field-independent basis, Debye-Ang):
   XX=            -19.6261   YY=            -26.0309   ZZ=            -18.5357
   XY=             -0.0000   XZ=              0.0000   YZ=             -0.0000

  Exact polarizability:  42.559  -0.000  26.062   0.000   0.000  53.527
 Approx polarizability:  89.016  -0.000  40.341   0.000  -0.000  93.201

                      1                      2                      3
                     A2                     B2                     B1
 Frequencies --    382.2326               421.1365               461.6776
 Red. masses --      3.9251                 6.3277                 9.9399
 Frc consts  --      0.3379                 0.6612                 1.2483
 IR Inten    --      0.0000                 0.0070                 6.1110

                      4                      5                      6
                     B2                     A1                     B1
 Frequencies --    753.3338               757.8005               818.2124
 Red. masses --      1.2484                11.1069                 4.4313
 Frc consts  --      0.4174                 3.7580                 1.7479
 IR Inten    --     71.8049                 0.1405                 3.1519

                      7                      8                      9
                     A2                     A1                     A1
 Frequencies --    928.3230               961.0627              1105.3590
 Red. masses --      1.4650                 5.3998                 1.1687
 Frc consts  --      0.7439                 2.9385                 0.8413
 IR Inten    --      0.0000                 2.1766                 4.1489

                     10                     11                     12
                     B1                     B1                     A1
 Frequencies --   1160.6378              1238.6512              1592.8281
 Red. masses --      6.0157                 1.4446                 6.0855
 Frc consts  --      4.7746                 1.3059                 9.0967
 IR Inten    --     76.5373                 3.7097                22.7683

                     13                     14                     15
                     A1                     B1                     A1
 Frequencies --   1744.2732              3228.7867              3257.3899
 Red. masses --      9.8068                 1.0892                 1.1222
 Frc consts  --     17.5795                 6.6904                 7.0156
 IR Inten    --      0.1759                52.4326                34.6557

 - Thermochemistry -
 -------------------
 Temperature   298.150 Kelvin.  Pressure   1.00000 Atm.
 Atom     1 has atomic number  6 and mass  12.00000

 Molecular mass:    62.01565 amu.
 Principal axes and moments of inertia in atomic units:
                           1         2         3
     Eigenvalues --   101.95986 243.02327 344.98313
           X           -0.00000   1.00000  -0.00000
           Y           -0.00000   0.00000   1.00000
           Z            1.00000   0.00000   0.00000
 This molecule is an asymmetric top.
 Rotational symmetry number  2.
 Rotational temperatures (Kelvin)      0.84949     0.35640     0.25107
 Rotational constants (GHZ):          17.70051     7.42621     5.23139
 Zero-point vibrational energy     112519.0 (Joules/Mol)
                                   26.89268 (Kcal/Mol)
 Warning -- explicit consideration of   3 degrees of freedom as
           vibrations may cause significant error
 Vibrational temperatures:    549.95   605.92   664.25  1083.88  1090.30
          (Kelvin)           1177.22  1335.65  1382.75  1590.36  1669.90
                             1782.14  2291.72  2509.62  4645.50  4686.65

 Zero-point correction=                           0.042856 (Hartree/Particle)
 Thermal correction to Energy=                    0.046972
 Thermal correction to Enthalpy=                  0.047916
 Thermal correction to Gibbs Free Energy=         0.016694
 Sum of electronic and zero-point Energies=           -191.131189
 Sum of electronic and thermal Energies=              -191.127073
 Sum of electronic and thermal Enthalpies=            -191.126129
 Sum of electronic and thermal Free Energies=         -191.157351

                     E (Thermal)             CV                S
                      KCal/Mol        Cal/Mol-Kelvin    Cal/Mol-Kelvin
 Total                   29.475             13.962             65.713
 Electronic               0.000              0.000              1.377
 Translational            0.889              2.981             38.294
 Rotational               0.889              2.981             22.285
 Vibrational             27.698              8.000              3.757
 Vibration     1          0.752              1.508              1.030
 Vibration     2          0.784              1.424              0.888
 Vibration     3          0.819              1.335              0.761

 Optimization completed.
    -- Stationary point found.
 Normal termination of Gaussian 09 at Thu Jan 31 04:43:02 2019.
