 Gaussian 09, Revision E.01,
 Gaussian 09:  EM64L-G09RevE.01 30-Nov-2015

 ---------------------------------------------
 #p b3lyp/6-311++G(3df,2p) freq symmetry=Loose
 ---------------------------------------------

 ---------
 b3lyp opt
 ---------
 Symbolic Z-matrix:
 Charge =  2 Multiplicity = 3

                         Standard orientation:
 ---------------------------------------------------------------------
 Center     Atomic      Atomic             Coordinates (Angstroms)
 Number     Number       Type             X           Y           Z
 ---------------------------------------------------------------------
      1          6           0        0.968606    1.399177   -0.000000
      2          6           0       -0.000000    0.380678   -0.000000
      3          6           0       -0.276566   -0.989375    0.000000
      4          6           0       -0.533703   -2.213187    0.000000
      5          6           0       -0.370595    1.693948   -0.000000
      6          1           0       -0.758308   -3.280807    0.000000
      7          1           0        2.031855    1.653358   -0.000000
 ---------------------------------------------------------------------

 SCF Done:  E(UB3LYP) =  -190.627701363     A.U. after   16 cycles

 The electronic state is 3-A".
 Alpha  occ. eigenvalues --  -10.76731 -10.76473 -10.76438 -10.76028 -10.75189
 Alpha  occ. eigenvalues --   -1.45176  -1.31848  -1.17687  -1.06149  -1.01239
 Alpha  occ. eigenvalues --   -0.96293  -0.90991  -0.89069  -0.83227  -0.82508
 Alpha  occ. eigenvalues --   -0.76143
 Alpha virt. eigenvalues --   -0.57796  -0.50741  -0.48611  -0.40351  -0.34292
 Alpha virt. eigenvalues --   -0.32318  -0.30623  -0.28699  -0.26944  -0.25966
 Alpha virt. eigenvalues --   -0.24550  -0.24041  -0.21077  -0.20481  -0.20347

  Beta  occ. eigenvalues --  -10.76418 -10.75642 -10.75314 -10.74910 -10.74840
  Beta  occ. eigenvalues --   -1.43775  -1.28317  -1.16261  -1.04849  -1.00257
  Beta  occ. eigenvalues --   -0.92621  -0.88381  -0.87669  -0.79158
  Beta virt. eigenvalues --   -0.71045  -0.61382  -0.54439  -0.47409  -0.46940
  Beta virt. eigenvalues --   -0.36182  -0.32812  -0.31850  -0.29792  -0.28290
  Beta virt. eigenvalues --   -0.25946  -0.25595  -0.24030  -0.23014  -0.20236

 Mulliken charges and spin densities:
               1          2
     1  C    0.147830   0.153881
     2  C    0.135428  -0.002636
     3  C   -0.031240   0.502751
     4  C    0.659944   0.404786
     5  C    0.276787   0.955054
     6  H    0.445694  -0.013836
     7  H    0.365557   0.000000
 Sum of Mulliken charges =   2.00000   2.00000

 Dipole moment (field-independent basis, Debye):
    X=              0.7883    Y=             -2.4414    Z=              0.0000  Tot=              2.5655
 Quadrupole moment (field-independent basis, Debye-Ang):
   XX=            -15.3233   YY=             14.5043   ZZ=            -22.1470
   XY=             11.4228   XZ=              0.0000   YZ=             -0.0000

  Exact polarizability:  33.951   9.488  74.662   0.000   0.000  22.451
 Approx polarizability:  53.262  13.656 133.026  -0.000  -0.000  33.623

                      1                      2                      3
                     A'                     A"                     A'
 Frequencies --    199.3247               211.6167               498.8093
 Red. masses --      4.2693                 4.4086                 5.8867
 Frc consts  --      0.0999                 0.1163                 0.8630
 IR Inten    --     13.4648                 9.5793                 5.4942

                      4                      5                      6
                     A"                     A'                     A'
 Frequencies --    529.2426               704.1877               707.7414
 Red. masses --      5.0589                 2.8825                 1.6868
 Frc consts  --      0.8349                 0.8422                 0.4978
 IR Inten    --      0.0434                18.4649                33.4014

                      7                      8                      9
                     A"                     A"                     A'
 Frequencies --    807.5433               946.0172               964.1867
 Red. masses --      1.4119                 1.3782                 1.2717
 Frc consts  --      0.5425                 0.7267                 0.6965
 IR Inten    --     12.9282                21.6641                44.7125

                     10                     11                     12
                     A'                     A'                     A'
 Frequencies --   1151.1208              1316.8216              1582.9879
 Red. masses --      8.9558                 8.2249                 8.7847
 Frc consts  --      6.9919                 8.4030                12.9698
 IR Inten    --     56.5632                 9.0441               143.0325

                     13                     14                     15
                     A'                     A'                     A'
 Frequencies --   2011.4338              3134.3283              3188.4152
 Red. masses --      6.1416                 1.1205                 1.1638
 Frc consts  --     14.6401                 6.4857                 6.9708
 IR Inten    --     99.7186               212.6682               376.4713

 - Thermochemistry -
 -------------------
 Temperature   298.150 Kelvin.  Pressure   1.00000 Atm.
 Atom     1 has atomic number  6 and mass  12.00000

 Molecular mass:    62.01565 amu.
 Principal axes and moments of inertia in atomic units:
                           1         2         3
     Eigenvalues --    50.02444 541.72722 591.75166
           X            0.24027   0.97071   0.00000
           Y            0.97071  -0.24027   0.00000
           Z            0.00000   0.00000   1.00000
 This molecule is an asymmetric top.
 Rotational symmetry number  1.
 Rotational temperatures (Kelvin)      1.73143     0.15988     0.14637
 Rotational constants (GHZ):          36.07719     3.33146     3.04983
 Zero-point vibrational energy     107387.4 (Joules/Mol)
                                   25.66621 (Kcal/Mol)
 Warning -- explicit consideration of   4 degrees of freedom as
           vibrations may cause significant error
 Vibrational temperatures:    286.78   304.47   717.67   761.46  1013.17
          (Kelvin)           1018.28  1161.87  1361.11  1387.25  1656.20
                             1894.61  2277.56  2894.00  4509.59  4587.41

 Zero-point correction=                           0.040902 (Hartree/Particle)
 Thermal correction to Energy=                    0.045686
 Thermal correction to Enthalpy=                  0.046631
 Thermal correction to Gibbs Free Energy=         0.012757
 Sum of electronic and zero-point Energies=           -190.586800
 Sum of electronic and thermal Energies=              -190.582015
 Sum of electronic and thermal Enthalpies=            -190.581071
 Sum of electronic and thermal Free Energies=         -190.614944

                     E (Thermal)             CV                S
                      KCal/Mol        Cal/Mol-Kelvin    Cal/Mol-Kelvin
 Total                   28.669             15.642             71.293
 Electronic               0.000              0.000              2.183
 Translational            0.889              2.981             38.294
 Rotational               0.889              2.981             24.287
 Vibrational             26.891              9.681              6.528
 Vibration     1          0.637              1.841              2.139
 Vibration     2          0.643              1.823              2.030
 Vibration     3          0.854              1.253              0.661
 Vibration     4          0.884              1.185              0.589

 Optimization completed.
    -- Stationary point found.
 Normal termination of Gaussian 09 at Tue Jul 19 09:10:59 2016.
