 Gaussian 09, Revision E.01,
 Gaussian 09:  EM64L-G09RevE.01 30-Nov-2015

 ---------------------------------------------
 #p b3lyp/6-311++G(3df,2p) freq symmetry=Loose
 ---------------------------------------------

 ---------
 b3lyp opt
 ---------
 Symbolic Z-matrix:
 Charge =  1 Multiplicity = 4

                         Standard orientation:
 ---------------------------------------------------------------------
 Center     Atomic      Atomic             Coordinates (Angstroms)
 Number     Number       Type             X           Y           Z
 ---------------------------------------------------------------------
      1          6           0       -0.103004    0.829049   -0.000000
      2          6           0       -0.103004   -0.458546    0.879576
      3          6           0       -0.396346   -1.464770    0.000000
      4          6           0       -0.103004   -0.458546   -0.879576
      5          6           0        0.971786    1.741498   -0.000000
      6          1           0       -0.552462   -2.531928    0.000000
      7          1           0       -1.046106    1.399816   -0.000000
 ---------------------------------------------------------------------

 SCF Done:  E(UB3LYP) =  -191.017206823     A.U. after   30 cycles

 The electronic state is 4-A'.
 Alpha  occ. eigenvalues --  -10.54390 -10.54390 -10.51348 -10.49225 -10.48575
 Alpha  occ. eigenvalues --   -1.21923  -1.03757  -0.87285  -0.87143  -0.78235
 Alpha  occ. eigenvalues --   -0.72597  -0.69769  -0.64005  -0.62257  -0.54044
 Alpha  occ. eigenvalues --   -0.49582  -0.47015
 Alpha virt. eigenvalues --   -0.35386  -0.32421  -0.27087  -0.15137  -0.13600
 Alpha virt. eigenvalues --   -0.13268  -0.10884  -0.10049  -0.08143  -0.07832
 Alpha virt. eigenvalues --   -0.07390  -0.07244  -0.05551  -0.04401  -0.02926

  Beta  occ. eigenvalues --  -10.52044 -10.52043 -10.50270 -10.49212 -10.48725
  Beta  occ. eigenvalues --   -1.19702  -1.02122  -0.85652  -0.80045  -0.76975
  Beta  occ. eigenvalues --   -0.71263  -0.66961  -0.59986  -0.52435
  Beta virt. eigenvalues --   -0.44474  -0.34185  -0.34062  -0.31752  -0.24852
  Beta virt. eigenvalues --   -0.24531  -0.14764  -0.13484  -0.11592  -0.10306
  Beta virt. eigenvalues --   -0.09534  -0.07562  -0.07400  -0.06293  -0.05535

 Mulliken charges and spin densities:
               1          2
     1  C    0.405715  -0.218547
     2  C    0.081586   1.424435
     3  C    0.247114  -0.354895
     4  C    0.081586   1.424435
     5  C   -0.403984   0.715073
     6  H    0.321619   0.012308
     7  H    0.266364  -0.002810
 Sum of Mulliken charges =   1.00000   3.00000

 Dipole moment (field-independent basis, Debye):
    X=             -1.9982    Y=             -1.8332    Z=              0.0000  Tot=              2.7117
 Quadrupole moment (field-independent basis, Debye-Ang):
   XX=            -25.8786   YY=            -15.5834   ZZ=            -24.2296
   XY=             -0.5799   XZ=             -0.0000   YZ=              0.0000

  Exact polarizability:  38.558  11.937  63.249   0.000  -0.000  40.185
 Approx polarizability:  61.148  21.690 101.174  -0.000   0.000  77.179

                      1                      2                      3
                     A'                     A"                     A'
 Frequencies --    205.4736               329.4319               441.9754
 Red. masses --      6.5010                 7.2590                 4.2393
 Frc consts  --      0.1617                 0.4641                 0.4879
 IR Inten    --     16.0904                 2.9869                47.4144

                      4                      5                      6
                     A"                     A'                     A'
 Frequencies --    483.6070               683.5580               820.8340
 Red. masses --      8.5448                 6.3139                 1.4866
 Frc consts  --      1.1774                 1.7382                 0.5901
 IR Inten    --      3.4262                25.6949                33.3873

                      7                      8                      9
                     A"                     A'                     A"
 Frequencies --    848.6989               912.7477              1000.8582
 Red. masses --      1.4056                 4.7552                 1.6760
 Frc consts  --      0.5965                 2.3341                 0.9892
 IR Inten    --     27.8251                28.4445                 0.3828

                     10                     11                     12
                     A'                     A"                     A'
 Frequencies --   1003.0087              1114.7935              1263.1123
 Red. masses --      1.6214                 2.0237                 3.3372
 Frc consts  --      0.9611                 1.4818                 3.1370
 IR Inten    --      0.3568                28.4470                 4.7365

                     13                     14                     15
                     A'                     A'                     A'
 Frequencies --   1490.9844              2985.8705              3255.4283
 Red. masses --      7.0105                 1.0792                 1.1094
 Frc consts  --      9.1822                 5.6688                 6.9269
 IR Inten    --      1.0005                78.6483               119.7127

 - Thermochemistry -
 -------------------
 Temperature   298.150 Kelvin.  Pressure   1.00000 Atm.
 Atom     1 has atomic number  6 and mass  12.00000

 Molecular mass:    62.01565 amu.
 Principal axes and moments of inertia in atomic units:
                           1         2         3
     Eigenvalues --    85.83477 352.89006 399.66804
           X            0.32880   0.00000   0.94440
           Y            0.94440   0.00000  -0.32880
           Z            0.00000   1.00000   0.00000
 This molecule is an asymmetric top.
 Rotational symmetry number  1.
 Rotational temperatures (Kelvin)      1.00908     0.24544     0.21671
 Rotational constants (GHZ):          21.02576     5.11417     4.51560
 Zero-point vibrational energy     100727.9 (Joules/Mol)
                                   24.07453 (Kcal/Mol)
 Warning -- explicit consideration of   4 degrees of freedom as
           vibrations may cause significant error
 Vibrational temperatures:    295.63   473.98   635.90   695.80   983.49
          (Kelvin)           1181.00  1221.09  1313.24  1440.01  1443.10
                             1603.94  1817.33  2145.19  4296.00  4683.83

 Zero-point correction=                           0.038365 (Hartree/Particle)
 Thermal correction to Energy=                    0.043066
 Thermal correction to Enthalpy=                  0.044010
 Thermal correction to Gibbs Free Energy=         0.010260
 Sum of electronic and zero-point Energies=           -190.978842
 Sum of electronic and thermal Energies=              -190.974141
 Sum of electronic and thermal Enthalpies=            -190.973197
 Sum of electronic and thermal Free Energies=         -191.006947

                     E (Thermal)             CV                S
                      KCal/Mol        Cal/Mol-Kelvin    Cal/Mol-Kelvin
 Total                   27.024             15.873             71.033
 Electronic               0.000              0.000              2.755
 Translational            0.889              2.981             38.294
 Rotational               0.889              2.981             24.008
 Vibrational             25.247              9.911              5.977
 Vibration     1          0.640              1.832              2.084
 Vibration     2          0.712              1.617              1.263
 Vibration     3          0.802              1.379              0.820
 Vibration     4          0.840              1.286              0.700

 Normal termination of Gaussian 09 at Tue Jul 19 10:17:44 2016.
