 Gaussian 09, Revision E.01,
 Gaussian 09:  EM64L-G09RevE.01 30-Nov-2015

 ---------------------------------------------
 #p b3lyp/6-311++G(3df,2p) freq symmetry=Loose
 ---------------------------------------------

 ---------
 b3lyp opt
 ---------
 Symbolic Z-matrix:
 Charge =  1 Multiplicity = 2

                         Standard orientation:
 ---------------------------------------------------------------------
 Center     Atomic      Atomic             Coordinates (Angstroms)
 Number     Number       Type             X           Y           Z
 ---------------------------------------------------------------------
      1          6           0       -0.001203    0.688429    0.000000
      2          6           0        0.790659   -0.547788    0.000000
      3          6           0       -0.029207   -1.630143    0.000000
      4          6           0       -0.810135   -0.517842    0.000000
      5          6           0        0.000000    1.962337    0.000000
      6          1           0        0.351202    2.976101    0.000000
      7          1           0       -0.051879   -2.706057    0.000000
 ---------------------------------------------------------------------

 SCF Done:  E(UB3LYP) =  -191.200546163     A.U. after   17 cycles

 The electronic state is 2-A'.
 Alpha  occ. eigenvalues --  -10.53562 -10.53521 -10.50107 -10.49485 -10.47420
 Alpha  occ. eigenvalues --   -1.25863  -1.04400  -0.92390  -0.82343  -0.78553
 Alpha  occ. eigenvalues --   -0.74557  -0.69917  -0.69007  -0.55887  -0.53770
 Alpha  occ. eigenvalues --   -0.49707
 Alpha virt. eigenvalues --   -0.33500  -0.31344  -0.27040  -0.14395  -0.14216
 Alpha virt. eigenvalues --   -0.13729  -0.11698  -0.10791  -0.10313  -0.09639
 Alpha virt. eigenvalues --   -0.07254  -0.06010  -0.04901  -0.03859  -0.03621

  Beta  occ. eigenvalues --  -10.53316 -10.53286 -10.50067 -10.49667 -10.45941
  Beta  occ. eigenvalues --   -1.25770  -1.02572  -0.90772  -0.81586  -0.77725
  Beta  occ. eigenvalues --   -0.73868  -0.69044  -0.68442  -0.54861  -0.53022
  Beta virt. eigenvalues --   -0.35974  -0.32996  -0.30462  -0.24755  -0.14306
  Beta virt. eigenvalues --   -0.14164  -0.13404  -0.11302  -0.10576  -0.10253
  Beta virt. eigenvalues --   -0.09318  -0.06403  -0.05983  -0.04653  -0.03800

 Mulliken charges and spin densities:
               1          2
     1  C   -0.142062  -0.092846
     2  C    0.718607   0.095280
     3  C   -0.522079   0.015873
     4  C    0.798176   0.075408
     5  C   -0.550834   0.919904
     6  H    0.364264  -0.015101
     7  H    0.333929   0.001482
 Sum of Mulliken charges =   1.00000   1.00000

 Dipole moment (field-independent basis, Debye):
    X=              0.2625    Y=             -0.1904    Z=              0.0000  Tot=              0.3243
 Quadrupole moment (field-independent basis, Debye-Ang):
   XX=            -26.4541   YY=             -3.6105   ZZ=            -26.1486
   XY=              1.4997   XZ=              0.0000   YZ=              0.0000

  Exact polarizability:  39.548   0.510  74.121   0.000  -0.000  26.699
 Approx polarizability:  88.665  -0.684 140.051  -0.000  -0.000  40.290

                      1                      2                      3
                     A"                     A'                     A'
 Frequencies --    240.7358               252.9574               408.4548
 Red. masses --      3.9668                 1.1239                 7.2069
 Frc consts  --      0.1354                 0.0424                 0.7084
 IR Inten    --     12.2468                51.8641                 6.5896

                      4                      5                      6
                     A'                     A"                     A"
 Frequencies --    558.1486               582.8988               731.4208
 Red. masses --      7.3781                 9.9967                 1.2709
 Frc consts  --      1.3542                 2.0012                 0.4006
 IR Inten    --     46.8365                 5.8492                29.9565

                      7                      8                      9
                     A'                     A"                     A'
 Frequencies --    759.9536               788.2306               976.2629
 Red. masses --      8.4144                 1.1930                 9.2665
 Frc consts  --      2.8632                 0.4367                 5.2035
 IR Inten    --      0.1811                13.4383                 5.2275

                     10                     11                     12
                     A'                     A'                     A'
 Frequencies --   1034.4965              1074.1482              1587.7192
 Red. masses --      1.9763                 2.4541                 6.7780
 Frc consts  --      1.2461                 1.6683                10.0670
 IR Inten    --      0.1050                13.6831                21.8761

                     13                     14                     15
                     A'                     A'                     A'
 Frequencies --   1797.7384              3295.6307              3336.1827
 Red. masses --      7.3617                 1.1205                 1.1222
 Frc consts  --     14.0179                 7.1706                 7.3591
 IR Inten    --      6.1749               132.8574               189.5284

 - Thermochemistry -
 -------------------
 Temperature   298.150 Kelvin.  Pressure   1.00000 Atm.
 Atom     1 has atomic number  6 and mass  12.00000

 Molecular mass:    62.01565 amu.
 Principal axes and moments of inertia in atomic units:
                           1         2         3
     Eigenvalues --    55.30029 381.87783 437.17812
           X            0.01741   0.99985   0.00000
           Y            0.99985  -0.01741   0.00000
           Z            0.00000  -0.00000   1.00000
 This molecule is an asymmetric top.
 Rotational symmetry number  1.
 Rotational temperatures (Kelvin)      1.56625     0.22681     0.19812
 Rotational constants (GHZ):          32.63529     4.72596     4.12816
 Zero-point vibrational energy     104224.5 (Joules/Mol)
                                   24.91026 (Kcal/Mol)
 Warning -- explicit consideration of   5 degrees of freedom as
           vibrations may cause significant error
 Vibrational temperatures:    346.36   363.95   587.67   803.05   838.66
          (Kelvin)           1052.35  1093.40  1134.09  1404.62  1488.41
                             1545.46  2284.37  2586.54  4741.67  4800.02

 Zero-point correction=                           0.039697 (Hartree/Particle)
 Thermal correction to Energy=                    0.044545
 Thermal correction to Enthalpy=                  0.045489
 Thermal correction to Gibbs Free Energy=         0.012300
 Sum of electronic and zero-point Energies=           -191.160849
 Sum of electronic and thermal Energies=              -191.156001
 Sum of electronic and thermal Enthalpies=            -191.155057
 Sum of electronic and thermal Free Energies=         -191.188246

                     E (Thermal)             CV                S
                      KCal/Mol        Cal/Mol-Kelvin    Cal/Mol-Kelvin
 Total                   27.953             16.427             69.852
 Electronic               0.000              0.000              1.377
 Translational            0.889              2.981             38.294
 Rotational               0.889              2.981             23.739
 Vibrational             26.175             10.466              6.442
 Vibration     1          0.658              1.778              1.797
 Vibration     2          0.664              1.758              1.710
 Vibration     3          0.773              1.452              0.932
 Vibration     4          0.914              1.122              0.528
 Vibration     5          0.940              1.068              0.480

 Optimization completed.
    -- Stationary point found.
 Normal termination of Gaussian 09 at Sun Jun 19 02:32:04 2016.
