 Gaussian 09, Revision E.01,
 Gaussian 09:  EM64L-G09RevE.01 30-Nov-2015

 ---------------------------------------------
 #p b3lyp/6-311++G(3df,2p) freq symmetry=Loose
 ---------------------------------------------

 ---------
 b3lyp opt
 ---------
 Symbolic Z-matrix:
 Charge =  0 Multiplicity = 1

                         Standard orientation:
 ---------------------------------------------------------------------
 Center     Atomic      Atomic             Coordinates (Angstroms)
 Number     Number       Type             X           Y           Z
 ---------------------------------------------------------------------
      1          6           0       -1.122161   -0.136978    0.000000
      2          6           0       -0.000000    0.707646    0.000000
      3          6           0        1.267148    0.283933   -0.000000
      4          6           0        2.489718   -0.076789   -0.000000
      5          6           0       -2.105918   -0.831023    0.000000
      6          1           0       -0.208334    1.777417    0.000000
      7          1           0       -2.964390   -1.458147    0.000000
 ---------------------------------------------------------------------

 SCF Done:  E(RB3LYP) =  -191.550428501     A.U. after   14 cycles

 The electronic state is 1-A'.
 Alpha  occ. eigenvalues --  -10.28421 -10.23373 -10.23071 -10.21017 -10.18849
 Alpha  occ. eigenvalues --   -0.86434  -0.79261  -0.72526  -0.60614  -0.56045
 Alpha  occ. eigenvalues --   -0.53149  -0.40086  -0.33686  -0.31521  -0.28784
 Alpha  occ. eigenvalues --   -0.28435
 Alpha virt. eigenvalues --   -0.16164  -0.02746  -0.01147   0.00352   0.00462
 Alpha virt. eigenvalues --    0.02614   0.03911   0.04122   0.04295   0.07242
 Alpha virt. eigenvalues --    0.08132   0.08412   0.08540   0.09383   0.09864

 Mulliken charges:
               1
     1  C   -0.250135
     2  C   -0.815494
     3  C    0.895085
     4  C   -0.766676
     5  C    0.439162
     6  H    0.172193
     7  H    0.325866
 Sum of Mulliken charges =  -0.00000

 Dipole moment (field-independent basis, Debye):
    X=             -5.3713    Y=              0.7165    Z=             -0.0000  Tot=              5.4189
 Quadrupole moment (field-independent basis, Debye-Ang):
   XX=            -35.7437   YY=            -26.2210   ZZ=            -29.3295
   XY=              4.3608   XZ=              0.0000   YZ=              0.0000

  Exact polarizability: 113.711   9.478  49.227  -0.006   0.002  37.444
 Approx polarizability: 224.313  16.905  77.382  -0.000  -0.000  54.304

                      1                      2                      3
                     A'                     A"                     A'
 Frequencies --    136.3101               221.6820               309.5803
 Red. masses --      6.1732                 4.9872                 5.8601
 Frc consts  --      0.0676                 0.1444                 0.3309
 IR Inten    --      4.1520                 3.0000                 2.5214

                      4                      5                      6
                     A"                     A'                     A'
 Frequencies --    318.4640               592.7678               666.5822
 Red. masses --      3.2919                 8.9728                 1.2612
 Frc consts  --      0.1967                 1.8576                 0.3302
 IR Inten    --     15.4209                 8.6642                44.2416

                      7                      8                      9
                     A"                     A"                     A'
 Frequencies --    736.3361               900.6414               968.1732
 Red. masses --      1.3081                 1.7798                 6.8596
 Frc consts  --      0.4179                 0.8506                 3.7884
 IR Inten    --     29.5268                 3.5672                41.3316

                     10                     11                     12
                     A'                     A'                     A'
 Frequencies --   1169.8970              1402.2193              2030.9707
 Red. masses --      1.8835                 2.0976                11.6274
 Frc consts  --      1.5189                 2.4299                28.2579
 IR Inten    --      9.2768                 6.6617               758.8269

                     13                     14                     15
                     A'                     A'                     A'
 Frequencies --   2185.6917              3086.9593              3451.1244
 Red. masses --      6.1208                 1.0857                 1.1585
 Frc consts  --     17.2281                 6.0955                 8.1293
 IR Inten    --     71.0572                 0.5706                68.3146

 - Thermochemistry -
 -------------------
 Temperature   298.150 Kelvin.  Pressure   1.00000 Atm.
 Atom     1 has atomic number  6 and mass  12.00000

 Molecular mass:    62.01565 amu.
 Principal axes and moments of inertia in atomic units:
                           1         2         3
     Eigenvalues --    55.40697 628.83436 684.24132
           X            0.98314  -0.18286   0.00000
           Y            0.18286   0.98314   0.00000
           Z           -0.00000   0.00000   1.00000
 This molecule is an asymmetric top.
 Rotational symmetry number  1.
 Rotational temperatures (Kelvin)      1.56323     0.13774     0.12658
 Rotational constants (GHZ):          32.57246     2.86998     2.63758
 Zero-point vibrational energy     108725.0 (Joules/Mol)
                                   25.98590 (Kcal/Mol)
 Warning -- explicit consideration of   5 degrees of freedom as
           vibrations may cause significant error
 Vibrational temperatures:    196.12   318.95   445.42   458.20   852.86
          (Kelvin)            959.06  1059.42  1295.82  1392.98  1683.22
                             2017.48  2922.11  3144.72  4441.44  4965.39

 Zero-point correction=                           0.041411 (Hartree/Particle)
 Thermal correction to Energy=                    0.046757
 Thermal correction to Enthalpy=                  0.047701
 Thermal correction to Gibbs Free Energy=         0.013565
 Sum of electronic and zero-point Energies=           -191.509017
 Sum of electronic and thermal Energies=              -191.503672
 Sum of electronic and thermal Enthalpies=            -191.502727
 Sum of electronic and thermal Free Energies=         -191.536864

                     E (Thermal)             CV                S
                      KCal/Mol        Cal/Mol-Kelvin    Cal/Mol-Kelvin
 Total                   29.340             16.943             71.846
 Electronic               0.000              0.000              0.000
 Translational            0.889              2.981             38.294
 Rotational               0.889              2.981             24.681
 Vibrational             27.563             10.981              8.871
 Vibration     1          0.614              1.917              2.855
 Vibration     2          0.648              1.808              1.945
 Vibration     3          0.699              1.655              1.365
 Vibration     4          0.705              1.638              1.318
 Vibration     5          0.950              1.047              0.462

 Optimization completed.
    -- Stationary point found.
 Normal termination of Gaussian 09 at Tue Jul 19 04:44:29 2016.
