 Gaussian 09, Revision E.01,
 Gaussian 09:  EM64L-G09RevE.01 30-Nov-2015

 ---------------------------------------------
 #p b3lyp/6-311++G(3df,2p) freq symmetry=Loose
 ---------------------------------------------

 ---------
 b3lyp opt
 ---------
 Symbolic Z-matrix:
 Charge =  0 Multiplicity = 3

                         Standard orientation:
 ---------------------------------------------------------------------
 Center     Atomic      Atomic             Coordinates (Angstroms)
 Number     Number       Type             X           Y           Z
 ---------------------------------------------------------------------
      1          6           0        0.631879   -0.049319   -0.009660
      2          6           0       -0.496339    0.900641   -0.150985
      3          6           0       -1.534038    0.039252    0.159238
      4          6           0       -0.556103   -0.899832   -0.132662
      5          6           0        1.925059   -0.094956    0.069780
      6          1           0        2.781032    0.548376    0.149724
      7          1           0       -2.603779    0.076913    0.236003
 ---------------------------------------------------------------------

 SCF Done:  E(UB3LYP) =  -191.468644655     A.U. after   18 cycles

 The electronic state is 3-A.
 Alpha  occ. eigenvalues --  -10.24487 -10.24353 -10.23841 -10.23670 -10.22924
 Alpha  occ. eigenvalues --   -0.95859  -0.78721  -0.65176  -0.60015  -0.54482
 Alpha  occ. eigenvalues --   -0.47076  -0.44405  -0.43271  -0.32221  -0.29050
 Alpha  occ. eigenvalues --   -0.28468  -0.20797
 Alpha virt. eigenvalues --   -0.07416  -0.06477   0.00161   0.00566   0.03840
 Alpha virt. eigenvalues --    0.04643   0.05449   0.05629   0.06124   0.07897
 Alpha virt. eigenvalues --    0.08984   0.09941   0.10720   0.11277   0.11612

  Beta  occ. eigenvalues --  -10.23963 -10.23797 -10.23400 -10.23346 -10.21336
  Beta  occ. eigenvalues --   -0.94662  -0.76532  -0.64036  -0.57117  -0.53240
  Beta  occ. eigenvalues --   -0.46284  -0.42266  -0.40926  -0.28667  -0.27916
  Beta virt. eigenvalues --   -0.13434  -0.08055  -0.06332  -0.04916   0.00231
  Beta virt. eigenvalues --    0.00746   0.04053   0.05023   0.05642   0.06146
  Beta virt. eigenvalues --    0.07159   0.08060   0.09102   0.10573   0.11050

 Mulliken charges and spin densities:
               1          2
     1  C    0.480436  -0.163812
     2  C   -0.243610   0.634399
     3  C   -0.041344  -0.118210
     4  C   -0.203299   0.601625
     5  C   -0.470672   1.028233
     6  H    0.227119   0.012409
     7  H    0.251370   0.005356
 Sum of Mulliken charges =  -0.00000   2.00000

 Dipole moment (field-independent basis, Debye):
    X=             -0.2010    Y=              0.5596    Z=              0.7912  Tot=              0.9897
 Quadrupole moment (field-independent basis, Debye-Ang):
   XX=            -20.9894   YY=            -32.9361   ZZ=            -30.7133
   XY=              1.4462   XZ=             -0.6230   YZ=              0.1236

  Exact polarizability:  82.721  -0.030  60.266  -0.787  -0.048  36.420
 Approx polarizability: 141.687  -0.395 127.434  -5.621  -0.439  52.780

                      1                      2                      3
                      A                      A                      A
 Frequencies --    266.1070               327.8445               538.4100
 Red. masses --      3.8499                 2.7170                 2.4689
 Frc consts  --      0.1606                 0.1721                 0.4217
 IR Inten    --      8.2672                10.2803                42.4733

                      4                      5                      6
                      A                      A                      A
 Frequencies --    640.4643               690.2338               715.9546
 Red. masses --      7.4983                 1.7609                 4.4483
 Frc consts  --      1.8122                 0.4943                 1.3434
 IR Inten    --     15.3565                37.1292                10.6608

                      7                      8                      9
                      A                      A                      A
 Frequencies --    765.1946               839.0679               934.9252
 Red. masses --      2.0954                 1.3183                 4.3464
 Frc consts  --      0.7229                 0.5469                 2.2384
 IR Inten    --     21.3704                29.7010                34.9875

                     10                     11                     12
                      A                      A                      A
 Frequencies --    960.8701              1125.9049              1429.5596
 Red. masses --      7.9136                 1.3727                 7.2319
 Frc consts  --      4.3048                 1.0253                 8.7078
 IR Inten    --      5.0775                 0.2308                 3.0049

                     13                     14                     15
                      A                      A                      A
 Frequencies --   1744.6366              3290.8929              3297.7130
 Red. masses --      8.2950                 1.1060                 1.1059
 Frc consts  --     14.8756                 7.0569                 7.0860
 IR Inten    --      9.1907                11.3582                 9.6505

 - Thermochemistry -
 -------------------
 Temperature   298.150 Kelvin.  Pressure   1.00000 Atm.
 Atom     1 has atomic number  6 and mass  12.00000

 Molecular mass:    62.01565 amu.
 Principal axes and moments of inertia in atomic units:
                           1         2         3
     Eigenvalues --    74.31936 356.18249 423.90210
           X            0.99986   0.01669  -0.00188
           Y           -0.01668   0.99985   0.00518
           Z            0.00197  -0.00515   0.99998
 This molecule is an asymmetric top.
 Rotational symmetry number  1.
 Rotational temperatures (Kelvin)      1.16543     0.24317     0.20433
 Rotational constants (GHZ):          24.28359     5.06690     4.25745
 Zero-point vibrational energy     105078.7 (Joules/Mol)
                                   25.11440 (Kcal/Mol)
 Warning -- explicit consideration of   3 degrees of freedom as
           vibrations may cause significant error
 Vibrational temperatures:    382.87   471.69   774.65   921.48   993.09
          (Kelvin)           1030.10  1100.94  1207.23  1345.15  1382.48
                             1619.92  2056.81  2510.14  4734.85  4744.67

 Zero-point correction=                           0.040022 (Hartree/Particle)
 Thermal correction to Energy=                    0.044543
 Thermal correction to Enthalpy=                  0.045487
 Thermal correction to Gibbs Free Energy=         0.012426
 Sum of electronic and zero-point Energies=           -191.428622
 Sum of electronic and thermal Energies=              -191.424102
 Sum of electronic and thermal Enthalpies=            -191.423158
 Sum of electronic and thermal Free Energies=         -191.456219

                     E (Thermal)             CV                S
                      KCal/Mol        Cal/Mol-Kelvin    Cal/Mol-Kelvin
 Total                   27.951             15.636             69.583
 Electronic               0.000              0.000              2.183
 Translational            0.889              2.981             38.294
 Rotational               0.889              2.981             23.932
 Vibrational             26.174              9.674              5.174
 Vibration     1          0.672              1.735              1.621
 Vibration     2          0.711              1.620              1.271
 Vibration     3          0.893              1.165              0.569

 Optimization completed.
    -- Stationary point found.
 Normal termination of Gaussian 09 at Sun Jun 19 01:54:26 2016.
