 Gaussian 09, Revision E.01,
 Gaussian 09:  EM64L-G09RevE.01 30-Nov-2015

 ---------------------------------------------
 #p b3lyp/6-311++G(3df,2p) freq symmetry=Loose
 ---------------------------------------------

 ---------
 b3lyp opt
 ---------
 Symbolic Z-matrix:
 Charge =  2 Multiplicity = 3

                         Standard orientation:
 ---------------------------------------------------------------------
 Center     Atomic      Atomic             Coordinates (Angstroms)
 Number     Number       Type             X           Y           Z
 ---------------------------------------------------------------------
      1          6           0       -0.161220    0.785710    0.000000
      2          6           0       -0.166141   -0.442767    0.803898
      3          6           0       -0.166141   -1.546369   -0.000000
      4          6           0       -0.166141   -0.442767   -0.803898
      5          6           0        0.867871    1.841470    0.000000
      6          1           0       -0.181278   -2.636684   -0.000000
      7          1           0       -1.068089    1.465013    0.000000
 ---------------------------------------------------------------------

 SCF Done:  E(UB3LYP) =  -190.483645890     A.U. after   20 cycles

 The electronic state is 3-A".
 Alpha  occ. eigenvalues --  -10.89110 -10.80337 -10.77925 -10.77910 -10.75403
 Alpha  occ. eigenvalues --   -1.50794  -1.32444  -1.16822  -1.06332  -1.03566
 Alpha  occ. eigenvalues --   -0.98014  -0.94762  -0.93760  -0.84814  -0.79402
 Alpha  occ. eigenvalues --   -0.78438
 Alpha virt. eigenvalues --   -0.66569  -0.56837  -0.52299  -0.50881  -0.35122
 Alpha virt. eigenvalues --   -0.31171  -0.30712  -0.29067  -0.27974  -0.25840
 Alpha virt. eigenvalues --   -0.24597  -0.24558  -0.22834  -0.21592  -0.20559

  Beta  occ. eigenvalues --  -10.85801 -10.80085 -10.77759 -10.77745 -10.75225
  Beta  occ. eigenvalues --   -1.50331  -1.29270  -1.13627  -1.05586  -1.02108
  Beta  occ. eigenvalues --   -0.97354  -0.93363  -0.85971  -0.77845
  Beta virt. eigenvalues --   -0.71420  -0.62000  -0.61044  -0.56289  -0.49937
  Beta virt. eigenvalues --   -0.49635  -0.34539  -0.30159  -0.30085  -0.28688
  Beta virt. eigenvalues --   -0.27254  -0.24508  -0.24280  -0.24250  -0.22187

 Mulliken charges and spin densities:
               1          2
     1  C    0.471429  -0.006239
     2  C    0.216044   0.090528
     3  C    0.140931   0.099440
     4  C    0.216044   0.090528
     5  C    0.269965   1.727481
     6  H    0.377589  -0.002060
     7  H    0.307997   0.000322
 Sum of Mulliken charges =   2.00000   2.00000

 Dipole moment (field-independent basis, Debye):
    X=              0.5090    Y=              2.0480    Z=             -0.0000  Tot=              2.1103
 Quadrupole moment (field-independent basis, Debye-Ang):
   XX=            -18.0918   YY=              4.7955   ZZ=            -23.5912
   XY=              4.1039   XZ=             -0.0000   YZ=             -0.0000

  Exact polarizability:  31.639  10.801  65.271  -0.000   0.000  35.394
 Approx polarizability:  55.304  21.151 108.362  -0.000   0.000  88.134

                      1                      2                      3
                     A'                     A"                     A'
 Frequencies --    231.7303               398.5902               534.1605
 Red. masses --      5.8625                 8.4517                 5.1789
 Frc consts  --      0.1855                 0.7911                 0.8706
 IR Inten    --      7.7446                11.1460                 5.5929

                      4                      5                      6
                     A'                     A"                     A'
 Frequencies --    641.2206               648.9194               767.3819
 Red. masses --      7.5920                 5.2881                 5.4366
 Frc consts  --      1.8392                 1.3120                 1.8863
 IR Inten    --     20.4872                49.2064                 0.7368

                      7                      8                      9
                     A'                     A"                     A"
 Frequencies --    849.8154               939.2488              1021.3240
 Red. masses --      1.4213                 1.2370                 1.3342
 Frc consts  --      0.6048                 0.6430                 0.8200
 IR Inten    --     14.9077                17.2236                 5.1618

                     10                     11                     12
                     A'                     A"                     A'
 Frequencies --   1094.7899              1173.1957              1218.9559
 Red. masses --      1.3480                 5.5724                 4.4094
 Frc consts  --      0.9519                 4.5189                 3.8602
 IR Inten    --      6.6599                 9.7140                90.5276

                     13                     14                     15
                     A'                     A'                     A'
 Frequencies --   1562.2515              2705.7425              3168.4241
 Red. masses --      6.3989                 1.0829                 1.1291
 Frc consts  --      9.2014                 4.6711                 6.6784
 IR Inten    --    271.6671               285.8575               197.3324

 - Thermochemistry -
 -------------------
 Temperature   298.150 Kelvin.  Pressure   1.00000 Atm.
 Atom     1 has atomic number  6 and mass  12.00000

 Molecular mass:    62.01565 amu.
 Principal axes and moments of inertia in atomic units:
                           1         2         3
     Eigenvalues --    77.14303 364.78494 398.41655
           X            0.24522   0.00000   0.96947
           Y            0.96947   0.00000  -0.24522
           Z            0.00000   1.00000   0.00000
 This molecule is an asymmetric top.
 Rotational symmetry number  1.
 Rotational temperatures (Kelvin)      1.12277     0.23744     0.21740
 Rotational constants (GHZ):          23.39474     4.94741     4.52978
 Zero-point vibrational energy     101417.9 (Joules/Mol)
                                   24.23946 (Kcal/Mol)
 Warning -- explicit consideration of   3 degrees of freedom as
           vibrations may cause significant error
 Vibrational temperatures:    333.41   573.48   768.54   922.57   933.65
          (Kelvin)           1104.09  1222.69  1351.37  1469.46  1575.16
                             1687.96  1753.80  2247.73  3892.96  4558.65

 Zero-point correction=                           0.038628 (Hartree/Particle)
 Thermal correction to Energy=                    0.043055
 Thermal correction to Enthalpy=                  0.043999
 Thermal correction to Gibbs Free Energy=         0.011051
 Sum of electronic and zero-point Energies=           -190.445018
 Sum of electronic and thermal Energies=              -190.440591
 Sum of electronic and thermal Enthalpies=            -190.439647
 Sum of electronic and thermal Free Energies=         -190.472595

                     E (Thermal)             CV                S
                      KCal/Mol        Cal/Mol-Kelvin    Cal/Mol-Kelvin
 Total                   27.017             15.120             69.345
 Electronic               0.000              0.000              2.183
 Translational            0.889              2.981             38.294
 Rotational               0.889              2.981             23.932
 Vibrational             25.240              9.158              4.936
 Vibration     1          0.653              1.792              1.866
 Vibration     2          0.765              1.473              0.968
 Vibration     3          0.889              1.174              0.578

 Normal termination of Gaussian 09 at Tue Jul 19 07:26:31 2016.
