 Gaussian 09, Revision E.01,
 Gaussian 09:  EM64L-G09RevE.01 30-Nov-2015

 ---------------------------------------------
 #p b3lyp/6-311++G(3df,2p) freq symmetry=Loose
 ---------------------------------------------

 ---------
 b3lyp opt
 ---------
 Symbolic Z-matrix:
 Charge =  1 Multiplicity = 4

                         Standard orientation:
 ---------------------------------------------------------------------
 Center     Atomic      Atomic             Coordinates (Angstroms)
 Number     Number       Type             X           Y           Z
 ---------------------------------------------------------------------
      1          6           0        0.000000   -0.000000    0.803195
      2          6           0       -0.000000    0.776540   -0.332232
      3          6           0       -0.000000    0.000000   -1.583716
      4          6           0       -0.000000   -0.776540   -0.332232
      5          6           0        0.000000   -0.000000    2.168518
      6          1           0       -0.916419    0.000000   -2.170602
      7          1           0        0.916419   -0.000000   -2.170602
 ---------------------------------------------------------------------

 SCF Done:  E(UB3LYP) =  -191.081003697     A.U. after   15 cycles

 The electronic state is 4-A2.
 Alpha  occ. eigenvalues --  -10.53004 -10.52941 -10.52919 -10.52614 -10.48966
 Alpha  occ. eigenvalues --   -1.26365  -1.05157  -0.95288  -0.81777  -0.75953
 Alpha  occ. eigenvalues --   -0.74927  -0.68571  -0.65690  -0.63717  -0.55618
 Alpha  occ. eigenvalues --   -0.50425  -0.50279
 Alpha virt. eigenvalues --   -0.33566  -0.27227  -0.22121  -0.15857  -0.12585
 Alpha virt. eigenvalues --   -0.12278  -0.12143  -0.09034  -0.06965  -0.06652
 Alpha virt. eigenvalues --   -0.06486  -0.04774  -0.04412  -0.03674  -0.02708

  Beta  occ. eigenvalues --  -10.52864 -10.52554 -10.52540 -10.48887 -10.48087
  Beta  occ. eigenvalues --   -1.25650  -1.02070  -0.90324  -0.80478  -0.74424
  Beta  occ. eigenvalues --   -0.73862  -0.67379  -0.61279  -0.54776
  Beta virt. eigenvalues --   -0.40750  -0.35966  -0.32864  -0.31556  -0.23947
  Beta virt. eigenvalues --   -0.16685  -0.15646  -0.12177  -0.12025  -0.11721
  Beta virt. eigenvalues --   -0.08280  -0.06044  -0.05652  -0.05253  -0.04355

 Mulliken charges and spin densities:
               1          2
     1  C    0.219411  -0.073192
     2  C    0.806266   0.287749
     3  C   -0.938887   0.002841
     4  C    0.806266   0.287749
     5  C   -0.396555   2.436245
     6  H    0.251750   0.029304
     7  H    0.251750   0.029304
 Sum of Mulliken charges =   1.00000   3.00000

 Dipole moment (field-independent basis, Debye):
    X=             -0.0000    Y=             -0.0000    Z=             -0.8399  Tot=              0.8399
 Quadrupole moment (field-independent basis, Debye-Ang):
   XX=            -24.0906   YY=            -27.1180   ZZ=             -9.6217
   XY=             -0.0000   XZ=              0.0000   YZ=              0.0000

  Exact polarizability:  28.667   0.000  38.096  -0.000   0.000  68.429
 Approx polarizability:  42.691   0.000  85.408   0.000   0.000 112.650

                      1                      2                      3
                     B1                     B2                     B1
 Frequencies --    277.3877               388.4636               505.8228
 Red. masses --      3.4232                 7.3916                 8.3952
 Frc consts  --      0.1552                 0.6572                 1.2655
 IR Inten    --      4.8747                14.7126                 0.0000

                      4                      5                      6
                     B2                     A1                     A2
 Frequencies --    669.5095               752.3379               994.9381
 Red. masses --     10.0342                 9.1997                 1.1148
 Frc consts  --      2.6500                 3.0680                 0.6502
 IR Inten    --     46.3351                 0.6618                 0.0000

                      7                      8                      9
                     B1                     A1                     B2
 Frequencies --   1020.0487              1042.7666              1046.9394
 Red. masses --      1.3970                 9.7599                 6.0255
 Frc consts  --      0.8564                 6.2527                 3.8912
 IR Inten    --      0.1511                 5.2100                 0.9022

                     10                     11                     12
                     B2                     A1                     A1
 Frequencies --   1139.8043              1278.6600              1454.6598
 Red. masses --      1.3595                 7.0311                 1.1305
 Frc consts  --      1.0406                 6.7730                 1.4094
 IR Inten    --     15.0926                 4.5538                 4.3589

                     13                     14                     15
                     A1                     A1                     B1
 Frequencies --   1635.2968              3077.0478              3154.8207
 Red. masses --      9.8526                 1.0540                 1.1173
 Frc consts  --     15.5237                 5.8796                 6.5522
 IR Inten    --    119.6367                48.9510                39.4064

 - Thermochemistry -
 -------------------
 Temperature   298.150 Kelvin.  Pressure   1.00000 Atm.
 Atom     1 has atomic number  6 and mass  12.00000

 Molecular mass:    62.01565 amu.
 Principal axes and moments of inertia in atomic units:
                           1         2         3
     Eigenvalues --    57.72681 384.99096 430.62765
           X            0.00000  -0.00000   1.00000
           Y            0.00000   1.00000   0.00000
           Z            1.00000   0.00000   0.00000
 This molecule is an asymmetric top.
 Rotational symmetry number  2.
 Rotational temperatures (Kelvin)      1.50041     0.22498     0.20113
 Rotational constants (GHZ):          31.26348     4.68775     4.19096
 Zero-point vibrational energy     110286.7 (Joules/Mol)
                                   26.35916 (Kcal/Mol)
 Warning -- explicit consideration of   3 degrees of freedom as
           vibrations may cause significant error
 Vibrational temperatures:    399.10   558.91   727.77   963.27  1082.45
          (Kelvin)           1431.49  1467.62  1500.31  1506.31  1639.92
                             1839.70  2092.93  2352.82  4427.18  4539.08

 Zero-point correction=                           0.042006 (Hartree/Particle)
 Thermal correction to Energy=                    0.046223
 Thermal correction to Enthalpy=                  0.047167
 Thermal correction to Gibbs Free Energy=         0.015010
 Sum of electronic and zero-point Energies=           -191.038998
 Sum of electronic and thermal Energies=              -191.034781
 Sum of electronic and thermal Enthalpies=            -191.033837
 Sum of electronic and thermal Free Energies=         -191.065994

                     E (Thermal)             CV                S
                      KCal/Mol        Cal/Mol-Kelvin    Cal/Mol-Kelvin
 Total                   29.005             13.971             67.681
 Electronic               0.000              0.000              2.755
 Translational            0.889              2.981             38.294
 Rotational               0.889              2.981             22.397
 Vibrational             27.228              8.009              4.235
 Vibration     1          0.678              1.715              1.550
 Vibration     2          0.757              1.495              1.006
 Vibration     3          0.861              1.237              0.644

 Optimization completed.
    -- Stationary point found.
 Normal termination of Gaussian 09 at Tue Jul 19 10:03:30 2016.
