 Gaussian 09, Revision E.01,
 Gaussian 09:  EM64L-G09RevE.01 30-Nov-2015

 ---------------------------------------------
 #p b3lyp/6-311++G(3df,2p) freq symmetry=Loose
 ---------------------------------------------

 ---------
 b3lyp opt
 ---------
 Symbolic Z-matrix:
 Charge =  0 Multiplicity = 3

                         Standard orientation:
 ---------------------------------------------------------------------
 Center     Atomic      Atomic             Coordinates (Angstroms)
 Number     Number       Type             X           Y           Z
 ---------------------------------------------------------------------
      1          6           0       -0.596431   -0.408458    0.000464
      2          6           0        0.306462    1.006162    0.000162
      3          6           0        1.419038    0.010194   -0.000461
      4          6           0        0.658008   -1.090439    0.000099
      5          6           0       -1.835159   -0.041164   -0.000352
      6          1           0        0.144760    1.571066    0.913382
      7          1           0        0.143728    1.571166   -0.912851
 ---------------------------------------------------------------------

 SCF Done:  E(UB3LYP) =  -191.402466299     A.U. after   18 cycles

 The electronic state is 3-A.
 Alpha  occ. eigenvalues --  -10.26995 -10.26151 -10.25798 -10.23731 -10.22969
 Alpha  occ. eigenvalues --   -0.94289  -0.77356  -0.71725  -0.58089  -0.50688
 Alpha  occ. eigenvalues --   -0.50514  -0.45568  -0.36005  -0.33052  -0.31151
 Alpha  occ. eigenvalues --   -0.28883  -0.27733
 Alpha virt. eigenvalues --   -0.10751  -0.06094  -0.00614   0.01106   0.02486
 Alpha virt. eigenvalues --    0.03830   0.05013   0.05705   0.06297   0.06817
 Alpha virt. eigenvalues --    0.07736   0.08111   0.09753   0.11393   0.12175

  Beta  occ. eigenvalues --  -10.26725 -10.24523 -10.24208 -10.23557 -10.22672
  Beta  occ. eigenvalues --   -0.92139  -0.75804  -0.70177  -0.54791  -0.50299
  Beta  occ. eigenvalues --   -0.47182  -0.42603  -0.35082  -0.31106  -0.26688
  Beta virt. eigenvalues --   -0.17772  -0.12612  -0.08915  -0.04233  -0.00385
  Beta virt. eigenvalues --    0.01361   0.02855   0.04972   0.05658   0.05907
  Beta virt. eigenvalues --    0.06400   0.07169   0.07830   0.08744   0.10037

 Mulliken charges and spin densities:
               1          2
     1  C    0.791912   0.171541
     2  C   -0.654770   0.040134
     3  C    0.106149   0.870131
     4  C   -0.079923   0.774900
     5  C   -0.563798   0.134566
     6  H    0.200192   0.004352
     7  H    0.200238   0.004376
 Sum of Mulliken charges =  -0.00000   2.00000

 Dipole moment (field-independent basis, Debye):
    X=              1.9294    Y=              1.2152    Z=              0.0006  Tot=              2.2802
 Quadrupole moment (field-independent basis, Debye-Ang):
   XX=            -37.1065   YY=            -26.3417   ZZ=            -29.6964
   XY=              1.8326   XZ=              0.0001   YZ=              0.0009

  Exact polarizability:  78.333  -1.225  52.935   0.001  -0.004  41.152
 Approx polarizability: 153.156   6.162  88.692   0.006  -0.009  57.455

                      1                      2                      3
                      A                      A                      A
 Frequencies --    115.0096               209.9803               414.4511
 Red. masses --      8.5746                 5.3626                 5.2460
 Frc consts  --      0.0668                 0.1393                 0.5309
 IR Inten    --      6.3459                 6.6403                 5.5473

                      4                      5                      6
                      A                      A                      A
 Frequencies --    548.8897               653.9444               895.0513
 Red. masses --     10.5862                 7.6316                 1.3741
 Frc consts  --      1.8791                 1.9228                 0.6486
 IR Inten    --     31.8804                 0.4794                 1.6175

                      7                      8                      9
                      A                      A                      A
 Frequencies --    969.6216              1009.1994              1023.8519
 Red. masses --      4.8087                 1.0990                 5.9006
 Frc consts  --      2.6637                 0.6595                 3.6443
 IR Inten    --      3.8216                 0.1268                 0.7485

                     10                     11                     12
                      A                      A                      A
 Frequencies --   1139.2398              1448.3598              1573.1796
 Red. masses --      1.4020                 1.1409                 8.9871
 Frc consts  --      1.0721                 1.4101                13.1047
 IR Inten    --     15.0960                 2.0217                 1.4697

                     13                     14                     15
                      A                      A                      A
 Frequencies --   1797.5873              3087.0017              3172.3539
 Red. masses --     11.9736                 1.0503                 1.1149
 Frc consts  --     22.7959                 5.8972                 6.6109
 IR Inten    --    108.3333                 2.5601                 0.2756

 - Thermochemistry -
 -------------------
 Temperature   298.150 Kelvin.  Pressure   1.00000 Atm.
 Atom     1 has atomic number  6 and mass  12.00000

 Molecular mass:    62.01565 amu.
 Principal axes and moments of inertia in atomic units:
                           1         2         3
     Eigenvalues --   124.75467 274.59910 387.35057
           X            0.99994   0.01106   0.00001
           Y           -0.01106   0.99994   0.00002
           Z           -0.00001  -0.00002   1.00000
 This molecule is an asymmetric top.
 Rotational symmetry number  1.
 Rotational temperatures (Kelvin)      0.69427     0.31542     0.22361
 Rotational constants (GHZ):          14.46632     6.57228     4.65919
 Zero-point vibrational energy     108009.2 (Joules/Mol)
                                   25.81481 (Kcal/Mol)
 Warning -- explicit consideration of   4 degrees of freedom as
           vibrations may cause significant error
 Vibrational temperatures:    165.47   302.11   596.30   789.73   940.88
          (Kelvin)           1287.78  1395.07  1452.01  1473.09  1639.11
                             2083.86  2263.45  2586.32  4441.50  4564.30

 Zero-point correction=                           0.041139 (Hartree/Particle)
 Thermal correction to Energy=                    0.046039
 Thermal correction to Enthalpy=                  0.046983
 Thermal correction to Gibbs Free Energy=         0.012713
 Sum of electronic and zero-point Energies=           -191.361328
 Sum of electronic and thermal Energies=              -191.356427
 Sum of electronic and thermal Enthalpies=            -191.355483
 Sum of electronic and thermal Free Energies=         -191.389753

                     E (Thermal)             CV                S
                      KCal/Mol        Cal/Mol-Kelvin    Cal/Mol-Kelvin
 Total                   28.890             15.284             72.128
 Electronic               0.000              0.000              2.183
 Translational            0.889              2.981             38.294
 Rotational               0.889              2.981             24.099
 Vibrational             27.113              9.322              7.552
 Vibration     1          0.608              1.937              3.183
 Vibration     2          0.642              1.826              2.044
 Vibration     3          0.778              1.439              0.911
 Vibration     4          0.904              1.142              0.546

 Optimization completed.
    -- Stationary point found.
 Normal termination of Gaussian 09 at Sun Jun 19 01:54:51 2016.
