 Gaussian 09, Revision E.01,
 Gaussian 09:  EM64L-G09RevE.01 30-Nov-2015

 ------------------------------------------------------
 #p b3lyp/6-311++G(3df,2p) freq IOp(2/17=3) IOp(2/18=3)
 ------------------------------------------------------

 ---------
 b3lyp opt
 ---------
 Symbolic Z-matrix:
 Charge =  3 Multiplicity = 2

                         Standard orientation:
 ---------------------------------------------------------------------
 Center     Atomic      Atomic             Coordinates (Angstroms)
 Number     Number       Type             X           Y           Z
 ---------------------------------------------------------------------
      1          6           0        0.293873   -0.806418    0.000000
      2          6           0        0.124181    0.489936    0.772472
      3          6           0        0.000000    1.621353    0.000000
      4          6           0        0.124181    0.489936   -0.772472
      5          6           0       -0.746549   -2.039630    0.000000
      6          1           0       -0.103018    2.742848    0.000000
      7          1           0        1.328217   -1.273827    0.000000
 ---------------------------------------------------------------------

 SCF Done:  E(UB3LYP) =  -189.642848130     A.U. after   21 cycles

 The electronic state is 2-A'.
 Alpha  occ. eigenvalues --  -11.17756 -11.11941 -11.11918 -11.04099 -11.03070
 Alpha  occ. eigenvalues --   -1.78492  -1.54271  -1.40661  -1.34495  -1.26533
 Alpha  occ. eigenvalues --   -1.22274  -1.19214  -1.15058  -1.11671  -1.06202
 Alpha virt. eigenvalues --   -0.91340  -0.89101  -0.85457  -0.79446  -0.77004
 Alpha virt. eigenvalues --   -0.61613  -0.55307  -0.53215  -0.52686  -0.48655
 Alpha virt. eigenvalues --   -0.47736  -0.47619  -0.43533  -0.42993  -0.41037

  Beta  occ. eigenvalues --  -11.17752 -11.10666 -11.10653 -11.04201 -11.03218
  Beta  occ. eigenvalues --   -1.77478  -1.54317  -1.40446  -1.29840  -1.26157
  Beta  occ. eigenvalues --   -1.21547  -1.18770  -1.14518  -1.06116
  Beta virt. eigenvalues --   -0.95980  -0.90552  -0.89015  -0.82712  -0.76790
  Beta virt. eigenvalues --   -0.74604  -0.61337  -0.54140  -0.52797  -0.52352
  Beta virt. eigenvalues --   -0.47815  -0.47214  -0.47110  -0.43114  -0.42663

 Mulliken charges and spin densities:
               1          2
     1  C    0.085261  -0.195704
     2  C    0.700454   0.637441
     3  C    0.066621  -0.136970
     4  C    0.700454   0.637441
     5  C    0.644202   0.026534
     6  H    0.448781   0.026787
     7  H    0.354226   0.004471
 Sum of Mulliken charges =   3.00000   1.00000

 Dipole moment (field-independent basis, Debye):
    X=             -0.1746    Y=             -0.8390    Z=             -0.0000  Tot=              0.8569
 Quadrupole moment (field-independent basis, Debye-Ang):
   XX=            -16.2643   YY=             16.7275   ZZ=            -16.0058
   XY=              2.2110   XZ=             -0.0000   YZ=              0.0000

  Exact polarizability:  26.894   2.964  53.110   0.000   0.000  29.849
 Approx polarizability:  43.649   4.736  87.584   0.000  -0.000  69.653

                      1                      2                      3
                     A'                     A"                     A"
 Frequencies --    244.8663               311.8659               437.5007
 Red. masses --      5.5938                 8.2261                 6.6062
 Frc consts  --      0.1976                 0.4714                 0.7450
 IR Inten    --      1.0906                 0.3921                 5.7139

                      4                      5                      6
                     A'                     A'                     A'
 Frequencies --    463.1266               618.3693               789.8879
 Red. masses --      7.2522                 5.6434                 1.2618
 Frc consts  --      0.9165                 1.2714                 0.4638
 IR Inten    --     69.6650               147.0489                65.7351

                      7                      8                      9
                     A"                     A'                     A"
 Frequencies --    838.9621               907.3221               982.3069
 Red. masses --      2.8672                 6.9454                 1.3183
 Frc consts  --      1.1890                 3.3688                 0.7495
 IR Inten    --     21.9566                90.3267                62.1244

                     10                     11                     12
                     A"                     A'                     A'
 Frequencies --   1034.7426              1077.8411              1234.2069
 Red. masses --      1.5316                 3.8414                 1.4864
 Frc consts  --      0.9662                 2.6293                 1.3340
 IR Inten    --      5.1230                24.2873                52.8300

                     13                     14                     15
                     A'                     A'                     A'
 Frequencies --   1506.5894              2657.2530              2796.0342
 Red. masses --      6.6672                 1.0823                 1.1315
 Frc consts  --      8.9163                 4.5025                 5.2118
 IR Inten    --     67.0018               387.2835               702.6909

 - Thermochemistry -
 -------------------
 Temperature   298.150 Kelvin.  Pressure   1.00000 Atm.
 Atom     1 has atomic number  6 and mass  12.00000

 Molecular mass:    62.01565 amu.
 Principal axes and moments of inertia in atomic units:
                           1         2         3
     Eigenvalues --    78.17911 407.36410 431.46826
           X            0.15208   0.00000   0.98837
           Y            0.98837   0.00000  -0.15208
           Z            0.00000   1.00000   0.00000
 This molecule is an asymmetric top.
 Rotational symmetry number  1.
 Rotational temperatures (Kelvin)      1.10789     0.21262     0.20074
 Rotational constants (GHZ):          23.08470     4.43029     4.18279
 Zero-point vibrational energy      95108.4 (Joules/Mol)
                                   22.73144 (Kcal/Mol)
 Warning -- explicit consideration of   5 degrees of freedom as
           vibrations may cause significant error
 Vibrational temperatures:    352.31   448.70   629.47   666.34   889.69
          (Kelvin)           1136.47  1207.08  1305.43  1413.32  1488.76
                             1550.77  1775.75  2167.64  3823.19  4022.86

 Zero-point correction=                           0.036225 (Hartree/Particle)
 Thermal correction to Energy=                    0.040954
 Thermal correction to Enthalpy=                  0.041899
 Thermal correction to Gibbs Free Energy=         0.008752
 Sum of electronic and zero-point Energies=           -189.606623
 Sum of electronic and thermal Energies=              -189.601894
 Sum of electronic and thermal Enthalpies=            -189.600950
 Sum of electronic and thermal Free Energies=         -189.634096

                     E (Thermal)             CV                S
                      KCal/Mol        Cal/Mol-Kelvin    Cal/Mol-Kelvin
 Total                   25.699             16.139             69.762
 Electronic               0.000              0.000              1.377
 Translational            0.889              2.981             38.294
 Rotational               0.889              2.981             24.134
 Vibrational             23.922             10.177              5.957
 Vibration     1          0.660              1.771              1.767
 Vibration     2          0.700              1.651              1.352
 Vibration     3          0.798              1.388              0.835
 Vibration     4          0.821              1.332              0.757
 Vibration     5          0.978              0.993              0.419

 Optimization completed.
    -- Stationary point found.
 Normal termination of Gaussian 09 at Thu Jan 31 05:15:16 2019.
