 Gaussian 09, Revision E.01,
 Gaussian 09:  EM64L-G09RevE.01 30-Nov-2015

 ---------------------------------------------
 #p b3lyp/6-311++G(3df,2p) freq symmetry=Loose
 ---------------------------------------------

 ---------
 b3lyp opt
 ---------
 Symbolic Z-matrix:
 Charge =  3 Multiplicity = 4

                         Standard orientation:
 ---------------------------------------------------------------------
 Center     Atomic      Atomic             Coordinates (Angstroms)
 Number     Number       Type             X           Y           Z
 ---------------------------------------------------------------------
      1          6           0        0.000000    0.569470    0.000000
      2          6           0        0.112184   -0.466299   -1.055291
      3          6           0       -0.121545   -1.430836   -0.000000
      4          6           0        0.112184   -0.466299    1.055291
      5          6           0       -0.222328    1.949508   -0.000000
      6          1           0        0.358604   -0.466626   -2.142202
      7          1           0        0.358604   -0.466626    2.142202
 ---------------------------------------------------------------------

 SCF Done:  E(UB3LYP) =  -189.653257846     A.U. after   16 cycles

 The electronic state is 4-A'.
 Alpha  occ. eigenvalues --  -11.19564 -11.06679 -11.05693 -11.04710 -11.04708
 Alpha  occ. eigenvalues --   -1.71289  -1.57077  -1.42829  -1.34061  -1.25755
 Alpha  occ. eigenvalues --   -1.21035  -1.20319  -1.17252  -1.15131  -1.07809
 Alpha  occ. eigenvalues --   -1.03172
 Alpha virt. eigenvalues --   -0.94013  -0.87072  -0.83824  -0.69468  -0.58412
 Alpha virt. eigenvalues --   -0.53665  -0.53419  -0.51484  -0.48607  -0.45669
 Alpha virt. eigenvalues --   -0.44725  -0.43738  -0.42500  -0.40714  -0.38399

  Beta  occ. eigenvalues --  -11.15920 -11.06310 -11.04543 -11.04542 -11.03317
  Beta  occ. eigenvalues --   -1.69661  -1.51717  -1.42154  -1.28968  -1.25443
  Beta  occ. eigenvalues --   -1.19750  -1.14520  -1.13860
  Beta virt. eigenvalues --   -0.95617  -0.93026  -0.88819  -0.86150  -0.82747
  Beta virt. eigenvalues --   -0.75464  -0.65627  -0.57385  -0.52800  -0.51368
  Beta virt. eigenvalues --   -0.50930  -0.47570  -0.43825  -0.43727  -0.42762

 Mulliken charges and spin densities:
               1          2
     1  C    0.689925   0.118144
     2  C    0.162178   0.101148
     3  C    0.574588   1.152313
     4  C    0.162178   0.101148
     5  C    0.579504   1.525770
     6  H    0.415813   0.000739
     7  H    0.415813   0.000739
 Sum of Mulliken charges =   3.00000   3.00000

 Dipole moment (field-independent basis, Debye):
    X=             -0.0007    Y=              2.9479    Z=             -0.0000  Tot=              2.9479
 Quadrupole moment (field-independent basis, Debye-Ang):
   XX=            -20.2463   YY=              6.3222   ZZ=             -1.5817
   XY=             -2.5915   XZ=              0.0000   YZ=             -0.0000

  Exact polarizability:  20.347  -1.867  50.422  -0.000   0.000  37.993
 Approx polarizability:  30.943  -3.522 107.481   0.000   0.000  66.277

                      1                      2                      3
                     A'                     A"                     A'
 Frequencies --    137.9311               278.8766               429.7537
 Red. masses --      3.6839                 6.3074                 3.4603
 Frc consts  --      0.0413                 0.2890                 0.3765
 IR Inten    --      4.8412                 3.3728                27.7277

                      4                      5                      6
                     A'                     A"                     A'
 Frequencies --    685.2097               821.7352               833.0463
 Red. masses --      8.1211                 5.0053                 2.8813
 Frc consts  --      2.2465                 1.9913                 1.1781
 IR Inten    --      8.9382                86.8541                 7.1827

                      7                      8                      9
                     A'                     A"                     A'
 Frequencies --    936.3986               997.3253              1065.4092
 Red. masses --      1.8169                 1.5342                 2.9097
 Frc consts  --      0.9386                 0.8991                 1.9459
 IR Inten    --     21.5755                 6.7332                 9.0416

                     10                     11                     12
                     A"                     A'                     A"
 Frequencies --   1101.1710              1152.7953              1202.2040
 Red. masses --      1.3139                 3.7778                 4.6208
 Frc consts  --      0.9387                 2.9579                 3.9348
 IR Inten    --     11.8435                 4.3395               115.2481

                     13                     14                     15
                     A'                     A"                     A'
 Frequencies --   1250.1720              2917.6286              2924.4808
 Red. masses --      3.1051                 1.1109                 1.1138
 Frc consts  --      2.8593                 5.5717                 5.6126
 IR Inten    --    192.7619               656.5582                33.3659

 - Thermochemistry -
 -------------------
 Temperature   298.150 Kelvin.  Pressure   1.00000 Atm.
 Atom     1 has atomic number  6 and mass  12.00000

 Molecular mass:    62.01565 amu.
 Principal axes and moments of inertia in atomic units:
                           1         2         3
     Eigenvalues --   132.20210 289.37431 414.12605
           X           -0.05959   0.00000   0.99822
           Y            0.99822   0.00000   0.05959
           Z           -0.00000   1.00000   0.00000
 This molecule is an asymmetric top.
 Rotational symmetry number  1.
 Rotational temperatures (Kelvin)      0.65516     0.29931     0.20915
 Rotational constants (GHZ):          13.65138     6.23670     4.35795
 Zero-point vibrational energy     100092.4 (Joules/Mol)
                                   23.92265 (Kcal/Mol)
 Warning -- explicit consideration of   3 degrees of freedom as
           vibrations may cause significant error
 Vibrational temperatures:    198.45   401.24   618.32   985.86  1182.29
          (Kelvin)           1198.57  1347.27  1434.93  1532.88  1584.34
                             1658.61  1729.70  1798.72  4197.81  4207.67

 Zero-point correction=                           0.038123 (Hartree/Particle)
 Thermal correction to Energy=                    0.042798
 Thermal correction to Enthalpy=                  0.043742
 Thermal correction to Gibbs Free Energy=         0.009662
 Sum of electronic and zero-point Energies=           -189.615135
 Sum of electronic and thermal Energies=              -189.610460
 Sum of electronic and thermal Enthalpies=            -189.609516
 Sum of electronic and thermal Free Energies=         -189.643596

                     E (Thermal)             CV                S
                      KCal/Mol        Cal/Mol-Kelvin    Cal/Mol-Kelvin
 Total                   26.856             15.105             71.727
 Electronic               0.000              0.000              2.755
 Translational            0.889              2.981             38.294
 Rotational               0.889              2.981             24.275
 Vibrational             25.079              9.143              6.403
 Vibration     1          0.614              1.915              2.832
 Vibration     2          0.679              1.713              1.541
 Vibration     3          0.791              1.405              0.859

 Optimization completed.
    -- Stationary point found.
 Normal termination of Gaussian 09 at Tue Jul 19 10:18:52 2016.
