 Gaussian 09, Revision E.01,
 Gaussian 09:  EM64L-G09RevE.01 30-Nov-2015

 ------------------------------------------------------
 #p b3lyp/6-311++G(3df,2p) freq IOp(2/17=3) IOp(2/18=3)
 ------------------------------------------------------

 ---------
 b3lyp opt
 ---------
 Symbolic Z-matrix:
 Charge =  3 Multiplicity = 4

                         Standard orientation:
 ---------------------------------------------------------------------
 Center     Atomic      Atomic             Coordinates (Angstroms)
 Number     Number       Type             X           Y           Z
 ---------------------------------------------------------------------
      1          6           0       -1.582036   -1.675825    0.000000
      2          6           0       -1.393425   -0.201740    0.000000
      3          6           0        0.000000    0.203287    0.000000
      4          6           0        1.219962    0.572093    0.000000
      5          6           0        2.418082    1.026120    0.000000
      6          1           0       -1.987781    0.228163   -0.881214
      7          1           0       -1.987781    0.228163    0.881214
 ---------------------------------------------------------------------

 SCF Done:  E(UB3LYP) =  -189.629149523     A.U. after   22 cycles

 The electronic state is 4-A'.
 Alpha  occ. eigenvalues --  -11.11604 -11.08320 -11.05539 -10.96391 -10.95917
 Alpha  occ. eigenvalues --   -1.57693  -1.53833  -1.44613  -1.32690  -1.21277
 Alpha  occ. eigenvalues --   -1.14551  -1.14200  -1.10737  -1.07081  -1.06861
 Alpha  occ. eigenvalues --   -0.96842
 Alpha virt. eigenvalues --   -0.87935  -0.87926  -0.82988  -0.63809  -0.63219
 Alpha virt. eigenvalues --   -0.54477  -0.50408  -0.47158  -0.47089  -0.44895
 Alpha virt. eigenvalues --   -0.41543  -0.40793  -0.40613  -0.36399  -0.35935

  Beta  occ. eigenvalues --  -11.08356 -11.06013 -11.04718 -10.96131 -10.95596
  Beta  occ. eigenvalues --   -1.57346  -1.50768  -1.42402  -1.28258  -1.19590
  Beta  occ. eigenvalues --   -1.14834  -1.06824  -1.05395
  Beta virt. eigenvalues --   -0.88721  -0.88697  -0.85097  -0.83931  -0.78304
  Beta virt. eigenvalues --   -0.75225  -0.60872  -0.60793  -0.53928  -0.49948
  Beta virt. eigenvalues --   -0.46783  -0.46769  -0.43623  -0.40691  -0.40331

 Mulliken charges and spin densities:
               1          2
     1  C    0.516937   1.749569
     2  C   -0.135318   0.226766
     3  C    0.355346  -0.387293
     4  C    0.966460   0.032760
     5  C    0.602958   1.378877
     6  H    0.346809  -0.000340
     7  H    0.346809  -0.000340
 Sum of Mulliken charges =   3.00000   3.00000

 Dipole moment (field-independent basis, Debye):
    X=             -0.0966    Y=             -0.1755    Z=             -0.0000  Tot=              0.2004
 Quadrupole moment (field-independent basis, Debye-Ang):
   XX=             30.3154   YY=             -3.8465   ZZ=            -18.4235
   XY=             21.9209   XZ=              0.0000   YZ=             -0.0000

  Exact polarizability:  78.964  26.212  44.160  -0.000   0.000  24.471
 Approx polarizability: 185.077  68.496  85.452   0.000   0.000  35.752

                      1                      2                      3
                     A'                     A"                     A'
 Frequencies --    145.6160               199.3912               267.7534
 Red. masses --      9.0320                 5.1600                10.6877
 Frc consts  --      0.1128                 0.1209                 0.4514
 IR Inten    --     12.1926                21.9159                16.6451

                      4                      5                      6
                     A"                     A'                     A"
 Frequencies --    408.1508               549.1586               557.7627
 Red. masses --      2.9872                 8.4749                 1.9300
 Frc consts  --      0.2932                 1.5059                 0.3538
 IR Inten    --      3.7815                 4.4836                45.8948

                      7                      8                      9
                     A'                     A'                     A"
 Frequencies --    733.3425               793.0245              1039.4397
 Red. masses --      5.1773                 5.8815                 1.1994
 Frc consts  --      1.6405                 2.1793                 0.7635
 IR Inten    --      2.0862                49.7316                 1.6957

                     10                     11                     12
                     A'                     A'                     A'
 Frequencies --   1064.7470              1200.5473              1417.0190
 Red. masses --      1.0938                 1.3500                10.7374
 Frc consts  --      0.7306                 1.1464                12.7028
 IR Inten    --    127.4538                64.2969                34.4573

                     13                     14                     15
                     A'                     A"                     A'
 Frequencies --   2123.6029              2526.9251              2577.3179
 Red. masses --     11.2549                 1.0819                 1.0643
 Frc consts  --     29.9046                 4.0701                 4.1655
 IR Inten    --    948.1337               401.9266               601.4702

 - Thermochemistry -
 -------------------
 Temperature   298.150 Kelvin.  Pressure   1.00000 Atm.
 Atom     1 has atomic number  6 and mass  12.00000

 Molecular mass:    62.01565 amu.
 Principal axes and moments of inertia in atomic units:
                           1         2         3
     Eigenvalues --    51.37682 675.52045 715.71821
           X            0.88293  -0.46951   0.00000
           Y            0.46951   0.88293   0.00000
           Z            0.00000  -0.00000   1.00000
 This molecule is an asymmetric top.
 Rotational symmetry number  1.
 Rotational temperatures (Kelvin)      1.68585     0.12822     0.12102
 Rotational constants (GHZ):          35.12754     2.67163     2.52158
 Zero-point vibrational energy      93331.4 (Joules/Mol)
                                   22.30675 (Kcal/Mol)
 Warning -- explicit consideration of   6 degrees of freedom as
           vibrations may cause significant error
 Vibrational temperatures:    209.51   286.88   385.24   587.24   790.12
          (Kelvin)            802.50  1055.11  1140.98  1495.52  1531.93
                             1727.32  2038.77  3055.39  3635.68  3708.18

 Zero-point correction=                           0.035548 (Hartree/Particle)
 Thermal correction to Energy=                    0.040997
 Thermal correction to Enthalpy=                  0.041941
 Thermal correction to Gibbs Free Energy=         0.006330
 Sum of electronic and zero-point Energies=           -189.593601
 Sum of electronic and thermal Energies=              -189.588153
 Sum of electronic and thermal Enthalpies=            -189.587209
 Sum of electronic and thermal Free Energies=         -189.622819

                     E (Thermal)             CV                S
                      KCal/Mol        Cal/Mol-Kelvin    Cal/Mol-Kelvin
 Total                   25.726             17.550             74.949
 Electronic               0.000              0.000              2.755
 Translational            0.889              2.981             38.294
 Rotational               0.889              2.981             24.722
 Vibrational             23.948             11.588              9.178
 Vibration     1          0.617              1.907              2.729
 Vibration     2          0.638              1.841              2.139
 Vibration     3          0.673              1.732              1.611
 Vibration     4          0.773              1.453              0.933
 Vibration     5          0.904              1.142              0.546
 Vibration     6          0.913              1.123              0.528

 Optimization completed.
    -- Stationary point found.
 Normal termination of Gaussian 09 at Thu Jan 31 05:24:23 2019.
