 Gaussian 09, Revision E.01,
 Gaussian 09:  EM64L-G09RevE.01 30-Nov-2015

 ---------------------------------------------
 #p b3lyp/6-311++G(3df,2p) freq symmetry=Loose
 ---------------------------------------------

 ---------
 b3lyp opt
 ---------
 Symbolic Z-matrix:
 Charge =  0 Multiplicity = 3

                         Standard orientation:
 ---------------------------------------------------------------------
 Center     Atomic      Atomic             Coordinates (Angstroms)
 Number     Number       Type             X           Y           Z
 ---------------------------------------------------------------------
      1          6           0        1.565983   -0.153580    0.644082
      2          6           0        0.257498    0.463896   -0.001552
      3          6           0       -0.996290   -0.258243   -0.001672
      4          6           0       -2.257617    0.072219    0.001937
      5          6           0        1.568232   -0.154946   -0.641474
      6          1           0       -0.996657   -1.360991   -0.003538
      7          1           0        0.169821    1.544912   -0.004387
 ---------------------------------------------------------------------

 SCF Done:  E(UB3LYP) =  -191.380507033     A.U. after   21 cycles

 The electronic state is 3-A.
 Alpha  occ. eigenvalues --  -10.27635 -10.25924 -10.25838 -10.25803 -10.20784
 Alpha  occ. eigenvalues --   -0.92814  -0.82394  -0.67361  -0.56295  -0.50655
 Alpha  occ. eigenvalues --   -0.47920  -0.44425  -0.35912  -0.35344  -0.32881
 Alpha  occ. eigenvalues --   -0.30985  -0.25723
 Alpha virt. eigenvalues --   -0.12496  -0.04126  -0.00286   0.00335   0.00480
 Alpha virt. eigenvalues --    0.02958   0.03718   0.05987   0.06840   0.07413
 Alpha virt. eigenvalues --    0.07745   0.08112   0.08743   0.10211   0.10929

  Beta  occ. eigenvalues --  -10.26940 -10.25491 -10.24521 -10.24417 -10.20941
  Beta  occ. eigenvalues --   -0.90513  -0.81695  -0.65415  -0.55894  -0.47159
  Beta  occ. eigenvalues --   -0.43862  -0.42204  -0.32193  -0.32005  -0.29849
  Beta virt. eigenvalues --   -0.19914  -0.14433  -0.12034  -0.02149   0.00431
  Beta virt. eigenvalues --    0.00635   0.01548   0.03496   0.04063   0.06085
  Beta virt. eigenvalues --    0.07181   0.07890   0.08341   0.08799   0.09122

 Mulliken charges and spin densities:
               1          2
     1  C   -0.094784   0.812927
     2  C    0.309669   0.222125
     3  C    0.198864  -0.050750
     4  C   -0.705852   0.218203
     5  C   -0.095271   0.813033
     6  H    0.181221   0.000033
     7  H    0.206152  -0.015572
 Sum of Mulliken charges =  -0.00000   2.00000

 Dipole moment (field-independent basis, Debye):
    X=              0.9032    Y=              0.0581    Z=             -0.0077  Tot=              0.9051
 Quadrupole moment (field-independent basis, Debye-Ang):
   XX=            -39.0323   YY=            -26.3699   ZZ=            -31.0777
   XY=              1.9128   XZ=              0.0110   YZ=              0.0030

  Exact polarizability:  90.524   0.204  54.151  -0.045  -0.017  50.849
 Approx polarizability: 136.925  -9.322  71.746  -0.132   0.034  94.825

                      1                      2                      3
                      A                      A                      A
 Frequencies --    151.3390               159.5280               303.5458
 Red. masses --      4.9529                 7.4829                 3.2578
 Frc consts  --      0.0668                 0.1122                 0.1769
 IR Inten    --      8.5971                25.2861                 1.4282

                      4                      5                      6
                      A                      A                      A
 Frequencies --    410.3671               569.2416               675.8083
 Red. masses --      4.7937                 7.5502                 1.6744
 Frc consts  --      0.4756                 1.4415                 0.4506
 IR Inten    --      1.1280                 5.6544                 7.3772

                      7                      8                      9
                      A                      A                      A
 Frequencies --    762.4886               889.9702               952.3806
 Red. masses --      3.4587                 1.3435                 2.1770
 Frc consts  --      1.1848                 0.6270                 1.1634
 IR Inten    --      8.2659                38.6981                40.3273

                     10                     11                     12
                      A                      A                      A
 Frequencies --   1056.9269              1348.6546              1667.5458
 Red. masses --      2.7348                 1.1460                 9.3788
 Frc consts  --      1.8000                 1.2281                15.3657
 IR Inten    --     13.5664                11.7500               124.6308

                     13                     14                     15
                      A                      A                      A
 Frequencies --   1719.7971              2994.8362              3119.6548
 Red. masses --     11.1233                 1.0783                 1.0835
 Frc consts  --     19.3837                 5.6981                 6.2130
 IR Inten    --    149.1212                27.2578                 5.3214

 - Thermochemistry -
 -------------------
 Temperature   298.150 Kelvin.  Pressure   1.00000 Atm.
 Atom     1 has atomic number  6 and mass  12.00000

 Molecular mass:    62.01565 amu.
 Principal axes and moments of inertia in atomic units:
                           1         2         3
     Eigenvalues --    64.93517 507.50560 513.39255
           X            0.99992   0.00004   0.01277
           Y           -0.01277   0.00117   0.99992
           Z           -0.00002   1.00000  -0.00118
 This molecule is an asymmetric top.
 Rotational symmetry number  1.
 Rotational temperatures (Kelvin)      1.33385     0.17067     0.16871
 Rotational constants (GHZ):          27.79297     3.55610     3.51532
 Zero-point vibrational energy     100379.2 (Joules/Mol)
                                   23.99119 (Kcal/Mol)
 Warning -- explicit consideration of   5 degrees of freedom as
           vibrations may cause significant error
 Vibrational temperatures:    217.74   229.52   436.73   590.43   819.01
          (Kelvin)            972.34  1097.05  1280.47  1370.26  1520.68
                             1940.41  2399.22  2474.40  4308.90  4488.48

 Zero-point correction=                           0.038232 (Hartree/Particle)
 Thermal correction to Energy=                    0.043582
 Thermal correction to Enthalpy=                  0.044526
 Thermal correction to Gibbs Free Energy=         0.009462
 Sum of electronic and zero-point Energies=           -191.342275
 Sum of electronic and thermal Energies=              -191.336925
 Sum of electronic and thermal Enthalpies=            -191.335981
 Sum of electronic and thermal Free Energies=         -191.371045

                     E (Thermal)             CV                S
                      KCal/Mol        Cal/Mol-Kelvin    Cal/Mol-Kelvin
 Total                   27.348             17.025             73.798
 Electronic               0.000              0.000              2.183
 Translational            0.889              2.981             38.294
 Rotational               0.889              2.981             24.340
 Vibrational             25.571             11.063              8.981
 Vibration     1          0.619              1.901              2.655
 Vibration     2          0.621              1.892              2.555
 Vibration     3          0.695              1.667              1.397
 Vibration     4          0.775              1.448              0.925
 Vibration     5          0.925              1.098              0.506

 Normal termination of Gaussian 09 at Sun Jun 19 02:22:09 2016.
