 Gaussian 09, Revision E.01,
 Gaussian 09:  EM64L-G09RevE.01 30-Nov-2015

 ------------------------------------------------------
 #p b3lyp/6-311++G(3df,2p) freq IOp(2/17=3) IOp(2/18=3)
 ------------------------------------------------------

 ---------
 b3lyp opt
 ---------
 Symbolic Z-matrix:
 Charge =  2 Multiplicity = 1

                         Standard orientation:
 ---------------------------------------------------------------------
 Center     Atomic      Atomic             Coordinates (Angstroms)
 Number     Number       Type             X           Y           Z
 ---------------------------------------------------------------------
      1          6           0        0.000000   -0.000000    2.528875
      2          6           0       -0.000000    0.000000    1.288822
      3          6           0       -0.000000    0.000000   -0.000000
      4          6           0        0.000000    0.000000   -1.288822
      5          6           0        0.000000   -0.000000   -2.528875
      6          1           0        0.000000   -0.000000    3.619240
      7          1           0        0.000000   -0.000000   -3.619240
 ---------------------------------------------------------------------

 SCF Done:  E(RB3LYP) =  -190.737524022     A.U. after   10 cycles

 The electronic state is 1-SGG.
 Alpha  occ. eigenvalues --  -10.78590 -10.75404 -10.75401 -10.68723 -10.68717
 Alpha  occ. eigenvalues --   -1.32424  -1.27331  -1.20662  -1.12165  -0.99676
 Alpha  occ. eigenvalues --   -0.99185  -0.86122  -0.86122  -0.77676  -0.77676
 Alpha virt. eigenvalues --   -0.62603  -0.62603  -0.44548  -0.44548  -0.31459
 Alpha virt. eigenvalues --   -0.30272  -0.29358  -0.29358  -0.29118  -0.26473
 Alpha virt. eigenvalues --   -0.24030  -0.24030  -0.22427  -0.20665  -0.19901

 Mulliken charges:
               1
     1  C    0.480272
     2  C    0.600330
     3  C   -1.025160
     4  C    0.600330
     5  C    0.480272
     6  H    0.431978
     7  H    0.431978
 Sum of Mulliken charges =   2.00000

 Dipole moment (field-independent basis, Debye):
    X=              0.0000    Y=             -0.0000    Z=              0.0000  Tot=              0.0000
 Quadrupole moment (field-independent basis, Debye-Ang):
   XX=            -23.5914   YY=            -23.5914   ZZ=             43.1406
   XY=              0.0000   XZ=             -0.0000   YZ=              0.0000

  Exact polarizability:  23.006  -0.000  23.006   0.000   0.000 125.524
 Approx polarizability:  31.700  -0.000  31.700  -0.000   0.000 437.575

                      1                      2                      3
                     PIU                    PIU                    PIG
 Frequencies --    138.5519               138.5519               288.7228
 Red. masses --      3.7271                 3.7271                 4.4113
 Frc consts  --      0.0422                 0.0422                 0.2167
 IR Inten    --     28.3524                28.3524                 0.0000

                      4                      5                      6
                     PIG                    PIU                    PIU
 Frequencies --    288.7228               666.1034               666.1034
 Red. masses --      4.4113                 5.8098                 5.8098
 Frc consts  --      0.2167                 1.5188                 1.5188
 IR Inten    --      0.0000                28.1228                28.1228

                      7                      8                      9
                     SGG                    PIG                    PIG
 Frequencies --    792.9370               832.5911               832.5911
 Red. masses --      7.1086                 1.3519                 1.3519
 Frc consts  --      2.6334                 0.5522                 0.5522
 IR Inten    --      0.0000                 0.0000                 0.0000

                     10                     11                     12
                     PIU                    PIU                    SGU
 Frequencies --    839.4897               839.4897              1573.5859
 Red. masses --      1.4515                 1.4515                 6.7427
 Frc consts  --      0.6027                 0.6027                 9.8370
 IR Inten    --     23.9014                23.9014               130.8141

                     13                     14                     15
                     SGG                    SGU                    SGG
 Frequencies --   2118.8692              2265.9705              3204.0834
 Red. masses --      6.1142                 7.4815                 1.1700
 Frc consts  --     16.1732                22.6333                 7.0771
 IR Inten    --      0.0000              3023.0835                 0.0000

                     16
                     SGU
 Frequencies --   3204.5842
 Red. masses --      1.1801
 Frc consts  --      7.1402
 IR Inten    --    471.4589

 - Thermochemistry -
 -------------------
 Temperature   298.150 Kelvin.  Pressure   1.00000 Atm.
 Atom     1 has atomic number  6 and mass  12.00000

 Molecular mass:    62.01565 amu.
 Principal axes and moments of inertia in atomic units:
                           1         2         3
     Eigenvalues --     0.00000 784.75312 784.75312
           X           -0.00000   0.70711   0.70711
           Y            0.00000   0.70711  -0.70711
           Z            1.00000   0.00000   0.00000
 This molecule is a prolate symmetric top.
 Rotational symmetry number  2.
 Warning -- assumption of classical behavior for rotation
           may cause significant error
 Rotational temperature (Kelvin)      0.11037
 Rotational constant (GHZ):           2.299757
 Zero-point vibrational energy     111796.7 (Joules/Mol)
                                   26.72005 (Kcal/Mol)
 Warning -- explicit consideration of   4 degrees of freedom as
           vibrations may cause significant error
 Vibrational temperatures:    199.35   199.35   415.41   415.41   958.37
          (Kelvin)            958.37  1140.86  1197.91  1197.91  1207.84
                             1207.84  2264.04  3048.58  3260.22  4609.96
                             4610.68

 Zero-point correction=                           0.042581 (Hartree/Particle)
 Thermal correction to Energy=                    0.047751
 Thermal correction to Enthalpy=                  0.048695
 Thermal correction to Gibbs Free Energy=         0.017879
 Sum of electronic and zero-point Energies=           -190.694943
 Sum of electronic and thermal Energies=              -190.689773
 Sum of electronic and thermal Enthalpies=            -190.688829
 Sum of electronic and thermal Free Energies=         -190.719645

                     E (Thermal)             CV                S
                      KCal/Mol        Cal/Mol-Kelvin    Cal/Mol-Kelvin
 Total                   29.964             17.083             64.856
 Electronic               0.000              0.000              0.000
 Translational            0.889              2.981             38.294
 Rotational               0.592              1.987             16.312
 Vibrational             28.483             12.115             10.251
 Vibration     1          0.614              1.915              2.824
 Vibration     2          0.614              1.915              2.824
 Vibration     3          0.685              1.695              1.481
 Vibration     4          0.685              1.695              1.481

 Optimization completed.
    -- Stationary point found.
 Normal termination of Gaussian 09 at Thu Jan 31 05:00:28 2019.
