 Gaussian 09, Revision E.01,
 Gaussian 09:  EM64L-G09RevE.01 30-Nov-2015

 ---------------------------------------------
 #p b3lyp/6-311++G(3df,2p) freq symmetry=Loose
 ---------------------------------------------

 ---------
 b3lyp opt
 ---------
 Symbolic Z-matrix:
 Charge =  2 Multiplicity = 3

                         Standard orientation:
 ---------------------------------------------------------------------
 Center     Atomic      Atomic             Coordinates (Angstroms)
 Number     Number       Type             X           Y           Z
 ---------------------------------------------------------------------
      1          6           0       -1.832552   -0.483971   -0.000067
      2          6           0       -0.608072    0.195440   -0.000461
      3          6           0        0.901889    0.033459   -0.000145
      4          6           0        2.074289   -0.741514   -0.000301
      5          6           0        0.238297    1.240281    0.000812
      6          1           0       -1.890258   -1.575697    0.004211
      7          1           0       -2.752846    0.113530   -0.003238
 ---------------------------------------------------------------------

 SCF Done:  E(UB3LYP) =  -190.521577372     A.U. after   22 cycles

 The electronic state is 3-A.
 Alpha  occ. eigenvalues --  -10.82009 -10.80406 -10.78801 -10.76723 -10.75676
 Alpha  occ. eigenvalues --   -1.46380  -1.27662  -1.24694  -1.02834  -1.00050
 Alpha  occ. eigenvalues --   -0.94520  -0.92757  -0.91274  -0.80927  -0.79377
 Alpha  occ. eigenvalues --   -0.78049
 Alpha virt. eigenvalues --   -0.65882  -0.60791  -0.47535  -0.46949  -0.37075
 Alpha virt. eigenvalues --   -0.34131  -0.29700  -0.29199  -0.27541  -0.26490
 Alpha virt. eigenvalues --   -0.24937  -0.24227  -0.22420  -0.21312  -0.21008

  Beta  occ. eigenvalues --  -10.81289 -10.79018 -10.78424 -10.76075 -10.75127
  Beta  occ. eigenvalues --   -1.45255  -1.25121  -1.21800  -1.01392  -0.98084
  Beta  occ. eigenvalues --   -0.92094  -0.89830  -0.89292  -0.79225
  Beta virt. eigenvalues --   -0.68079  -0.65514  -0.61009  -0.57338  -0.44171
  Beta virt. eigenvalues --   -0.43010  -0.36011  -0.33084  -0.29241  -0.27702
  Beta virt. eigenvalues --   -0.26992  -0.26052  -0.24131  -0.22835  -0.21853

 Mulliken charges and spin densities:
               1          2
     1  C   -0.173641   0.347152
     2  C    0.411068   0.255949
     3  C    0.686407   0.337969
     4  C    0.181771   0.397806
     5  C    0.274160   0.672102
     6  H    0.308077  -0.004980
     7  H    0.312158  -0.005998
 Sum of Mulliken charges =   2.00000   2.00000

 Dipole moment (field-independent basis, Debye):
    X=             -2.4444    Y=             -0.9893    Z=              0.0002  Tot=              2.6370
 Quadrupole moment (field-independent basis, Debye-Ang):
   XX=              3.1378   YY=            -15.8656   ZZ=            -22.8084
   XY=              2.2898   XZ=              0.0002   YZ=             -0.0068

  Exact polarizability:  89.035  -3.638  46.213  -0.004  -0.009  26.739
 Approx polarizability: 183.466 -19.376  83.358   0.015  -0.003  39.105

                      1                      2                      3
                      A                      A                      A
 Frequencies --    103.9662               192.9275               238.3348
 Red. masses --      1.7611                 5.6562                 2.3981
 Frc consts  --      0.0112                 0.1240                 0.0803
 IR Inten    --      2.3345                 0.2536                 1.6292

                      4                      5                      6
                      A                      A                      A
 Frequencies --    381.8372               404.2077               491.7201
 Red. masses --      4.4325                 3.8069                 8.8200
 Frc consts  --      0.3808                 0.3665                 1.2565
 IR Inten    --     11.5550                 5.9056                26.9553

                      7                      8                      9
                      A                      A                      A
 Frequencies --    889.8730               969.7136              1018.8128
 Red. masses --      6.6366                 3.6513                 1.9045
 Frc consts  --      3.0964                 2.0230                 1.1647
 IR Inten    --     33.7738                27.5667                12.9669

                     10                     11                     12
                      A                      A                      A
 Frequencies --   1064.5707              1408.6062              1434.5861
 Red. masses --      1.3544                 1.5613                 2.9897
 Frc consts  --      0.9044                 1.8253                 3.6252
 IR Inten    --     12.4673               421.0517               424.8342

                     13                     14                     15
                      A                      A                      A
 Frequencies --   1680.3979              3022.7147              3146.7394
 Red. masses --     11.4703                 1.0531                 1.1235
 Frc consts  --     19.0831                 5.6690                 6.5546
 IR Inten    --     25.0075               260.2947               120.4854

 - Thermochemistry -
 -------------------
 Temperature   298.150 Kelvin.  Pressure   1.00000 Atm.
 Atom     1 has atomic number  6 and mass  12.00000

 Molecular mass:    62.01565 amu.
 Principal axes and moments of inertia in atomic units:
                           1         2         3
     Eigenvalues --   109.75461 420.64932 530.40365
           X            0.99950   0.03164   0.00000
           Y           -0.03164   0.99950  -0.00023
           Z           -0.00001   0.00023   1.00000
 This molecule is an asymmetric top.
 Rotational symmetry number  1.
 Rotational temperatures (Kelvin)      0.78916     0.20591     0.16330
 Rotational constants (GHZ):          16.44342     4.29037     3.40258
 Zero-point vibrational energy      98386.9 (Joules/Mol)
                                   23.51504 (Kcal/Mol)
 Warning -- explicit consideration of   6 degrees of freedom as
           vibrations may cause significant error
 Vibrational temperatures:    149.58   277.58   342.91   549.38   581.56
          (Kelvin)            707.47  1280.33  1395.20  1465.84  1531.68
                             2026.67  2064.05  2417.71  4349.01  4527.45

 Zero-point correction=                           0.037474 (Hartree/Particle)
 Thermal correction to Energy=                    0.043148
 Thermal correction to Enthalpy=                  0.044092
 Thermal correction to Gibbs Free Energy=         0.008132
 Sum of electronic and zero-point Energies=           -190.484104
 Sum of electronic and thermal Energies=              -190.478430
 Sum of electronic and thermal Enthalpies=            -190.477486
 Sum of electronic and thermal Free Energies=         -190.513446

                     E (Thermal)             CV                S
                      KCal/Mol        Cal/Mol-Kelvin    Cal/Mol-Kelvin
 Total                   27.076             17.608             75.685
 Electronic               0.000              0.000              2.183
 Translational            0.889              2.981             38.294
 Rotational               0.889              2.981             24.708
 Vibrational             25.298             11.647             10.500
 Vibration     1          0.605              1.946              3.379
 Vibration     2          0.635              1.850              2.200
 Vibration     3          0.656              1.782              1.815
 Vibration     4          0.751              1.509              1.032
 Vibration     5          0.769              1.461              0.947
 Vibration     6          0.847              1.268              0.679

 Normal termination of Gaussian 09 at Sun Jun 19 04:13:33 2016.
