 Gaussian 09, Revision E.01,
 Gaussian 09:  EM64L-G09RevE.01 30-Nov-2015

 ---------------------------------------------
 #p b3lyp/6-311++G(3df,2p) freq symmetry=Loose
 ---------------------------------------------

 ---------
 b3lyp opt
 ---------
 Symbolic Z-matrix:
 Charge =  0 Multiplicity = 3

                         Standard orientation:
 ---------------------------------------------------------------------
 Center     Atomic      Atomic             Coordinates (Angstroms)
 Number     Number       Type             X           Y           Z
 ---------------------------------------------------------------------
      1          6           0       -1.543549   -0.326680   -0.641081
      2          6           0       -0.389299    0.567750   -0.000030
      3          6           0        0.948006    0.131803   -0.000057
      4          6           0        2.099873   -0.228074   -0.000166
      5          6           0       -1.543320   -0.326940    0.641095
      6          1           0        3.111670   -0.550323    0.000649
      7          1           0       -0.541937    1.643173    0.000793
 ---------------------------------------------------------------------

 SCF Done:  E(UB3LYP) =  -191.456683999     A.U. after   19 cycles

 The electronic state is 3-A.
 Alpha  occ. eigenvalues --  -10.26633 -10.24995 -10.24871 -10.20125 -10.19898
 Alpha  occ. eigenvalues --   -0.91490  -0.78896  -0.68845  -0.55773  -0.51135
 Alpha  occ. eigenvalues --   -0.49532  -0.45013  -0.35227  -0.34565  -0.30864
 Alpha  occ. eigenvalues --   -0.30493  -0.25101
 Alpha virt. eigenvalues --   -0.02326  -0.00637  -0.00127   0.00804   0.01261
 Alpha virt. eigenvalues --    0.03655   0.03999   0.04956   0.07118   0.08416
 Alpha virt. eigenvalues --    0.08418   0.09085   0.09980   0.10427   0.11229

  Beta  occ. eigenvalues --  -10.25929 -10.23613 -10.23506 -10.20220 -10.19595
  Beta  occ. eigenvalues --   -0.89153  -0.78132  -0.67031  -0.55191  -0.50654
  Beta  occ. eigenvalues --   -0.42743  -0.42701  -0.31109  -0.30550  -0.29333
  Beta virt. eigenvalues --   -0.19032  -0.13938  -0.00430  -0.00172   0.00056
  Beta virt. eigenvalues --    0.01456   0.02353   0.04230   0.04303   0.05012
  Beta virt. eigenvalues --    0.07261   0.08714   0.09309   0.09527   0.10599

 Mulliken charges and spin densities:
               1          2
     1  C   -0.070745   0.786172
     2  C   -0.303984   0.283343
     3  C   -0.377789  -0.053879
     4  C    0.309077   0.229030
     5  C   -0.070726   0.786411
     6  H    0.320559  -0.009081
     7  H    0.193609  -0.021996
 Sum of Mulliken charges =  -0.00000   2.00000

 Dipole moment (field-independent basis, Debye):
    X=              1.4382    Y=              0.7744    Z=              0.0015  Tot=              1.6334
 Quadrupole moment (field-independent basis, Debye-Ang):
   XX=            -25.8685   YY=            -28.5472   ZZ=            -30.4072
   XY=             -2.4036   XZ=              0.0021   YZ=              0.0003

  Exact polarizability:  97.615  -4.883  50.938  -0.001   0.001  48.968
 Approx polarizability: 151.216  -2.203  66.784  -0.004  -0.002  91.801

                      1                      2                      3
                      A                      A                      A
 Frequencies --    201.1031               204.9822               442.5895
 Red. masses --      6.8462                 4.9542                 4.8511
 Frc consts  --      0.1631                 0.1226                 0.5599
 IR Inten    --      2.0796                 2.1953                 9.1479

                      4                      5                      6
                      A                      A                      A
 Frequencies --    530.8414               570.3301               638.9569
 Red. masses --      7.4768                 6.7442                 1.2927
 Frc consts  --      1.2414                 1.2925                 0.3110
 IR Inten    --      3.7525                 2.6826                38.9209

                      7                      8                      9
                      A                      A                      A
 Frequencies --    676.1517               808.5552               854.7597
 Red. masses --      1.2801                 7.4341                 1.3841
 Frc consts  --      0.3448                 2.8635                 0.5958
 IR Inten    --     40.3528                12.5266                33.9541

                     10                     11                     12
                      A                      A                      A
 Frequencies --   1027.7962              1325.6491              1733.6616
 Red. masses --      5.0521                 1.1956                11.5000
 Frc consts  --      3.1444                 1.2380                20.3646
 IR Inten    --     24.9784                12.3087                76.1057

                     13                     14                     15
                      A                      A                      A
 Frequencies --   2125.4136              3101.4654              3457.8084
 Red. masses --      6.2568                 1.0825                 1.1509
 Frc consts  --     16.6530                 6.1352                 8.1076
 IR Inten    --     38.8144                 5.2780                58.9371

 - Thermochemistry -
 -------------------
 Temperature   298.150 Kelvin.  Pressure   1.00000 Atm.
 Atom     1 has atomic number  6 and mass  12.00000

 Molecular mass:    62.01565 amu.
 Principal axes and moments of inertia in atomic units:
                           1         2         3
     Eigenvalues --    71.71672 509.07419 510.34199
           X            0.99979  -0.02073  -0.00004
           Y            0.02073   0.99978   0.00262
           Z           -0.00001  -0.00262   1.00000
 This molecule is an asymmetric top.
 Rotational symmetry number  1.
 Rotational temperatures (Kelvin)      1.20772     0.17014     0.16972
 Rotational constants (GHZ):          25.16486     3.54514     3.53634
 Zero-point vibrational energy     105869.9 (Joules/Mol)
                                   25.30351 (Kcal/Mol)
 Warning -- explicit consideration of   5 degrees of freedom as
           vibrations may cause significant error
 Vibrational temperatures:    289.34   294.92   636.79   763.76   820.58
          (Kelvin)            919.32   972.83  1163.33  1229.81  1478.77
                             1907.31  2494.35  3057.99  4462.31  4975.01

 Zero-point correction=                           0.040324 (Hartree/Particle)
 Thermal correction to Energy=                    0.045365
 Thermal correction to Enthalpy=                  0.046310
 Thermal correction to Gibbs Free Energy=         0.011988
 Sum of electronic and zero-point Energies=           -191.416360
 Sum of electronic and thermal Energies=              -191.411319
 Sum of electronic and thermal Enthalpies=            -191.410374
 Sum of electronic and thermal Free Energies=         -191.444696

                     E (Thermal)             CV                S
                      KCal/Mol        Cal/Mol-Kelvin    Cal/Mol-Kelvin
 Total                   28.467             16.838             72.235
 Electronic               0.000              0.000              2.183
 Translational            0.889              2.981             38.294
 Rotational               0.889              2.981             24.436
 Vibrational             26.690             10.877              7.322
 Vibration     1          0.638              1.838              2.123
 Vibration     2          0.640              1.833              2.088
 Vibration     3          0.802              1.377              0.819
 Vibration     4          0.886              1.182              0.585
 Vibration     5          0.926              1.095              0.504

 Optimization completed.
    -- Stationary point found.
 Normal termination of Gaussian 09 at Sun Jun 19 02:22:01 2016.
