 Gaussian 09, Revision E.01,
 Gaussian 09:  EM64L-G09RevE.01 30-Nov-2015

 ---------------------------------------------
 #p b3lyp/6-311++G(3df,2p) freq symmetry=Loose
 ---------------------------------------------

 ---------
 b3lyp opt
 ---------
 Symbolic Z-matrix:
 Charge =  3 Multiplicity = 4

                         Standard orientation:
 ---------------------------------------------------------------------
 Center     Atomic      Atomic             Coordinates (Angstroms)
 Number     Number       Type             X           Y           Z
 ---------------------------------------------------------------------
      1          6           0        0.000000    0.496190   -0.000000
      2          6           0        0.814698   -0.722137   -0.000000
      3          6           0       -0.025577   -1.859822    0.000000
      4          6           0       -0.833279   -0.687944    0.000000
      5          6           0        0.030602    1.943514   -0.000000
      6          1           0       -0.928374    2.508949    0.000000
      7          1           0        1.009715    2.472247   -0.000000
 ---------------------------------------------------------------------

 SCF Done:  E(UB3LYP) =  -189.650168578     A.U. after   17 cycles

 The electronic state is 4-A".
 Alpha  occ. eigenvalues --  -11.15585 -11.15548 -11.12356 -11.08005 -11.00981
 Alpha  occ. eigenvalues --   -1.80613  -1.55828  -1.44560  -1.38837  -1.24490
 Alpha  occ. eigenvalues --   -1.22791  -1.22359  -1.16628  -1.12996  -1.11608
 Alpha  occ. eigenvalues --   -1.05076
 Alpha virt. eigenvalues --   -0.88876  -0.86647  -0.85096  -0.70851  -0.59071
 Alpha virt. eigenvalues --   -0.58756  -0.52635  -0.51272  -0.51053  -0.46293
 Alpha virt. eigenvalues --   -0.44413  -0.43493  -0.41362  -0.39588  -0.38371

  Beta  occ. eigenvalues --  -11.14362 -11.14335 -11.09434 -11.07116 -11.00604
  Beta  occ. eigenvalues --   -1.78145  -1.52522  -1.42021  -1.34165  -1.22671
  Beta  occ. eigenvalues --   -1.20308  -1.18775  -1.12423
  Beta virt. eigenvalues --   -0.99978  -0.92857  -0.89511  -0.86756  -0.78655
  Beta virt. eigenvalues --   -0.78302  -0.64005  -0.57721  -0.55547  -0.51491
  Beta virt. eigenvalues --   -0.50133  -0.47321  -0.44415  -0.43971  -0.42647

 Mulliken charges and spin densities:
               1          2
     1  C    0.320424   0.630371
     2  C    1.048388   0.294872
     3  C    0.082486   1.479395
     4  C    1.066943   0.253619
     5  C   -0.265301   0.357845
     6  H    0.372841  -0.007799
     7  H    0.374219  -0.008303
 Sum of Mulliken charges =   3.00000   3.00000

 Dipole moment (field-independent basis, Debye):
    X=              0.0326    Y=              1.3112    Z=             -0.0000  Tot=              1.3116
 Quadrupole moment (field-independent basis, Debye-Ang):
   XX=            -11.9599   YY=             19.4746   ZZ=            -20.6338
   XY=              0.4406   XZ=              0.0000   YZ=             -0.0000

  Exact polarizability:  31.867   0.402  62.244   0.000  -0.000  20.642
 Approx polarizability:  73.614   0.699 110.951  -0.000  -0.000  31.451

                      1                      2                      3
                     A'                     A"                     A"
 Frequencies --    136.6541               247.3191               262.0372
 Red. masses --      9.1967                 1.1464                 5.0280
 Frc consts  --      0.1012                 0.0413                 0.2034
 IR Inten    --      6.7360                 0.3758                10.1533

                      4                      5                      6
                     A'                     A"                     A'
 Frequencies --    354.0179               546.9387               679.1251
 Red. masses --      3.8974                10.6136                 6.9108
 Frc consts  --      0.2878                 1.8706                 1.8779
 IR Inten    --      3.0216                 9.5668                53.6779

                      7                      8                      9
                     A'                     A'                     A'
 Frequencies --    752.3069               944.4529               995.6691
 Red. masses --      4.9662                 9.2070                 1.5399
 Frc consts  --      1.6560                 4.8387                 0.8995
 IR Inten    --      1.3203                10.5255                 0.6290

                     10                     11                     12
                     A"                     A'                     A'
 Frequencies --   1102.3769              1312.2704              1344.9599
 Red. masses --      1.3240                 6.4914                 2.7599
 Frc consts  --      0.9480                 6.5862                 2.9414
 IR Inten    --     15.1110                 2.4097                34.1016

                     13                     14                     15
                     A'                     A'                     A'
 Frequencies --   1386.0294              2857.8174              2973.5748
 Red. masses --      1.7714                 1.0478                 1.1315
 Frc consts  --      2.0049                 5.0419                 5.8946
 IR Inten    --    173.0848               431.4016               266.3881

 - Thermochemistry -
 -------------------
 Temperature   298.150 Kelvin.  Pressure   1.00000 Atm.
 Atom     1 has atomic number  6 and mass  12.00000

 Molecular mass:    62.01565 amu.
 Principal axes and moments of inertia in atomic units:
                           1         2         3
     Eigenvalues --    64.97695 406.57448 471.55143
           X            0.01323   0.99991   0.00000
           Y            0.99991  -0.01323   0.00000
           Z           -0.00000  -0.00000   1.00000
 This molecule is an asymmetric top.
 Rotational symmetry number  1.
 Rotational temperatures (Kelvin)      1.33299     0.21303     0.18368
 Rotational constants (GHZ):          27.77510     4.43889     3.82724
 Zero-point vibrational energy      95076.5 (Joules/Mol)
                                   22.72383 (Kcal/Mol)
 Warning -- explicit consideration of   5 degrees of freedom as
           vibrations may cause significant error
 Vibrational temperatures:    196.61   355.84   377.01   509.35   786.92
          (Kelvin)            977.11  1082.40  1358.86  1432.54  1586.07
                             1888.06  1935.09  1994.18  4111.76  4278.31

 Zero-point correction=                           0.036213 (Hartree/Particle)
 Thermal correction to Energy=                    0.041571
 Thermal correction to Enthalpy=                  0.042515
 Thermal correction to Gibbs Free Energy=         0.007377
 Sum of electronic and zero-point Energies=           -189.613956
 Sum of electronic and thermal Energies=              -189.608598
 Sum of electronic and thermal Enthalpies=            -189.607653
 Sum of electronic and thermal Free Energies=         -189.642792

                     E (Thermal)             CV                S
                      KCal/Mol        Cal/Mol-Kelvin    Cal/Mol-Kelvin
 Total                   26.086             17.187             73.955
 Electronic               0.000              0.000              2.755
 Translational            0.889              2.981             38.294
 Rotational               0.889              2.981             24.036
 Vibrational             24.309             11.225              8.870
 Vibration     1          0.614              1.917              2.850
 Vibration     2          0.661              1.767              1.750
 Vibration     3          0.669              1.742              1.648
 Vibration     4          0.730              1.567              1.148
 Vibration     5          0.902              1.146              0.551

 Normal termination of Gaussian 09 at Tue Jul 19 09:28:44 2016.
