 Gaussian 09, Revision E.01,
 Gaussian 09:  EM64L-G09RevE.01 30-Nov-2015

 ---------------------------------------------
 #p b3lyp/6-311++G(3df,2p) freq symmetry=Loose
 ---------------------------------------------

 ---------
 b3lyp opt
 ---------
 Symbolic Z-matrix:
 Charge =  0 Multiplicity = 1

                         Standard orientation:
 ---------------------------------------------------------------------
 Center     Atomic      Atomic             Coordinates (Angstroms)
 Number     Number       Type             X           Y           Z
 ---------------------------------------------------------------------
      1          6           0       -0.097244   -1.021307    0.000000
      2          6           0       -0.000000    0.360024   -0.000000
      3          6           0        0.723759    1.477388    0.000000
      4          6           0       -0.667315    1.628521   -0.000000
      5          6           0       -0.195223   -2.220524    0.000000
      6          1           0        1.700081    1.934697    0.000000
      7          1           0       -0.283943   -3.279312    0.000000
 ---------------------------------------------------------------------

 SCF Done:  E(RB3LYP) =  -191.572143330     A.U. after   12 cycles

 The electronic state is 1-A'.
 Alpha  occ. eigenvalues --  -10.25519 -10.23707 -10.21649 -10.21303 -10.20524
 Alpha  occ. eigenvalues --   -0.94221  -0.80161  -0.67448  -0.60018  -0.55382
 Alpha  occ. eigenvalues --   -0.47857  -0.41850  -0.37181  -0.32139  -0.31561
 Alpha  occ. eigenvalues --   -0.24341
 Alpha virt. eigenvalues --   -0.08670  -0.03073  -0.00891  -0.00486   0.00511
 Alpha virt. eigenvalues --    0.03540   0.04387   0.04934   0.05051   0.07519
 Alpha virt. eigenvalues --    0.08247   0.09152   0.09793   0.10319   0.11410

 Mulliken charges:
               1
     1  C   -0.612666
     2  C   -0.024326
     3  C    0.287244
     4  C   -0.565573
     5  C    0.351046
     6  H    0.250452
     7  H    0.313823
 Sum of Mulliken charges =  -0.00000

 Dipole moment (field-independent basis, Debye):
    X=              2.7897    Y=             -2.3478    Z=              0.0000  Tot=              3.6462
 Quadrupole moment (field-independent basis, Debye-Ang):
   XX=            -30.3142   YY=            -25.0868   ZZ=            -29.0062
   XY=              7.1771   XZ=             -0.0000   YZ=              0.0000

  Exact polarizability:  45.977   3.432  91.111  -0.000  -0.000  34.998
 Approx polarizability:  67.890   9.276 155.923   0.000   0.000  51.756

                      1                      2                      3
                     A'                     A"                     A'
 Frequencies --    201.8772               217.8337               530.4080
 Red. masses --      4.3756                 4.4018                 7.2619
 Frc consts  --      0.1051                 0.1231                 1.2037
 IR Inten    --      6.8641                 0.9730                 4.1985

                      4                      5                      6
                     A"                     A'                     A'
 Frequencies --    555.4092               611.1852               708.8769
 Red. masses --      4.9527                 1.2342                 5.1326
 Frc consts  --      0.9002                 0.2716                 1.5196
 IR Inten    --      4.7269                54.5036                 1.0942

                      7                      8                      9
                     A"                     A"                     A'
 Frequencies --    756.8339               899.1027               952.9637
 Red. masses --      1.3041                 1.4827                 1.3734
 Frc consts  --      0.4401                 0.7062                 0.7348
 IR Inten    --     28.3336                14.6496                 2.4736

                     10                     11                     12
                     A'                     A'                     A'
 Frequencies --   1107.3224              1280.6749              1720.4002
 Red. masses --      8.4770                 8.0892                 7.7733
 Frc consts  --      6.1241                 7.8169                13.5555
 IR Inten    --      7.6439                37.5705                 4.4943

                     13                     14                     15
                     A'                     A'                     A'
 Frequencies --   2191.8879              3233.8729              3456.7415
 Red. masses --      6.2372                 1.1125                 1.1571
 Frc consts  --     17.6552                 6.8547                 8.1463
 IR Inten    --      3.0311                 0.3955                90.3244

 - Thermochemistry -
 -------------------
 Temperature   298.150 Kelvin.  Pressure   1.00000 Atm.
 Atom     1 has atomic number  6 and mass  12.00000

 Molecular mass:    62.01565 amu.
 Principal axes and moments of inertia in atomic units:
                           1         2         3
     Eigenvalues --    51.17180 523.77835 574.95015
           X            0.07935   0.99685   0.00000
           Y            0.99685  -0.07935   0.00000
           Z           -0.00000   0.00000   1.00000
 This molecule is an asymmetric top.
 Rotational symmetry number  1.
 Rotational temperatures (Kelvin)      1.69261     0.16536     0.15065
 Rotational constants (GHZ):          35.26827     3.44562     3.13895
 Zero-point vibrational energy     110208.3 (Joules/Mol)
                                   26.34042 (Kcal/Mol)
 Warning -- explicit consideration of   5 degrees of freedom as
           vibrations may cause significant error
 Vibrational temperatures:    290.46   313.41   763.14   799.11   879.36
          (Kelvin)           1019.91  1088.91  1293.61  1371.10  1593.19
                             1842.60  2475.27  3153.63  4652.82  4973.47

 Zero-point correction=                           0.041976 (Hartree/Particle)
 Thermal correction to Energy=                    0.046780
 Thermal correction to Enthalpy=                  0.047724
 Thermal correction to Gibbs Free Energy=         0.014905
 Sum of electronic and zero-point Energies=           -191.530167
 Sum of electronic and thermal Energies=              -191.525363
 Sum of electronic and thermal Enthalpies=            -191.524419
 Sum of electronic and thermal Free Energies=         -191.557238

                     E (Thermal)             CV                S
                      KCal/Mol        Cal/Mol-Kelvin    Cal/Mol-Kelvin
 Total                   29.355             15.873             69.074
 Electronic               0.000              0.000              0.000
 Translational            0.889              2.981             38.294
 Rotational               0.889              2.981             24.248
 Vibrational             27.578              9.911              6.533
 Vibration     1          0.639              1.837              2.116
 Vibration     2          0.646              1.814              1.977
 Vibration     3          0.885              1.183              0.586
 Vibration     4          0.911              1.128              0.533
 Vibration     5          0.970              1.008              0.431

 Optimization completed.
    -- Stationary point found.
 Normal termination of Gaussian 09 at Tue Jul 19 06:03:14 2016.
