 Gaussian 09, Revision E.01,
 Gaussian 09:  EM64L-G09RevE.01 30-Nov-2015

 ---------------------------------------------
 #p b3lyp/6-311++G(3df,2p) freq symmetry=Loose
 ---------------------------------------------

 ---------
 b3lyp opt
 ---------
 Symbolic Z-matrix:
 Charge =  0 Multiplicity = 3

                         Standard orientation:
 ---------------------------------------------------------------------
 Center     Atomic      Atomic             Coordinates (Angstroms)
 Number     Number       Type             X           Y           Z
 ---------------------------------------------------------------------
      1          6           0        2.190385    0.472625   -0.000047
      2          6           0        1.244109   -0.483571    0.000123
      3          6           0       -0.101836   -0.237569   -0.000220
      4          6           0       -1.341260    0.001427    0.000031
      5          6           0       -2.620990    0.244744    0.000055
      6          1           0        2.241366    1.548335    0.000205
      7          1           0        1.536183   -1.534272    0.000144
 ---------------------------------------------------------------------

 SCF Done:  E(UB3LYP) =  -191.478632360     A.U. after   20 cycles

 The electronic state is 3-A.
 Alpha  occ. eigenvalues --  -10.27379 -10.24895 -10.24451 -10.23878 -10.20165
 Alpha  occ. eigenvalues --   -0.87294  -0.80714  -0.71789  -0.64867  -0.55627
 Alpha  occ. eigenvalues --   -0.49982  -0.41469  -0.35841  -0.33124  -0.31344
 Alpha  occ. eigenvalues --   -0.29659  -0.22789
 Alpha virt. eigenvalues --   -0.14874  -0.04659  -0.01184   0.00162   0.02851
 Alpha virt. eigenvalues --    0.04632   0.05519   0.06218   0.07219   0.07347
 Alpha virt. eigenvalues --    0.08345   0.08443   0.09715   0.10066   0.10624

  Beta  occ. eigenvalues --  -10.26579 -10.24795 -10.23169 -10.22697 -10.20392
  Beta  occ. eigenvalues --   -0.85925  -0.79559  -0.69007  -0.62325  -0.54316
  Beta  occ. eigenvalues --   -0.48590  -0.39195  -0.35401  -0.30231  -0.30032
  Beta virt. eigenvalues --   -0.14847  -0.12157  -0.11245  -0.01883  -0.01082
  Beta virt. eigenvalues --    0.00383   0.03232   0.04890   0.05558   0.06544
  Beta virt. eigenvalues --    0.07427   0.08078   0.08624   0.09623   0.09870

 Mulliken charges and spin densities:
               1          2
     1  C   -0.414269   1.467526
     2  C    0.103840  -0.255321
     3  C   -0.207748   0.398054
     4  C    0.905366  -0.106032
     5  C   -0.766829   0.433247
     6  H    0.213428   0.014246
     7  H    0.166212   0.048280
 Sum of Mulliken charges =  -0.00000   2.00000

 Dipole moment (field-independent basis, Debye):
    X=              3.9369    Y=             -0.5154    Z=              0.0002  Tot=              3.9705
 Quadrupole moment (field-independent basis, Debye-Ang):
   XX=            -39.6635   YY=            -25.2535   ZZ=            -31.2915
   XY=              1.8728   XZ=              0.0010   YZ=             -0.0003

  Exact polarizability: 124.282   0.720  46.754  -0.002   0.000  38.798
 Approx polarizability: 236.623  -3.802  70.966  -0.011  -0.001  53.140

                      1                      2                      3
                      A                      A                      A
 Frequencies --    123.6079               179.9412               261.6423
 Red. masses --      5.9064                 4.8647                 5.7395
 Frc consts  --      0.0532                 0.0928                 0.2315
 IR Inten    --      7.1167                 1.6962                 2.2082

                      4                      5                      6
                      A                      A                      A
 Frequencies --    402.7138               581.9815               605.1218
 Red. masses --      9.9429                 3.8922                 1.6389
 Frc consts  --      0.9501                 0.7767                 0.3536
 IR Inten    --      1.6133                 1.6670                20.9424

                      7                      8                      9
                      A                      A                      A
 Frequencies --    780.3288               795.7511               895.3575
 Red. masses --      1.2614                 2.5086                 2.2416
 Frc consts  --      0.4525                 0.9359                 1.0588
 IR Inten    --     43.0431                13.1250                29.0831

                     10                     11                     12
                      A                      A                      A
 Frequencies --   1220.1623              1372.7118              1520.6842
 Red. masses --      1.3342                 4.4336                10.7088
 Frc consts  --      1.1703                 4.9223                14.5904
 IR Inten    --      0.6622                10.1676                29.5531

                     13                     14                     15
                      A                      A                      A
 Frequencies --   1952.8850              3075.1777              3252.0620
 Red. masses --     11.7392                 1.0819                 1.0963
 Frc consts  --     26.3780                 6.0283                 6.8311
 IR Inten    --    362.3813                 7.9386                 6.5394

 - Thermochemistry -
 -------------------
 Temperature   298.150 Kelvin.  Pressure   1.00000 Atm.
 Atom     1 has atomic number  6 and mass  12.00000

 Molecular mass:    62.01565 amu.
 Principal axes and moments of inertia in atomic units:
                           1         2         3
     Eigenvalues --    41.65372 669.63240 711.28611
           X            0.99998   0.00629   0.00000
           Y           -0.00629   0.99998   0.00001
           Z           -0.00000  -0.00001   1.00000
 This molecule is an asymmetric top.
 Rotational symmetry number  1.
 Rotational temperatures (Kelvin)      2.07938     0.12935     0.12177
 Rotational constants (GHZ):          43.32725     2.69512     2.53729
 Zero-point vibrational energy     101803.0 (Joules/Mol)
                                   24.33150 (Kcal/Mol)
 Warning -- explicit consideration of   6 degrees of freedom as
           vibrations may cause significant error
 Vibrational temperatures:    177.84   258.89   376.44   579.41   837.34
          (Kelvin)            870.63  1122.72  1144.91  1288.22  1755.54
                             1975.02  2187.92  2809.76  4424.49  4678.99

 Zero-point correction=                           0.038775 (Hartree/Particle)
 Thermal correction to Energy=                    0.044243
 Thermal correction to Enthalpy=                  0.045187
 Thermal correction to Gibbs Free Energy=         0.009779
 Sum of electronic and zero-point Energies=           -191.439858
 Sum of electronic and thermal Energies=              -191.434390
 Sum of electronic and thermal Enthalpies=            -191.433445
 Sum of electronic and thermal Free Energies=         -191.468853

                     E (Thermal)             CV                S
                      KCal/Mol        Cal/Mol-Kelvin    Cal/Mol-Kelvin
 Total                   27.763             17.297             74.522
 Electronic               0.000              0.000              2.183
 Translational            0.889              2.981             38.294
 Rotational               0.889              2.981             24.499
 Vibrational             25.985             11.335              9.546
 Vibration     1          0.610              1.929              3.043
 Vibration     2          0.629              1.867              2.329
 Vibration     3          0.669              1.743              1.651
 Vibration     4          0.768              1.464              0.953
 Vibration     5          0.939              1.070              0.482
 Vibration     6          0.964              1.021              0.441

 Normal termination of Gaussian 09 at Sun Jun 19 02:21:10 2016.
