 Gaussian 09, Revision E.01,
 Gaussian 09:  EM64L-G09RevE.01 30-Nov-2015

 ---------------------------------------------
 #p b3lyp/6-311++G(3df,2p) freq symmetry=Loose
 ---------------------------------------------

 ---------
 b3lyp opt
 ---------
 Symbolic Z-matrix:
 Charge =  2 Multiplicity = 1

                         Standard orientation:
 ---------------------------------------------------------------------
 Center     Atomic      Atomic             Coordinates (Angstroms)
 Number     Number       Type             X           Y           Z
 ---------------------------------------------------------------------
      1          6           0       -1.448721    0.203124   -0.000000
      2          6           0       -0.000000    0.615325   -0.000000
      3          6           0        1.741863    0.534505   -0.000000
      4          6           0        0.833144   -0.572312    0.000000
      5          6           0       -0.450966   -0.900943    0.000000
      6          1           0       -2.025959    0.360901    0.929604
      7          1           0       -2.025959    0.360901   -0.929604
 ---------------------------------------------------------------------

 SCF Done:  E(RB3LYP) =  -190.516942105     A.U. after   12 cycles

 The electronic state is 1-A'.
 Alpha  occ. eigenvalues --  -10.86922 -10.86545 -10.85058 -10.82202 -10.77628
 Alpha  occ. eigenvalues --   -1.57644  -1.35158  -1.22687  -1.07981  -1.01879
 Alpha  occ. eigenvalues --   -1.00580  -0.94527  -0.90118  -0.89850  -0.81464
 Alpha virt. eigenvalues --   -0.67483  -0.61487  -0.60175  -0.52873  -0.48674
 Alpha virt. eigenvalues --   -0.41008  -0.35797  -0.32646  -0.30473  -0.29459
 Alpha virt. eigenvalues --   -0.27371  -0.25191  -0.25083  -0.23116  -0.22245

 Mulliken charges:
               1
     1  C   -0.342314
     2  C    0.411282
     3  C    0.517246
     4  C    0.373425
     5  C    0.404956
     6  H    0.317703
     7  H    0.317703
 Sum of Mulliken charges =   2.00000

 Dipole moment (field-independent basis, Debye):
    X=             -2.2122    Y=             -0.4668    Z=              0.0000  Tot=              2.2610
 Quadrupole moment (field-independent basis, Debye-Ang):
   XX=             -5.1360   YY=            -20.3896   ZZ=            -20.1099
   XY=             -1.8319   XZ=             -0.0000   YZ=              0.0000

  Exact polarizability:  55.281   2.210  33.768   0.000   0.000  26.307
 Approx polarizability: 109.921   8.821  78.869  -0.000  -0.000  43.149

                      1                      2                      3
                     A"                     A'                     A"
 Frequencies --    141.0226               208.9508               429.3984
 Red. masses --      7.5187                 8.9643                 2.5404
 Frc consts  --      0.0881                 0.2306                 0.2760
 IR Inten    --      1.9466                28.0160                 6.5045

                      4                      5                      6
                     A'                     A'                     A'
 Frequencies --    486.3604               669.2927               916.2618
 Red. masses --      9.7125                 9.6563                11.6361
 Frc consts  --      1.3536                 2.5485                 5.7557
 IR Inten    --     35.8680                70.1327                 7.1262

                      7                      8                      9
                     A"                     A"                     A'
 Frequencies --    942.8754               963.8324              1053.1196
 Red. masses --      1.6579                 1.1290                 7.8641
 Frc consts  --      0.8684                 0.6179                 5.1387
 IR Inten    --      2.2261                 1.8157                 0.4064

                     10                     11                     12
                     A'                     A'                     A'
 Frequencies --   1103.1117              1171.9941              1321.8355
 Red. masses --      1.2353                10.5956                 1.0691
 Frc consts  --      0.8856                 8.5748                 1.1006
 IR Inten    --     33.9982               157.3894               156.4364

                     13                     14                     15
                     A'                     A'                     A"
 Frequencies --   1633.4017              2921.3025              2993.7318
 Red. masses --     10.0290                 1.0522                 1.1178
 Frc consts  --     15.7650                 5.2904                 5.9023
 IR Inten    --    121.7038               392.6253               225.5849

 - Thermochemistry -
 -------------------
 Temperature   298.150 Kelvin.  Pressure   1.00000 Atm.
 Atom     1 has atomic number  6 and mass  12.00000

 Molecular mass:    62.01565 amu.
 Principal axes and moments of inertia in atomic units:
                           1         2         3
     Eigenvalues --    84.42454 295.01175 366.99577
           X            0.99581  -0.09140   0.00000
           Y            0.09140   0.99581   0.00000
           Z           -0.00000   0.00000   1.00000
 This molecule is an asymmetric top.
 Rotational symmetry number  1.
 Rotational temperatures (Kelvin)      1.02593     0.29359     0.23601
 Rotational constants (GHZ):          21.37697     6.11752     4.91761
 Zero-point vibrational energy     101422.3 (Joules/Mol)
                                   24.24052 (Kcal/Mol)
 Warning -- explicit consideration of   4 degrees of freedom as
           vibrations may cause significant error
 Vibrational temperatures:    202.90   300.63   617.81   699.76   962.96
          (Kelvin)           1318.29  1356.59  1386.74  1515.20  1587.13
                             1686.24  1901.82  2350.10  4203.10  4307.31

 Zero-point correction=                           0.038630 (Hartree/Particle)
 Thermal correction to Energy=                    0.043535
 Thermal correction to Enthalpy=                  0.044480
 Thermal correction to Gibbs Free Energy=         0.011536
 Sum of electronic and zero-point Energies=           -190.478312
 Sum of electronic and thermal Energies=              -190.473407
 Sum of electronic and thermal Enthalpies=            -190.472462
 Sum of electronic and thermal Free Energies=         -190.505406

                     E (Thermal)             CV                S
                      KCal/Mol        Cal/Mol-Kelvin    Cal/Mol-Kelvin
 Total                   27.319             15.626             69.335
 Electronic               0.000              0.000              0.000
 Translational            0.889              2.981             38.294
 Rotational               0.889              2.981             23.729
 Vibrational             25.541              9.664              7.313
 Vibration     1          0.615              1.912              2.790
 Vibration     2          0.642              1.827              2.053
 Vibration     3          0.791              1.406              0.861
 Vibration     4          0.842              1.280              0.693

 Optimization completed.
    -- Stationary point found.
 Normal termination of Gaussian 09 at Tue Jul 19 05:40:12 2016.
