 Gaussian 09, Revision E.01,
 Gaussian 09:  EM64L-G09RevE.01 30-Nov-2015

 ---------------------------------------------
 #p b3lyp/6-311++G(3df,2p) freq symmetry=Loose
 ---------------------------------------------

 ---------
 b3lyp opt
 ---------
 Symbolic Z-matrix:
 Charge =  0 Multiplicity = 3

                         Standard orientation:
 ---------------------------------------------------------------------
 Center     Atomic      Atomic             Coordinates (Angstroms)
 Number     Number       Type             X           Y           Z
 ---------------------------------------------------------------------
      1          6           0        0.000000    0.603536    0.000000
      2          6           0        1.047100   -0.478565   -0.000000
      3          6           0        0.003059   -1.396824   -0.000000
      4          6           0       -1.044220   -0.482010    0.000000
      5          6           0       -0.006450    1.909338    0.000000
      6          1           0        2.120803   -0.463359   -0.000000
      7          1           0       -2.117737   -0.469494    0.000000
 ---------------------------------------------------------------------

 SCF Done:  E(UB3LYP) =  -191.441677700     A.U. after   19 cycles

 The electronic state is 3-A".
 Alpha  occ. eigenvalues --  -10.24814 -10.24568 -10.24555 -10.24160 -10.22026
 Alpha  occ. eigenvalues --   -0.94238  -0.76202  -0.70535  -0.57214  -0.55911
 Alpha  occ. eigenvalues --   -0.46132  -0.43204  -0.42826  -0.33176  -0.27840
 Alpha  occ. eigenvalues --   -0.27471  -0.23985
 Alpha virt. eigenvalues --   -0.12713  -0.04551  -0.00371   0.01058   0.03261
 Alpha virt. eigenvalues --    0.03270   0.04864   0.05853   0.07173   0.07183
 Alpha virt. eigenvalues --    0.08533   0.08718   0.10625   0.10843   0.11104

  Beta  occ. eigenvalues --  -10.24096 -10.23607 -10.23490 -10.23475 -10.21929
  Beta  occ. eigenvalues --   -0.91887  -0.75399  -0.67493  -0.55712  -0.52745
  Beta  occ. eigenvalues --   -0.44470  -0.41961  -0.39684  -0.31082  -0.26560
  Beta virt. eigenvalues --   -0.13587  -0.12333  -0.11735  -0.02790  -0.00116
  Beta virt. eigenvalues --    0.01122   0.03621   0.03803   0.05521   0.05864
  Beta virt. eigenvalues --    0.07278   0.08165   0.09175   0.09409   0.10964

 Mulliken charges and spin densities:
               1          2
     1  C    0.817790   0.005373
     2  C   -0.223382   0.659387
     3  C   -0.029090   0.729963
     4  C   -0.228361   0.660120
     5  C   -0.856891  -0.010792
     6  H    0.259899  -0.022013
     7  H    0.260035  -0.022037
 Sum of Mulliken charges =  -0.00000   2.00000

 Dipole moment (field-independent basis, Debye):
    X=              0.0109    Y=             -2.0634    Z=              0.0000  Tot=              2.0635
 Quadrupole moment (field-independent basis, Debye-Ang):
   XX=            -22.5303   YY=            -37.4607   ZZ=            -31.4382
   XY=              0.0493   XZ=              0.0000   YZ=             -0.0000

  Exact polarizability:  56.964  -0.081  75.691   0.000  -0.000  37.533
 Approx polarizability:  92.927  -0.156 138.672  -0.000  -0.000  54.050

                      1                      2                      3
                     A'                     A"                     A"
 Frequencies --     57.4812               191.6406               457.1855
 Red. masses --      6.7975                11.7404                 1.4918
 Frc consts  --      0.0132                 0.2540                 0.1837
 IR Inten    --     15.9954                 2.1622                45.3047

                      4                      5                      6
                     A"                     A"                     A'
 Frequencies --    555.4684               587.5172               702.2738
 Red. masses --      1.3182                 2.7110                 7.3782
 Frc consts  --      0.2396                 0.5513                 2.1439
 IR Inten    --      0.0050                20.4970                 5.2462

                      7                      8                      9
                     A'                     A'                     A'
 Frequencies --    757.4939               887.6819              1070.9281
 Red. masses --      8.7024                 2.5880                 3.4452
 Frc consts  --      2.9420                 1.2015                 2.3280
 IR Inten    --      0.0297                 4.1310                 0.5367

                     10                     11                     12
                     A'                     A'                     A'
 Frequencies --   1126.2808              1133.8193              1356.0842
 Red. masses --      1.5154                 1.7966                 4.6479
 Frc consts  --      1.1325                 1.3608                 5.0359
 IR Inten    --      3.3339                 8.6199                 4.8285

                     13                     14                     15
                     A'                     A'                     A'
 Frequencies --   1697.8703              3282.2691              3287.7029
 Red. masses --     11.4484                 1.0924                 1.1015
 Frc consts  --     19.4447                 6.9340                 7.0151
 IR Inten    --     87.6936                 9.5638                 0.5234

 - Thermochemistry -
 -------------------
 Temperature   298.150 Kelvin.  Pressure   1.00000 Atm.
 Atom     1 has atomic number  6 and mass  12.00000

 Molecular mass:    62.01565 amu.
 Principal axes and moments of inertia in atomic units:
                           1         2         3
     Eigenvalues --   126.03957 276.73246 402.77202
           X           -0.00381   0.99999   0.00000
           Y            0.99999   0.00381   0.00000
           Z           -0.00000   0.00000   1.00000
 This molecule is an asymmetric top.
 Rotational symmetry number  1.
 Rotational temperatures (Kelvin)      0.68720     0.31299     0.21504
 Rotational constants (GHZ):          14.31885     6.52161     4.48080
 Zero-point vibrational energy     102589.9 (Joules/Mol)
                                   24.51958 (Kcal/Mol)
 Warning -- explicit consideration of   5 degrees of freedom as
           vibrations may cause significant error
 Vibrational temperatures:     82.70   275.73   657.79   799.19   845.31
          (Kelvin)           1010.41  1089.86  1277.17  1540.82  1620.46
                             1631.31  1951.10  2442.85  4722.45  4730.27

 Zero-point correction=                           0.039074 (Hartree/Particle)
 Thermal correction to Energy=                    0.044254
 Thermal correction to Enthalpy=                  0.045199
 Thermal correction to Gibbs Free Energy=         0.010007
 Sum of electronic and zero-point Energies=           -191.402603
 Sum of electronic and thermal Energies=              -191.397423
 Sum of electronic and thermal Enthalpies=            -191.396479
 Sum of electronic and thermal Free Energies=         -191.431671

                     E (Thermal)             CV                S
                      KCal/Mol        Cal/Mol-Kelvin    Cal/Mol-Kelvin
 Total                   27.770             16.360             74.067
 Electronic               0.000              0.000              2.183
 Translational            0.889              2.981             38.294
 Rotational               0.889              2.981             24.156
 Vibrational             25.993             10.399              9.435
 Vibration     1          0.596              1.975              4.542
 Vibration     2          0.634              1.851              2.212
 Vibration     3          0.815              1.345              0.774
 Vibration     4          0.911              1.128              0.533
 Vibration     5          0.945              1.058              0.472

 Normal termination of Gaussian 09 at Tue Jul 19 08:17:33 2016.
