 Gaussian 09, Revision E.01,
 Gaussian 09:  EM64L-G09RevE.01 30-Nov-2015

 ---------------------------------------------
 #p b3lyp/6-311++G(3df,2p) freq symmetry=Loose
 ---------------------------------------------

 ---------
 b3lyp opt
 ---------
 Symbolic Z-matrix:
 Charge =  1 Multiplicity = 4

                         Standard orientation:
 ---------------------------------------------------------------------
 Center     Atomic      Atomic             Coordinates (Angstroms)
 Number     Number       Type             X           Y           Z
 ---------------------------------------------------------------------
      1          6           0        0.000000    0.669955    0.000000
      2          6           0        0.872189   -0.522293    0.000000
      3          6           0       -0.258109   -1.384882   -0.000000
      4          6           0       -1.129828   -0.256465   -0.000000
      5          6           0        0.257342    2.008606    0.000000
      6          1           0        1.946701   -0.631843    0.000000
      7          1           0       -0.396266   -2.457684   -0.000000
 ---------------------------------------------------------------------

 SCF Done:  E(UB3LYP) =  -191.089179522     A.U. after   21 cycles

 The electronic state is 4-A'.
 Alpha  occ. eigenvalues --  -10.54516 -10.51037 -10.50781 -10.49571 -10.48396
 Alpha  occ. eigenvalues --   -1.19613  -1.03497  -0.91744  -0.87201  -0.73744
 Alpha  occ. eigenvalues --   -0.70690  -0.69422  -0.68558  -0.56524  -0.54639
 Alpha  occ. eigenvalues --   -0.54604  -0.46646
 Alpha virt. eigenvalues --   -0.38131  -0.32826  -0.18251  -0.14972  -0.14031
 Alpha virt. eigenvalues --   -0.12513  -0.10582  -0.10429  -0.08517  -0.08246
 Alpha virt. eigenvalues --   -0.06752  -0.05570  -0.05421  -0.03725  -0.03546

  Beta  occ. eigenvalues --  -10.53717 -10.50566 -10.49288 -10.48169 -10.47418
  Beta  occ. eigenvalues --   -1.16911  -1.00554  -0.87519  -0.85668  -0.70162
  Beta  occ. eigenvalues --   -0.68625  -0.68200  -0.62270  -0.55125
  Beta virt. eigenvalues --   -0.43847  -0.38369  -0.34453  -0.32145  -0.27262
  Beta virt. eigenvalues --   -0.14675  -0.13500  -0.12919  -0.11554  -0.10020
  Beta virt. eigenvalues --   -0.09304  -0.08065  -0.07539  -0.06186  -0.04566

 Mulliken charges and spin densities:
               1          2
     1  C    0.467482   0.174302
     2  C    0.073371   0.654942
     3  C   -0.135439   0.212507
     4  C    0.240527   1.511976
     5  C   -0.279292   0.443851
     6  H    0.310311   0.009728
     7  H    0.323041  -0.007306
 Sum of Mulliken charges =   1.00000   3.00000

 Dipole moment (field-independent basis, Debye):
    X=              0.5867    Y=             -2.2105    Z=             -0.0000  Tot=              2.2871
 Quadrupole moment (field-independent basis, Debye-Ang):
   XX=            -20.9523   YY=            -17.0100   ZZ=            -26.7460
   XY=             -0.0217   XZ=             -0.0000   YZ=             -0.0000

  Exact polarizability:  46.220   4.354  70.227   0.000  -0.000  30.645
 Approx polarizability:  81.369   9.489 129.458   0.000   0.000  43.843

                      1                      2                      3
                     A"                     A'                     A"
 Frequencies --     96.1152               188.4316               457.3954
 Red. masses --      4.5979                 7.1564                 3.8126
 Frc consts  --      0.0250                 0.1497                 0.4700
 IR Inten    --      0.4354                 2.8791                26.2399

                      4                      5                      6
                     A"                     A'                     A'
 Frequencies --    552.6618               685.5231               869.7415
 Red. masses --      1.2256                 9.2508                 4.4522
 Frc consts  --      0.2206                 2.5614                 1.9843
 IR Inten    --     52.2882                 0.2869                 1.9042

                      7                      8                      9
                     A'                     A"                     A'
 Frequencies --    924.8796               933.9006               978.4451
 Red. masses --      2.7578                 1.6018                 4.4743
 Frc consts  --      1.3899                 0.8231                 2.5238
 IR Inten    --     29.6687                10.9671                38.7614

                     10                     11                     12
                     A'                     A'                     A'
 Frequencies --   1128.6074              1251.5684              1276.4472
 Red. masses --      1.7118                 1.6581                 3.8915
 Frc consts  --      1.2846                 1.5303                 3.7357
 IR Inten    --     10.1072                 1.9949                43.8793

                     13                     14                     15
                     A'                     A'                     A'
 Frequencies --   1514.9789              3217.8507              3235.4349
 Red. masses --     11.4384                 1.0912                 1.1083
 Frc consts  --     15.4678                 6.6568                 6.8354
 IR Inten    --    231.7281                65.7761                44.1715

 - Thermochemistry -
 -------------------
 Temperature   298.150 Kelvin.  Pressure   1.00000 Atm.
 Atom     1 has atomic number  6 and mass  12.00000

 Molecular mass:    62.01565 amu.
 Principal axes and moments of inertia in atomic units:
                           1         2         3
     Eigenvalues --   102.82923 315.68577 418.51500
           X            0.14101   0.99001   0.00000
           Y            0.99001  -0.14101   0.00000
           Z           -0.00000  -0.00000   1.00000
 This molecule is an asymmetric top.
 Rotational symmetry number  1.
 Rotational temperatures (Kelvin)      0.84231     0.27437     0.20696
 Rotational constants (GHZ):          17.55086     5.71689     4.31225
 Zero-point vibrational energy     103548.6 (Joules/Mol)
                                   24.74872 (Kcal/Mol)
 Warning -- explicit consideration of   4 degrees of freedom as
           vibrations may cause significant error
 Vibrational temperatures:    138.29   271.11   658.09   795.16   986.31
          (Kelvin)           1251.36  1330.69  1343.67  1407.76  1623.81
                             1800.73  1836.52  2179.71  4629.76  4655.06

 Zero-point correction=                           0.039440 (Hartree/Particle)
 Thermal correction to Energy=                    0.044407
 Thermal correction to Enthalpy=                  0.045352
 Thermal correction to Gibbs Free Energy=         0.010562
 Sum of electronic and zero-point Energies=           -191.049740
 Sum of electronic and thermal Energies=              -191.044772
 Sum of electronic and thermal Enthalpies=            -191.043828
 Sum of electronic and thermal Free Energies=         -191.078617

                     E (Thermal)             CV                S
                      KCal/Mol        Cal/Mol-Kelvin    Cal/Mol-Kelvin
 Total                   27.866             15.632             73.220
 Electronic               0.000              0.000              2.755
 Translational            0.889              2.981             38.294
 Rotational               0.889              2.981             24.122
 Vibrational             26.089              9.671              8.049
 Vibration     1          0.603              1.952              3.532
 Vibration     2          0.633              1.856              2.243
 Vibration     3          0.816              1.345              0.774
 Vibration     4          0.908              1.134              0.539

 Optimization completed.
    -- Stationary point found.
 Normal termination of Gaussian 09 at Tue Jul 19 11:22:19 2016.
