 Gaussian 09, Revision E.01,
 Gaussian 09:  EM64L-G09RevE.01 30-Nov-2015

 ---------------------------------------------
 #p b3lyp/6-311++G(3df,2p) freq symmetry=Loose
 ---------------------------------------------

 ---------
 b3lyp opt
 ---------
 Symbolic Z-matrix:
 Charge =  3 Multiplicity = 2

                         Standard orientation:
 ---------------------------------------------------------------------
 Center     Atomic      Atomic             Coordinates (Angstroms)
 Number     Number       Type             X           Y           Z
 ---------------------------------------------------------------------
      1          6           0        1.416331   -0.997226    0.000156
      2          6           0        0.405046    0.122903   -0.000444
      3          6           0       -0.937795    0.086549   -0.000229
      4          6           0       -2.353741   -0.319525    0.000350
      5          6           0        0.874728    1.578283    0.000089
      6          1           0        1.068952   -2.050533   -0.001233
      7          1           0        2.503633   -0.775369    0.001702
 ---------------------------------------------------------------------

 SCF Done:  E(UB3LYP) =  -189.614337663     A.U. after   32 cycles

 The electronic state is 2-A.
 Alpha  occ. eigenvalues --  -11.12236 -11.10080 -11.04167 -11.01749 -11.00332
 Alpha  occ. eigenvalues --   -1.60452  -1.49176  -1.41749  -1.35346  -1.20612
 Alpha  occ. eigenvalues --   -1.14312  -1.10051  -1.07950  -1.05221  -1.03073
 Alpha virt. eigenvalues --   -0.92822  -0.86048  -0.85524  -0.78993  -0.77560
 Alpha virt. eigenvalues --   -0.64833  -0.57715  -0.52230  -0.50648  -0.48100
 Alpha virt. eigenvalues --   -0.46637  -0.43169  -0.42284  -0.41215  -0.39056

  Beta  occ. eigenvalues --  -11.12019 -11.09443 -11.03223 -11.01637 -11.00433
  Beta  occ. eigenvalues --   -1.59439  -1.46776  -1.40993  -1.34585  -1.19665
  Beta  occ. eigenvalues --   -1.13888  -1.09723  -1.05515  -1.03590
  Beta virt. eigenvalues --   -0.91872  -0.90937  -0.85526  -0.84938  -0.78316
  Beta virt. eigenvalues --   -0.73540  -0.64238  -0.56158  -0.51852  -0.49706
  Beta virt. eigenvalues --   -0.47791  -0.46209  -0.42781  -0.42222  -0.40473

 Mulliken charges and spin densities:
               1          2
     1  C   -0.084590   0.026944
     2  C    0.928556  -0.023917
     3  C    0.290612   0.505689
     4  C    0.633802   0.355424
     5  C    0.533527   0.122156
     6  H    0.344050   0.011835
     7  H    0.354043   0.001870
 Sum of Mulliken charges =   3.00000   1.00000

 Dipole moment (field-independent basis, Debye):
    X=              1.1078    Y=             -0.8994    Z=              0.0007  Tot=              1.4269
 Quadrupole moment (field-independent basis, Debye-Ang):
   XX=             16.4116   YY=             -4.9859   ZZ=            -20.4022
   XY=             -2.4860   XZ=              0.0020   YZ=              0.0002

  Exact polarizability:  77.908   7.363  45.120  -0.003   0.001  24.447
 Approx polarizability: 157.410  30.874  77.371  -0.011  -0.002  38.473

                      1                      2                      3
                      A                      A                      A
 Frequencies --    134.3740               142.4185               231.5938
 Red. masses --      1.2244                 7.0144                 4.1809
 Frc consts  --      0.0130                 0.0838                 0.1321
 IR Inten    --      1.1152                 1.3930                 0.0121

                      4                      5                      6
                      A                      A                      A
 Frequencies --    266.4952               405.8388               449.3319
 Red. masses --      7.3791                 5.3106                 6.0868
 Frc consts  --      0.3088                 0.5153                 0.7241
 IR Inten    --      7.1712                10.0540                12.8142

                      7                      8                      9
                      A                      A                      A
 Frequencies --    640.3846               745.6999               924.9546
 Red. masses --      8.4961                 5.2668                 3.0262
 Frc consts  --      2.0528                 1.7255                 1.5254
 IR Inten    --    130.4248               300.3669               177.9697

                     10                     11                     12
                      A                      A                      A
 Frequencies --   1040.1474              1164.3498              1412.1838
 Red. masses --      2.0765                 1.3546                 1.1119
 Frc consts  --      1.3236                 1.0820                 1.3064
 IR Inten    --    106.3021                11.9503                12.6190

                     13                     14                     15
                      A                      A                      A
 Frequencies --   1524.3405              2901.4822              3023.5945
 Red. masses --      9.6607                 1.0513                 1.1330
 Frc consts  --     13.2258                 5.2143                 6.1029
 IR Inten    --     67.4292               244.6678               192.7112

 - Thermochemistry -
 -------------------
 Temperature   298.150 Kelvin.  Pressure   1.00000 Atm.
 Atom     1 has atomic number  6 and mass  12.00000

 Molecular mass:    62.01565 amu.
 Principal axes and moments of inertia in atomic units:
                           1         2         3
     Eigenvalues --   170.64400 427.72965 598.37359
           X            0.99824  -0.05929   0.00002
           Y            0.05929   0.99824   0.00002
           Z           -0.00003  -0.00002   1.00000
 This molecule is an asymmetric top.
 Rotational symmetry number  1.
 Rotational temperatures (Kelvin)      0.50757     0.20250     0.14475
 Rotational constants (GHZ):          10.57606     4.21935     3.01608
 Zero-point vibrational energy      89762.9 (Joules/Mol)
                                   21.45385 (Kcal/Mol)
 Warning -- explicit consideration of   6 degrees of freedom as
           vibrations may cause significant error
 Vibrational temperatures:    193.33   204.91   333.21   383.43   583.91
          (Kelvin)            646.49   921.37  1072.89  1330.80  1496.54
                             1675.24  2031.81  2193.18  4174.58  4350.27

 Zero-point correction=                           0.034189 (Hartree/Particle)
 Thermal correction to Energy=                    0.040240
 Thermal correction to Enthalpy=                  0.041184
 Thermal correction to Gibbs Free Energy=         0.004715
 Sum of electronic and zero-point Energies=           -189.580149
 Sum of electronic and thermal Energies=              -189.574098
 Sum of electronic and thermal Enthalpies=            -189.573154
 Sum of electronic and thermal Free Energies=         -189.609623

                     E (Thermal)             CV                S
                      KCal/Mol        Cal/Mol-Kelvin    Cal/Mol-Kelvin
 Total                   25.251             19.033             76.755
 Electronic               0.000              0.000              1.377
 Translational            0.889              2.981             38.294
 Rotational               0.889              2.981             25.283
 Vibrational             23.473             13.071             11.801
 Vibration     1          0.613              1.919              2.882
 Vibration     2          0.616              1.911              2.771
 Vibration     3          0.653              1.793              1.867
 Vibration     4          0.672              1.735              1.619
 Vibration     5          0.771              1.458              0.941
 Vibration     6          0.808              1.362              0.798

 Normal termination of Gaussian 09 at Sun Jun 19 04:53:38 2016.
