 Gaussian 09, Revision E.01,
 Gaussian 09:  EM64L-G09RevE.01 30-Nov-2015

 ---------------------------------------------
 #p b3lyp/6-311++G(3df,2p) freq symmetry=Loose
 ---------------------------------------------

 ---------
 b3lyp opt
 ---------
 Symbolic Z-matrix:
 Charge =  0 Multiplicity = 3

                         Standard orientation:
 ---------------------------------------------------------------------
 Center     Atomic      Atomic             Coordinates (Angstroms)
 Number     Number       Type             X           Y           Z
 ---------------------------------------------------------------------
      1          6           0        1.396288    0.819324   -0.141082
      2          6           0        0.399180   -0.135420   -0.031882
      3          6           0       -0.989939   -0.522180   -0.090544
      4          6           0       -1.973895    0.328111    0.079608
      5          6           0        1.716489   -0.456965    0.183780
      6          1           0       -1.181405   -1.581896   -0.246122
      7          1           0       -2.107332    1.384673    0.246839
 ---------------------------------------------------------------------

 SCF Done:  E(UB3LYP) =  -191.468058318     A.U. after   17 cycles

 The electronic state is 3-A.
 Alpha  occ. eigenvalues --  -10.27965 -10.25334 -10.23458 -10.22473 -10.22379
 Alpha  occ. eigenvalues --   -0.95770  -0.83856  -0.66984  -0.57229  -0.52698
 Alpha  occ. eigenvalues --   -0.47515  -0.44771  -0.41804  -0.33281  -0.30653
 Alpha  occ. eigenvalues --   -0.28411  -0.25992
 Alpha virt. eigenvalues --   -0.09916  -0.01980  -0.00585   0.00419   0.01660
 Alpha virt. eigenvalues --    0.04202   0.04593   0.05771   0.05925   0.07517
 Alpha virt. eigenvalues --    0.08115   0.09456   0.09822   0.10495   0.11252

  Beta  occ. eigenvalues --  -10.27241 -10.23705 -10.23607 -10.21727 -10.21644
  Beta  occ. eigenvalues --   -0.94808  -0.82279  -0.64138  -0.55624  -0.50259
  Beta  occ. eigenvalues --   -0.45644  -0.41376  -0.40924  -0.32146  -0.26576
  Beta virt. eigenvalues --   -0.14986  -0.12526  -0.08148  -0.00839  -0.00314
  Beta virt. eigenvalues --    0.00660   0.02221   0.04638   0.04758   0.05962
  Beta virt. eigenvalues --    0.06264   0.08040   0.08500   0.09811   0.10163

 Mulliken charges and spin densities:
               1          2
     1  C   -0.219408   0.314117
     2  C    0.516799   0.340442
     3  C   -0.009120  -0.193408
     4  C   -0.372361   1.089671
     5  C   -0.304144   0.371497
     6  H    0.168983   0.053685
     7  H    0.219251   0.023996
 Sum of Mulliken charges =  -0.00000   2.00000

 Dipole moment (field-independent basis, Debye):
    X=             -2.9561    Y=             -0.3341    Z=             -0.0149  Tot=              2.9750
 Quadrupole moment (field-independent basis, Debye-Ang):
   XX=            -31.9818   YY=            -29.4114   ZZ=            -29.7653
   XY=             -1.1618   XZ=             -0.4515   YZ=              1.7062

  Exact polarizability:  78.872  -7.072  64.994   0.682  -4.093  37.925
 Approx polarizability: 121.923 -15.330 101.954   0.984  -6.373  55.860

                      1                      2                      3
                      A                      A                      A
 Frequencies --      7.2477               204.2405               373.9342
 Red. masses --      3.7259                 4.2905                 3.6143
 Frc consts  --      0.0001                 0.1054                 0.2978
 IR Inten    --      0.4171                20.9323                13.8309

                      4                      5                      6
                      A                      A                      A
 Frequencies --    510.9006               673.0230               744.0534
 Red. masses --      3.3922                10.0709                 2.1976
 Frc consts  --      0.5217                 2.6877                 0.7168
 IR Inten    --      2.2357               362.0796                 9.4915

                      7                      8                      9
                      A                      A                      A
 Frequencies --    761.5665               874.2830               920.3229
 Red. masses --      2.8703                 1.1684                 2.1419
 Frc consts  --      0.9808                 0.5262                 1.0689
 IR Inten    --      8.4631                64.8041                57.0105

                     10                     11                     12
                      A                      A                      A
 Frequencies --   1245.1493              1323.8899              1614.8414
 Red. masses --      1.1658                10.7852                 7.2249
 Frc consts  --      1.0649                11.1373                11.1005
 IR Inten    --      2.9413               108.1487                10.2339

                     13                     14                     15
                      A                      A                      A
 Frequencies --   1685.5060              3101.7791              3246.7728
 Red. masses --     11.8273                 1.0848                 1.1030
 Frc consts  --     19.7968                 6.1492                 6.8509
 IR Inten    --     80.3588                 0.3482                 5.9231

 - Thermochemistry -
 -------------------
 Temperature   298.150 Kelvin.  Pressure   1.00000 Atm.
 Atom     1 has atomic number  6 and mass  12.00000

 Molecular mass:    62.01565 amu.
 Principal axes and moments of inertia in atomic units:
                           1         2         3
     Eigenvalues --    74.07006 449.32676 516.79195
           X            0.99995  -0.00972  -0.00216
           Y            0.00979   0.99921   0.03852
           Z            0.00178  -0.03854   0.99926
 This molecule is an asymmetric top.
 Rotational symmetry number  1.
 Rotational temperatures (Kelvin)      1.16935     0.19276     0.16760
 Rotational constants (GHZ):          24.36533     4.01655     3.49220
 Zero-point vibrational energy     103402.3 (Joules/Mol)
                                   24.71374 (Kcal/Mol)
 Warning -- explicit consideration of   4 degrees of freedom as
           vibrations may cause significant error
 Vibrational temperatures:     10.43   293.86   538.01   735.07   968.33
          (Kelvin)           1070.53  1095.72  1257.90  1324.14  1791.49
                             1904.78  2323.39  2425.06  4462.76  4671.38

 Zero-point correction=                           0.039384 (Hartree/Particle)
 Thermal correction to Energy=                    0.044699
 Thermal correction to Enthalpy=                  0.045644
 Thermal correction to Gibbs Free Energy=         0.008361
 Sum of electronic and zero-point Energies=           -191.428674
 Sum of electronic and thermal Energies=              -191.423359
 Sum of electronic and thermal Enthalpies=            -191.422415
 Sum of electronic and thermal Free Energies=         -191.459697

                     E (Thermal)             CV                S
                      KCal/Mol        Cal/Mol-Kelvin    Cal/Mol-Kelvin
 Total                   28.049             16.291             78.468
 Electronic               0.000              0.000              2.183
 Translational            0.889              2.981             38.294
 Rotational               0.889              2.981             24.357
 Vibrational             26.272             10.329             13.634
 Vibration     1          0.593              1.987              8.651
 Vibration     2          0.640              1.834              2.095
 Vibration     3          0.745              1.526              1.064
 Vibration     4          0.866              1.226              0.631

 Normal termination of Gaussian 09 at Sun Jun 19 01:41:24 2016.
