 Gaussian 09, Revision E.01,
 Gaussian 09:  EM64L-G09RevE.01 30-Nov-2015

 ---------------------------------------------
 #p b3lyp/6-311++G(3df,2p) freq symmetry=Loose
 ---------------------------------------------

 ---------
 b3lyp opt
 ---------
 Symbolic Z-matrix:
 Charge =  1 Multiplicity = 4

                         Standard orientation:
 ---------------------------------------------------------------------
 Center     Atomic      Atomic             Coordinates (Angstroms)
 Number     Number       Type             X           Y           Z
 ---------------------------------------------------------------------
      1          6           0       -0.175289    0.760951    0.000000
      2          6           0       -0.322041   -0.568311    0.760332
      3          6           0       -0.322041   -1.659394    0.000000
      4          6           0       -0.322041   -0.568311   -0.760332
      5          6           0        1.083297    1.400649    0.000000
      6          1           0        1.423199    2.426402    0.000000
      7          1           0       -1.074505    1.380094    0.000000
 ---------------------------------------------------------------------

 SCF Done:  E(UB3LYP) =  -191.073323592     A.U. after   15 cycles

 The electronic state is 4-A".
 Alpha  occ. eigenvalues --  -10.54925 -10.54902 -10.52930 -10.52712 -10.47533
 Alpha  occ. eigenvalues --   -1.27759  -1.06173  -0.91517  -0.83020  -0.78581
 Alpha  occ. eigenvalues --   -0.74330  -0.69370  -0.64450  -0.64221  -0.55447
 Alpha  occ. eigenvalues --   -0.51358  -0.49195
 Alpha virt. eigenvalues --   -0.33696  -0.28283  -0.27244  -0.15889  -0.12372
 Alpha virt. eigenvalues --   -0.11872  -0.11625  -0.10175  -0.07887  -0.07306
 Alpha virt. eigenvalues --   -0.07210  -0.05920  -0.05262  -0.04148  -0.02396

  Beta  occ. eigenvalues --  -10.54173 -10.54151 -10.52877 -10.51135 -10.44809
  Beta  occ. eigenvalues --   -1.27150  -1.03609  -0.86630  -0.80249  -0.76947
  Beta  occ. eigenvalues --   -0.71740  -0.67454  -0.62822  -0.57857
  Beta virt. eigenvalues --   -0.41735  -0.35464  -0.32641  -0.31424  -0.24306
  Beta virt. eigenvalues --   -0.23303  -0.15542  -0.11890  -0.10943  -0.10915
  Beta virt. eigenvalues --   -0.09245  -0.07554  -0.06810  -0.06429  -0.04985

 Mulliken charges and spin densities:
               1          2
     1  C    0.274575  -0.142777
     2  C    0.429398   0.261204
     3  C   -0.240600   0.745553
     4  C    0.429398   0.261204
     5  C   -0.410041   1.826864
     6  H    0.259993   0.004337
     7  H    0.257278   0.043614
 Sum of Mulliken charges =   1.00000   3.00000

 Dipole moment (field-independent basis, Debye):
    X=             -0.3434    Y=              1.6466    Z=              0.0000  Tot=              1.6821
 Quadrupole moment (field-independent basis, Debye-Ang):
   XX=            -22.5055   YY=            -15.0326   ZZ=            -26.1105
   XY=              2.8827   XZ=              0.0000   YZ=              0.0000

  Exact polarizability:  38.677  11.775  61.565  -0.000   0.000  36.340
 Approx polarizability:  58.699  16.465  97.522   0.000  -0.000  73.902

                      1                      2                      3
                     A'                     A"                     A"
 Frequencies --    225.1214               371.0782               448.3476
 Red. masses --      5.6698                 1.9561                 7.2990
 Frc consts  --      0.1693                 0.1587                 0.8645
 IR Inten    --      5.8367                 1.9175                 0.8492

                      4                      5                      6
                     A"                     A'                     A'
 Frequencies --    540.4590               551.0204               703.8207
 Red. masses --      2.1985                 4.5786                 2.9723
 Frc consts  --      0.3784                 0.8191                 0.8675
 IR Inten    --     45.4840                 2.1133                22.5150

                      7                      8                      9
                     A'                     A'                     A"
 Frequencies --    859.5476              1039.6489              1042.5340
 Red. masses --      2.1414                 5.1352                 1.2116
 Frc consts  --      0.9322                 3.2703                 0.7759
 IR Inten    --     25.6838                26.8851                 7.9670

                     10                     11                     12
                     A'                     A"                     A'
 Frequencies --   1158.4424              1283.1719              1336.8453
 Red. masses --      2.4878                10.1672                 1.6915
 Frc consts  --      1.9670                 9.8632                 1.7810
 IR Inten    --     39.7033                 0.0589                12.3480

                     13                     14                     15
                     A'                     A'                     A'
 Frequencies --   1721.7124              3075.7722              3229.1502
 Red. masses --     11.8419                 1.0859                 1.0943
 Frc consts  --     20.6820                 6.0526                 6.7228
 IR Inten    --     11.8538                29.5990                98.7047

 - Thermochemistry -
 -------------------
 Temperature   298.150 Kelvin.  Pressure   1.00000 Atm.
 Atom     1 has atomic number  6 and mass  12.00000

 Molecular mass:    62.01565 amu.
 Principal axes and moments of inertia in atomic units:
                           1         2         3
     Eigenvalues --    81.81603 358.16233 375.43990
           X            0.38758   0.00000   0.92184
           Y            0.92184   0.00000  -0.38758
           Z            0.00000   1.00000  -0.00000
 This molecule is an asymmetric top.
 Rotational symmetry number  1.
 Rotational temperatures (Kelvin)      1.05864     0.24183     0.23070
 Rotational constants (GHZ):          22.05853     5.03889     4.80700
 Zero-point vibrational energy     105191.7 (Joules/Mol)
                                   25.14141 (Kcal/Mol)
 Warning -- explicit consideration of   5 degrees of freedom as
           vibrations may cause significant error
 Vibrational temperatures:    323.90   533.90   645.07   777.60   792.79
          (Kelvin)           1012.64  1236.70  1495.82  1499.97  1666.74
                             1846.20  1923.42  2477.16  4425.34  4646.02

 Zero-point correction=                           0.040065 (Hartree/Particle)
 Thermal correction to Energy=                    0.044689
 Thermal correction to Enthalpy=                  0.045633
 Thermal correction to Gibbs Free Energy=         0.012093
 Sum of electronic and zero-point Energies=           -191.033258
 Sum of electronic and thermal Energies=              -191.028634
 Sum of electronic and thermal Enthalpies=            -191.027690
 Sum of electronic and thermal Free Energies=         -191.061231

                     E (Thermal)             CV                S
                      KCal/Mol        Cal/Mol-Kelvin    Cal/Mol-Kelvin
 Total                   28.043             15.562             70.592
 Electronic               0.000              0.000              2.755
 Translational            0.889              2.981             38.294
 Rotational               0.889              2.981             23.913
 Vibrational             26.265              9.600              5.630
 Vibration     1          0.650              1.803              1.918
 Vibration     2          0.743              1.532              1.075
 Vibration     3          0.807              1.365              0.801
 Vibration     4          0.896              1.161              0.564
 Vibration     5          0.906              1.137              0.542

 Optimization completed.
    -- Stationary point found.
 Normal termination of Gaussian 09 at Tue Jul 19 09:14:10 2016.
