 Gaussian 09, Revision E.01,
 Gaussian 09:  EM64L-G09RevE.01 30-Nov-2015

 ---------------------------------------------
 #p b3lyp/6-311++G(3df,2p) freq symmetry=Loose
 ---------------------------------------------

 ---------
 b3lyp opt
 ---------
 Symbolic Z-matrix:
 Charge =  1 Multiplicity = 2

                         Standard orientation:
 ---------------------------------------------------------------------
 Center     Atomic      Atomic             Coordinates (Angstroms)
 Number     Number       Type             X           Y           Z
 ---------------------------------------------------------------------
      1          6           0       -2.223855    0.063390    0.000084
      2          6           0       -1.019221   -0.027715   -0.000195
      3          6           0        0.333811   -0.120803   -0.000138
      4          6           0        1.569165    0.568594    0.000015
      5          6           0        1.551431   -0.764648    0.000126
      6          1           0       -3.291348    0.137512    0.000455
      7          1           0        2.023360    1.549583    0.000193
 ---------------------------------------------------------------------

 SCF Done:  E(UB3LYP) =  -191.251885665     A.U. after   17 cycles

 The electronic state is 2-A.
 Alpha  occ. eigenvalues --  -10.52893 -10.51087 -10.50513 -10.44674 -10.42510
 Alpha  occ. eigenvalues --   -1.21632  -1.02542  -0.91309  -0.84443  -0.75673
 Alpha  occ. eigenvalues --   -0.73046  -0.66798  -0.66391  -0.57138  -0.54016
 Alpha  occ. eigenvalues --   -0.50735
 Alpha virt. eigenvalues --   -0.32525  -0.27336  -0.21741  -0.14600  -0.13255
 Alpha virt. eigenvalues --   -0.12570  -0.12181  -0.10773  -0.09776  -0.08332
 Alpha virt. eigenvalues --   -0.06828  -0.05510  -0.05280  -0.04567  -0.02971

  Beta  occ. eigenvalues --  -10.52622 -10.50340 -10.49714 -10.44426 -10.42596
  Beta  occ. eigenvalues --   -1.20600  -1.02232  -0.90694  -0.83538  -0.75248
  Beta  occ. eigenvalues --   -0.69580  -0.66357  -0.65333  -0.53800  -0.52857
  Beta virt. eigenvalues --   -0.39441  -0.32230  -0.25627  -0.20611  -0.14456
  Beta virt. eigenvalues --   -0.12943  -0.12367  -0.11930  -0.10640  -0.09774
  Beta virt. eigenvalues --   -0.08162  -0.06594  -0.04995  -0.04526  -0.04372

 Mulliken charges and spin densities:
               1          2
     1  C    0.489343   0.100824
     2  C   -0.339014   0.030707
     3  C    0.013989   0.035462
     4  C    0.063463   0.023312
     5  C    0.093488   0.809483
     6  H    0.367069  -0.004688
     7  H    0.311662   0.004898
 Sum of Mulliken charges =   1.00000   1.00000

 Dipole moment (field-independent basis, Debye):
    X=              0.1056    Y=              1.5916    Z=              0.0006  Tot=              1.5951
 Quadrupole moment (field-independent basis, Debye-Ang):
   XX=             -2.6675   YY=            -22.9628   ZZ=            -25.8468
   XY=              2.7824   XZ=             -0.0015   YZ=              0.0004

  Exact polarizability:  91.661  -5.774  38.133  -0.000  -0.001  27.109
 Approx polarizability: 185.458 -18.204  63.448  -0.003  -0.002  39.467

                      1                      2                      3
                      A                      A                      A
 Frequencies --    193.9934               204.5153               508.1631
 Red. masses --      4.1029                 4.5635                 5.1621
 Frc consts  --      0.0910                 0.1125                 0.7854
 IR Inten    --     10.3464                 9.2085                10.7954

                      4                      5                      6
                      A                      A                      A
 Frequencies --    559.0757               726.6295               759.6145
 Red. masses --      6.1569                 1.2816                 6.4107
 Frc consts  --      1.1338                 0.3987                 2.1794
 IR Inten    --      1.2069                33.1641                 0.6196

                      7                      8                      9
                      A                      A                      A
 Frequencies --    818.5720               893.8294               952.2628
 Red. masses --      1.3132                 1.4135                 1.4017
 Frc consts  --      0.5184                 0.6654                 0.7489
 IR Inten    --     18.6540                29.1331                37.7478

                     10                     11                     12
                      A                      A                      A
 Frequencies --   1088.0873              1394.5050              1712.5617
 Red. masses --      6.5026                 8.7667                 8.0681
 Frc consts  --      4.5359                10.0445                13.9417
 IR Inten    --     24.5048               138.3052                55.9488

                     13                     14                     15
                      A                      A                      A
 Frequencies --   2178.3411              3242.5037              3393.1479
 Red. masses --      6.1852                 1.1191                 1.1642
 Frc consts  --     17.2924                 6.9323                 7.8977
 IR Inten    --    598.7681                99.6023                96.9979

 - Thermochemistry -
 -------------------
 Temperature   298.150 Kelvin.  Pressure   1.00000 Atm.
 Atom     1 has atomic number  6 and mass  12.00000

 Molecular mass:    62.01565 amu.
 Principal axes and moments of inertia in atomic units:
                           1         2         3
     Eigenvalues --    48.10364 523.69660 571.80023
           X            0.99981   0.01974  -0.00001
           Y           -0.01974   0.99981   0.00003
           Z            0.00001  -0.00003   1.00000
 This molecule is an asymmetric top.
 Rotational symmetry number  1.
 Rotational temperatures (Kelvin)      1.80057     0.16539     0.15148
 Rotational constants (GHZ):          37.51777     3.44616     3.15624
 Zero-point vibrational energy     111407.0 (Joules/Mol)
                                   26.62692 (Kcal/Mol)
 Warning -- explicit consideration of   4 degrees of freedom as
           vibrations may cause significant error
 Vibrational temperatures:    279.11   294.25   731.13   804.38  1045.46
          (Kelvin)           1092.91  1177.74  1286.02  1370.09  1565.51
                             2006.38  2463.99  3134.14  4665.23  4881.98

 Zero-point correction=                           0.042433 (Hartree/Particle)
 Thermal correction to Energy=                    0.047193
 Thermal correction to Enthalpy=                  0.048137
 Thermal correction to Gibbs Free Energy=         0.014710
 Sum of electronic and zero-point Energies=           -191.209453
 Sum of electronic and thermal Energies=              -191.204692
 Sum of electronic and thermal Enthalpies=            -191.203748
 Sum of electronic and thermal Free Energies=         -191.237176

                     E (Thermal)             CV                S
                      KCal/Mol        Cal/Mol-Kelvin    Cal/Mol-Kelvin
 Total                   29.614             15.495             70.354
 Electronic               0.000              0.000              1.377
 Translational            0.889              2.981             38.294
 Rotational               0.889              2.981             24.181
 Vibrational             27.837              9.533              6.502
 Vibration     1          0.635              1.848              2.189
 Vibration     2          0.640              1.833              2.092
 Vibration     3          0.863              1.232              0.638
 Vibration     4          0.915              1.120              0.526

 Normal termination of Gaussian 09 at Sun Jun 19 03:00:57 2016.
