 Gaussian 09, Revision E.01,
 Gaussian 09:  EM64L-G09RevE.01 30-Nov-2015

 ------------------------------------------------------
 #p b3lyp/6-311++G(3df,2p) freq IOp(2/17=3) IOp(2/18=3)
 ------------------------------------------------------

 ---------
 b3lyp opt
 ---------
 Symbolic Z-matrix:
 Charge =  1 Multiplicity = 4

                         Standard orientation:
 ---------------------------------------------------------------------
 Center     Atomic      Atomic             Coordinates (Angstroms)
 Number     Number       Type             X           Y           Z
 ---------------------------------------------------------------------
      1          6           0       -0.917109   -0.107721   -0.698251
      2          6           0        0.528047   -0.240332   -0.866218
      3          6           0        0.528047   -0.240332    0.866218
      4          6           0       -0.917109   -0.107721    0.698251
      5          6           0        0.354568    0.903860    0.000000
      6          1           0        1.270667   -0.623924   -1.550519
      7          1           0        1.270667   -0.623924    1.550519
 ---------------------------------------------------------------------

 SCF Done:  E(UB3LYP) =  -191.063353798     A.U. after   14 cycles

 The electronic state is 4-A".
 Alpha  occ. eigenvalues --  -10.54648 -10.52986 -10.52933 -10.52335 -10.52328
 Alpha  occ. eigenvalues --   -1.30440  -0.98559  -0.97824  -0.85358  -0.77218
 Alpha  occ. eigenvalues --   -0.76216  -0.72137  -0.65272  -0.60093  -0.57640
 Alpha  occ. eigenvalues --   -0.53711  -0.51313
 Alpha virt. eigenvalues --   -0.27470  -0.24228  -0.23276  -0.16449  -0.13729
 Alpha virt. eigenvalues --   -0.13519  -0.12077  -0.10702  -0.08324  -0.07183
 Alpha virt. eigenvalues --   -0.07003  -0.06871  -0.06221  -0.06095  -0.04591

  Beta  occ. eigenvalues --  -10.53174 -10.51631 -10.51627 -10.51359 -10.51311
  Beta  occ. eigenvalues --   -1.28147  -0.96092  -0.94763  -0.82812  -0.75488
  Beta  occ. eigenvalues --   -0.71197  -0.68786  -0.62386  -0.56319
  Beta virt. eigenvalues --   -0.40447  -0.37831  -0.36894  -0.24871  -0.21487
  Beta virt. eigenvalues --   -0.19533  -0.15761  -0.12773  -0.12669  -0.11407
  Beta virt. eigenvalues --   -0.09637  -0.07455  -0.06751  -0.06660  -0.06219

 Mulliken charges and spin densities:
               1          2
     1  C    0.066759   0.851297
     2  C    0.075705   0.291173
     3  C    0.075705   0.291173
     4  C    0.066759   0.851297
     5  C    0.064589   0.714923
     6  H    0.325242   0.000069
     7  H    0.325242   0.000069
 Sum of Mulliken charges =   1.00000   3.00000

 Dipole moment (field-independent basis, Debye):
    X=              1.8210    Y=             -0.8316    Z=              0.0000  Tot=              2.0019
 Quadrupole moment (field-independent basis, Debye-Ang):
   XX=            -20.9910   YY=            -24.9739   ZZ=            -19.4455
   XY=             -1.6917   XZ=              0.0000   YZ=             -0.0000

  Exact polarizability:  43.782   2.233  34.103   0.000   0.000  44.352
 Approx polarizability:  79.044  10.976  62.281   0.000  -0.000  79.837

                      1                      2                      3
                     A'                     A"                     A'
 Frequencies --    354.7179               372.5381               519.1344
 Red. masses --      8.1217                 8.1341                 5.3975
 Frc consts  --      0.6021                 0.6651                 0.8570
 IR Inten    --      4.5822                 0.1162                 6.5581

                      4                      5                      6
                     A"                     A"                     A'
 Frequencies --    786.3470               792.2535               795.0669
 Red. masses --      5.3137                 1.4321                 1.2004
 Frc consts  --      1.9359                 0.5296                 0.4471
 IR Inten    --      6.1703                 3.9317                65.2635

                      7                      8                      9
                     A"                     A'                     A"
 Frequencies --    900.1816               964.4587              1021.7303
 Red. masses --      4.0589                 1.6989                 1.4129
 Frc consts  --      1.9378                 0.9311                 0.8690
 IR Inten    --      2.5973                22.0197                 0.8388

                     10                     11                     12
                     A'                     A"                     A'
 Frequencies --   1070.9678              1174.9993              1321.2717
 Red. masses --      2.6034                 5.4572                 7.7412
 Frc consts  --      1.7593                 4.4391                 7.9624
 IR Inten    --      5.0564                 2.1885                 5.9237

                     13                     14                     15
                     A'                     A"                     A'
 Frequencies --   1384.1115              3232.7433              3240.4958
 Red. masses --     10.2867                 1.1023                 1.1057
 Frc consts  --     11.6109                 6.7872                 6.8411
 IR Inten    --      6.0775                99.1892                84.3137

 - Thermochemistry -
 -------------------
 Temperature   298.150 Kelvin.  Pressure   1.00000 Atm.
 Atom     1 has atomic number  6 and mass  12.00000

 Molecular mass:    62.01565 amu.
 Principal axes and moments of inertia in atomic units:
                           1         2         3
     Eigenvalues --   156.29495 166.58305 236.50942
           X            0.00000   0.99653  -0.08318
           Y            0.00000   0.08318   0.99653
           Z            1.00000   0.00000  -0.00000
 This molecule is an asymmetric top.
 Rotational symmetry number  1.
 Rotational temperatures (Kelvin)      0.55417     0.51994     0.36622
 Rotational constants (GHZ):          11.54702    10.83388     7.63074
 Zero-point vibrational energy     107251.3 (Joules/Mol)
                                   25.63368 (Kcal/Mol)
 Warning -- explicit consideration of   3 degrees of freedom as
           vibrations may cause significant error
 Vibrational temperatures:    510.36   536.00   746.92  1131.38  1139.87
          (Kelvin)           1143.92  1295.16  1387.64  1470.04  1540.88
                             1690.56  1901.01  1991.43  4651.19  4662.34

 Zero-point correction=                           0.040850 (Hartree/Particle)
 Thermal correction to Energy=                    0.045024
 Thermal correction to Enthalpy=                  0.045968
 Thermal correction to Gibbs Free Energy=         0.013493
 Sum of electronic and zero-point Energies=           -191.022504
 Sum of electronic and thermal Energies=              -191.018330
 Sum of electronic and thermal Enthalpies=            -191.017386
 Sum of electronic and thermal Free Energies=         -191.049861

                     E (Thermal)             CV                S
                      KCal/Mol        Cal/Mol-Kelvin    Cal/Mol-Kelvin
 Total                   28.253             14.308             68.348
 Electronic               0.000              0.000              2.755
 Translational            0.889              2.981             38.294
 Rotational               0.889              2.981             23.336
 Vibrational             26.475              8.347              3.964
 Vibration     1          0.731              1.566              1.145
 Vibration     2          0.744              1.529              1.069
 Vibration     3          0.874              1.208              0.612

 Optimization completed.
    -- Stationary point found.
 Normal termination of Gaussian 09 at Thu Jan 31 04:53:49 2019.
