 Gaussian 09, Revision E.01,
 Gaussian 09:  EM64L-G09RevE.01 30-Nov-2015

 ---------------------------------------------
 #p b3lyp/6-311++G(3df,2p) freq symmetry=Loose
 ---------------------------------------------

 ---------
 b3lyp opt
 ---------
 Symbolic Z-matrix:
 Charge =  1 Multiplicity = 4

                         Standard orientation:
 ---------------------------------------------------------------------
 Center     Atomic      Atomic             Coordinates (Angstroms)
 Number     Number       Type             X           Y           Z
 ---------------------------------------------------------------------
      1          6           0        2.383664    0.000233    0.000309
      2          6           0        1.078424   -0.000178    0.000099
      3          6           0       -1.490692    0.000450   -0.000847
      4          6           0       -2.747889    0.000033    0.000357
      5          6           0       -0.205377   -0.000649    0.000100
      6          1           0        2.945400    0.933522   -0.000056
      7          1           0        2.945825   -0.932851   -0.000061
 ---------------------------------------------------------------------

 SCF Done:  E(UB3LYP) =  -191.172046792     A.U. after   18 cycles

 The electronic state is 4-A.
 Alpha  occ. eigenvalues --  -10.53025 -10.48893 -10.47441 -10.47161 -10.43287
 Alpha  occ. eigenvalues --   -1.08881  -1.04533  -0.97754  -0.88245  -0.73185
 Alpha  occ. eigenvalues --   -0.69559  -0.65914  -0.63627  -0.62220  -0.56430
 Alpha  occ. eigenvalues --   -0.52671  -0.45621
 Alpha virt. eigenvalues --   -0.31156  -0.24690  -0.15433  -0.12396  -0.12134
 Alpha virt. eigenvalues --   -0.09859  -0.09473  -0.08685  -0.07811  -0.07137
 Alpha virt. eigenvalues --   -0.05669  -0.05640  -0.04085  -0.02228  -0.01894

  Beta  occ. eigenvalues --  -10.49371 -10.48724 -10.47282 -10.46416 -10.42607
  Beta  occ. eigenvalues --   -1.06520  -1.01755  -0.93981  -0.86136  -0.72062
  Beta  occ. eigenvalues --   -0.67722  -0.60826  -0.58468  -0.52728
  Beta virt. eigenvalues --   -0.41730  -0.41329  -0.34006  -0.25423  -0.20478
  Beta virt. eigenvalues --   -0.15136  -0.11657  -0.10930  -0.09320  -0.07809
  Beta virt. eigenvalues --   -0.07592  -0.06643  -0.05065  -0.04960  -0.04730

 Mulliken charges and spin densities:
               1          2
     1  C   -0.382206   0.478139
     2  C    0.680039  -0.036196
     3  C    0.700620  -0.003504
     4  C    0.187100   1.850106
     5  C   -0.689200   0.676370
     6  H    0.251756   0.017513
     7  H    0.251890   0.017571
 Sum of Mulliken charges =   1.00000   3.00000

 Dipole moment (field-independent basis, Debye):
    X=              0.5457    Y=              0.0003    Z=             -0.0002  Tot=              0.5457
 Quadrupole moment (field-independent basis, Debye-Ang):
   XX=              5.1429   YY=            -23.6708   ZZ=            -27.5191
   XY=              0.0008   XZ=             -0.0014   YZ=              0.0000

  Exact polarizability: 128.638  -0.000  29.829  -0.005  -0.000  29.284
 Approx polarizability: 268.516  -0.003  41.581  -0.008  -0.000  38.774

                      1                      2                      3
                      A                      A                      A
 Frequencies --    143.9295               146.1921               368.5763
 Red. masses --      6.3796                 4.8878                 3.1568
 Frc consts  --      0.0779                 0.0615                 0.2527
 IR Inten    --      6.7534                 4.7627                 0.0808

                      4                      5                      6
                      A                      A                      A
 Frequencies --    381.0139               470.0516               545.2190
 Red. masses --      8.5775                 9.1367                 6.6130
 Frc consts  --      0.7337                 1.1894                 1.1582
 IR Inten    --      0.4837                 0.4293                 0.5746

                      7                      8                      9
                      A                      A                      A
 Frequencies --    768.8104               814.9306               882.7564
 Red. masses --      6.2815                 1.3301                 1.8234
 Frc consts  --      2.1875                 0.5204                 0.8372
 IR Inten    --      1.4317                52.5272                 4.8842

                     10                     11                     12
                      A                      A                      A
 Frequencies --   1312.5029              1451.8446              1839.9549
 Red. masses --      1.2100                 5.4749                11.4258
 Frc consts  --      1.2281                 6.7993                22.7904
 IR Inten    --     44.9481                 6.4246               184.9855

                     13                     14                     15
                      A                      A                      A
 Frequencies --   1939.4814              3072.7871              3153.1175
 Red. masses --     11.9697                 1.0539                 1.1121
 Frc consts  --     26.5281                 5.8627                 6.5145
 IR Inten    --      8.3931               249.1743                75.1110

 - Thermochemistry -
 -------------------
 Temperature   298.150 Kelvin.  Pressure   1.00000 Atm.
 Atom     1 has atomic number  6 and mass  12.00000

 Molecular mass:    62.01565 amu.
 Principal axes and moments of inertia in atomic units:
                           1         2         3
     Eigenvalues --     6.26837 774.41835 780.68665
           X            1.00000   0.00001  -0.00006
           Y           -0.00001   1.00000  -0.00000
           Z            0.00006   0.00000   1.00000
 This molecule is an asymmetric top.
 Rotational symmetry number  1.
 Rotational temperatures (Kelvin)     13.81760     0.11184     0.11095
 Rotational constants (GHZ):         287.91239     2.33045     2.31174
 Zero-point vibrational energy     103424.2 (Joules/Mol)
                                   24.71897 (Kcal/Mol)
 Warning -- explicit consideration of   6 degrees of freedom as
           vibrations may cause significant error
 Vibrational temperatures:    207.08   210.34   530.30   548.19   676.30
          (Kelvin)            784.45  1106.15  1172.50  1270.09  1888.40
                             2088.88  2647.28  2790.48  4421.05  4536.63

 Zero-point correction=                           0.039392 (Hartree/Particle)
 Thermal correction to Energy=                    0.044876
 Thermal correction to Enthalpy=                  0.045821
 Thermal correction to Gibbs Free Energy=         0.010941
 Sum of electronic and zero-point Energies=           -191.132655
 Sum of electronic and thermal Energies=              -191.127170
 Sum of electronic and thermal Enthalpies=            -191.126226
 Sum of electronic and thermal Free Energies=         -191.161106

                     E (Thermal)             CV                S
                      KCal/Mol        Cal/Mol-Kelvin    Cal/Mol-Kelvin
 Total                   28.160             17.413             73.411
 Electronic               0.000              0.000              2.755
 Translational            0.889              2.981             38.294
 Rotational               0.889              2.981             22.854
 Vibrational             26.383             11.452              9.509
 Vibration     1          0.616              1.909              2.751
 Vibration     2          0.617              1.907              2.721
 Vibration     3          0.741              1.537              1.086
 Vibration     4          0.751              1.511              1.035
 Vibration     5          0.827              1.316              0.737
 Vibration     6          0.900              1.150              0.554

 Optimization completed.
    -- Stationary point found.
 Normal termination of Gaussian 09 at Sun Jun 19 03:27:08 2016.
