 Gaussian 09, Revision E.01,
 Gaussian 09:  EM64L-G09RevE.01 30-Nov-2015

 ------------------------------------------------------
 #p b3lyp/6-311++G(3df,2p) freq IOp(2/17=3) IOp(2/18=3)
 ------------------------------------------------------

 ---------
 b3lyp opt
 ---------
 Symbolic Z-matrix:
 Charge =  0 Multiplicity = 1

                         Standard orientation:
 ---------------------------------------------------------------------
 Center     Atomic      Atomic             Coordinates (Angstroms)
 Number     Number       Type             X           Y           Z
 ---------------------------------------------------------------------
      1          6           0        2.384799   -0.000000   -0.293090
      2          6           0        1.219587   -0.000000    0.082799
      3          6           0       -0.000000    0.000000    0.640311
      4          6           0       -1.219587    0.000000    0.082799
      5          6           0       -2.384799    0.000000   -0.293090
      6          1           0        3.381755   -0.000000   -0.659193
      7          1           0       -3.381755    0.000000   -0.659193
 ---------------------------------------------------------------------

 SCF Done:  E(RB3LYP) =  -191.556638089     A.U. after   11 cycles

 The electronic state is 1-A1.
 Alpha  occ. eigenvalues --  -10.22876 -10.21341 -10.21338 -10.21072 -10.21070
 Alpha  occ. eigenvalues --   -0.83464  -0.78465  -0.71818  -0.60010  -0.55071
 Alpha  occ. eigenvalues --   -0.52618  -0.38082  -0.37992  -0.31486  -0.31074
 Alpha  occ. eigenvalues --   -0.21511
 Alpha virt. eigenvalues --   -0.14982  -0.00464   0.00313   0.00574   0.01005
 Alpha virt. eigenvalues --    0.02194   0.04520   0.04990   0.06102   0.08120
 Alpha virt. eigenvalues --    0.08522   0.08834   0.09429   0.09897   0.10272

 Mulliken charges:
               1
     1  C    0.129614
     2  C   -0.113687
     3  C   -0.675048
     4  C   -0.113687
     5  C    0.129614
     6  H    0.321597
     7  H    0.321597
 Sum of Mulliken charges =   0.00000

 Dipole moment (field-independent basis, Debye):
    X=             -0.0000    Y=              0.0000    Z=             -1.6573  Tot=              1.6573
 Quadrupole moment (field-independent basis, Debye-Ang):
   XX=            -15.7790   YY=            -28.9690   ZZ=            -32.4400
   XY=             -0.0000   XZ=             -0.0000   YZ=              0.0000

  Exact polarizability: 132.063  -0.000  36.648   0.000  -0.000  46.123
 Approx polarizability: 267.403  -0.000  50.992  -0.000  -0.000  70.767

                      1                      2                      3
                     A1                     B1                     A1
 Frequencies --    119.5600               191.4477               212.2406
 Red. masses --     10.0806                 1.4316                 1.1492
 Frc consts  --      0.0849                 0.0309                 0.0305
 IR Inten    --      0.2603                22.1526               165.4036

                      4                      5                      6
                     B2                     A2                     B1
 Frequencies --    317.8988               323.7419               456.8274
 Red. masses --      5.4630                 4.4180                 3.7210
 Frc consts  --      0.3253                 0.2728                 0.4575
 IR Inten    --      0.2600                 0.0000                 0.1687

                      7                      8                      9
                     A1                     B2                     A2
 Frequencies --    540.7003               823.1512               823.5373
 Red. masses --      5.7443                 1.3211                 1.3479
 Frc consts  --      0.9895                 0.5274                 0.5386
 IR Inten    --      0.3114                32.9971                 0.0000

                     10                     11                     12
                     A1                     B1                     B1
 Frequencies --    840.2707              1402.6281              1976.0875
 Red. masses --      8.3947                 8.8992                 7.3333
 Frc consts  --      3.4922                10.3154                16.8718
 IR Inten    --      8.1029                27.7325                42.6106

                     13                     14                     15
                     A1                     B1                     A1
 Frequencies --   2049.8408              3451.1194              3454.8149
 Red. masses --      6.7408                 1.1342                 1.1398
 Frc consts  --     16.6878                 7.9591                 8.0155
 IR Inten    --     10.0023               171.9040                20.9369

 - Thermochemistry -
 -------------------
 Temperature   298.150 Kelvin.  Pressure   1.00000 Atm.
 Atom     1 has atomic number  6 and mass  12.00000

 Molecular mass:    62.01565 amu.
 Principal axes and moments of inertia in atomic units:
                           1         2         3
     Eigenvalues --    28.54863 697.22652 725.77515
           X            1.00000  -0.00000  -0.00000
           Y           -0.00000  -0.00000   1.00000
           Z            0.00000   1.00000   0.00000
 This molecule is an asymmetric top.
 Rotational symmetry number  2.
 Rotational temperatures (Kelvin)      3.03390     0.12423     0.11934
 Rotational constants (GHZ):          63.21639     2.58846     2.48664
 Zero-point vibrational energy     101586.1 (Joules/Mol)
                                   24.27966 (Kcal/Mol)
 Warning -- explicit consideration of   7 degrees of freedom as
           vibrations may cause significant error
 Vibrational temperatures:    172.02   275.45   305.37   457.38   465.79
          (Kelvin)            657.27   777.95  1184.33  1184.89  1208.96
                             2018.07  2843.15  2949.26  4965.38  4970.70

 Zero-point correction=                           0.038692 (Hartree/Particle)
 Thermal correction to Energy=                    0.044802
 Thermal correction to Enthalpy=                  0.045746
 Thermal correction to Gibbs Free Energy=         0.011075
 Sum of electronic and zero-point Energies=           -191.517946
 Sum of electronic and thermal Energies=              -191.511836
 Sum of electronic and thermal Enthalpies=            -191.510892
 Sum of electronic and thermal Free Energies=         -191.545564

                     E (Thermal)             CV                S
                      KCal/Mol        Cal/Mol-Kelvin    Cal/Mol-Kelvin
 Total                   28.114             19.282             72.972
 Electronic               0.000              0.000              0.000
 Translational            0.889              2.981             38.294
 Rotational               0.889              2.981             22.806
 Vibrational             26.336             13.321             11.872
 Vibration     1          0.609              1.933              3.107
 Vibration     2          0.634              1.852              2.214
 Vibration     3          0.643              1.822              2.024
 Vibration     4          0.704              1.639              1.321
 Vibration     5          0.708              1.628              1.291
 Vibration     6          0.815              1.346              0.775
 Vibration     7          0.896              1.160              0.564

 Optimization completed.
    -- Stationary point found.
 Normal termination of Gaussian 09 at Thu Jan 31 04:28:22 2019.
