 Gaussian 09, Revision E.01,
 Gaussian 09:  EM64L-G09RevE.01 30-Nov-2015

 ---------------------------------------------
 #p b3lyp/6-311++G(3df,2p) freq symmetry=Loose
 ---------------------------------------------

 ---------
 b3lyp opt
 ---------
 Symbolic Z-matrix:
 Charge =  0 Multiplicity = 3

                         Standard orientation:
 ---------------------------------------------------------------------
 Center     Atomic      Atomic             Coordinates (Angstroms)
 Number     Number       Type             X           Y           Z
 ---------------------------------------------------------------------
      1          6           0        2.233501   -0.385640   -0.000144
      2          6           0        1.126505    0.104682   -0.000400
      3          6           0       -0.132094    0.691675    0.000263
      4          6           0       -1.298905   -0.045575    0.000201
      5          6           0       -2.428757   -0.524211   -0.000125
      6          1           0        3.202889   -0.819007    0.001423
      7          1           0       -0.204392    1.773421   -0.000195
 ---------------------------------------------------------------------

 SCF Done:  E(UB3LYP) =  -191.505386071     A.U. after   22 cycles

 The electronic state is 3-A.
 Alpha  occ. eigenvalues --  -10.24946 -10.23761 -10.21600 -10.20127 -10.19695
 Alpha  occ. eigenvalues --   -0.84386  -0.78508  -0.73223  -0.58109  -0.53234
 Alpha  occ. eigenvalues --   -0.50448  -0.40956  -0.39335  -0.32625  -0.31819
 Alpha  occ. eigenvalues --   -0.30555  -0.23044
 Alpha virt. eigenvalues --   -0.01964   0.00081   0.00827   0.01593   0.01971
 Alpha virt. eigenvalues --    0.03744   0.04673   0.05044   0.06358   0.08101
 Alpha virt. eigenvalues --    0.08495   0.09019   0.09292   0.10033   0.10469

  Beta  occ. eigenvalues --  -10.22852 -10.22394 -10.21687 -10.20371 -10.19158
  Beta  occ. eigenvalues --   -0.82994  -0.76759  -0.70387  -0.57159  -0.52493
  Beta  occ. eigenvalues --   -0.50011  -0.36416  -0.30371  -0.30072  -0.29723
  Beta virt. eigenvalues --   -0.20036  -0.12200  -0.01125   0.00254   0.01723
  Beta virt. eigenvalues --    0.02763   0.03239   0.04545   0.04803   0.05156
  Beta virt. eigenvalues --    0.06716   0.08478   0.09515   0.09866   0.10220

 Mulliken charges and spin densities:
               1          2
     1  C    0.378694   0.374123
     2  C   -0.326936  -0.184573
     3  C   -0.767731   0.653780
     4  C    0.488363  -0.233615
     5  C   -0.251052   1.429387
     6  H    0.315876  -0.011832
     7  H    0.162785  -0.027270
 Sum of Mulliken charges =  -0.00000   2.00000

 Dipole moment (field-independent basis, Debye):
    X=              1.0697    Y=              0.2282    Z=              0.0013  Tot=              1.0937
 Quadrupole moment (field-independent basis, Debye-Ang):
   XX=            -25.0309   YY=            -26.9061   ZZ=            -30.7228
   XY=             -1.1715   XZ=              0.0070   YZ=             -0.0020

  Exact polarizability: 131.362  -4.181  45.932  -0.003   0.001  37.956
 Approx polarizability: 191.600  -0.368  68.021  -0.001   0.005  50.391

                      1                      2                      3
                      A                      A                      A
 Frequencies --     91.3174               222.6568               334.1333
 Red. masses --      8.0425                 5.4354                 2.8591
 Frc consts  --      0.0395                 0.1588                 0.1881
 IR Inten    --     43.0888                55.1310                 7.4593

                      4                      5                      6
                      A                      A                      A
 Frequencies --    390.9251               540.4123               572.0359
 Red. masses --      6.1888                 7.3830                 1.2764
 Frc consts  --      0.5572                 1.2704                 0.2461
 IR Inten    --      3.6306                56.6804                43.3300

                      7                      8                      9
                      A                      A                      A
 Frequencies --    676.5833               682.0127               913.6576
 Red. masses --      1.2655                 1.8970                 7.2821
 Frc consts  --      0.3413                 0.5199                 3.5816
 IR Inten    --     41.9719                15.0805               100.7101

                     10                     11                     12
                      A                      A                      A
 Frequencies --   1130.4589              1370.1995              1806.5233
 Red. masses --      1.8945                 2.0497                11.1870
 Frc consts  --      1.4265                 2.2673                21.5104
 IR Inten    --     59.8011                14.1368               450.2059

                     13                     14                     15
                      A                      A                      A
 Frequencies --   2092.1092              3143.5723              3456.4779
 Red. masses --      6.5473                 1.0846                 1.1456
 Frc consts  --     16.8843                 6.3146                 8.0641
 IR Inten    --     68.7044                 0.6695                66.9099

 - Thermochemistry -
 -------------------
 Temperature   298.150 Kelvin.  Pressure   1.00000 Atm.
 Atom     1 has atomic number  6 and mass  12.00000

 Molecular mass:    62.01565 amu.
 Principal axes and moments of inertia in atomic units:
                           1         2         3
     Eigenvalues --    52.70252 630.73134 683.43382
           X            0.99984  -0.01802   0.00003
           Y            0.01802   0.99984  -0.00011
           Z           -0.00003   0.00011   1.00000
 This molecule is an asymmetric top.
 Rotational symmetry number  1.
 Rotational temperatures (Kelvin)      1.64345     0.13732     0.12673
 Rotational constants (GHZ):          34.24393     2.86135     2.64070
 Zero-point vibrational energy     104213.1 (Joules/Mol)
                                   24.90754 (Kcal/Mol)
 Warning -- explicit consideration of   6 degrees of freedom as
           vibrations may cause significant error
 Vibrational temperatures:    131.39   320.35   480.74   562.45   777.53
          (Kelvin)            823.03   973.45   981.26  1314.55  1626.48
                             1971.41  2599.18  3010.07  4522.89  4973.09

 Zero-point correction=                           0.039693 (Hartree/Particle)
 Thermal correction to Energy=                    0.045198
 Thermal correction to Enthalpy=                  0.046142
 Thermal correction to Gibbs Free Energy=         0.010576
 Sum of electronic and zero-point Energies=           -191.465693
 Sum of electronic and thermal Energies=              -191.460188
 Sum of electronic and thermal Enthalpies=            -191.459244
 Sum of electronic and thermal Free Energies=         -191.494810

                     E (Thermal)             CV                S
                      KCal/Mol        Cal/Mol-Kelvin    Cal/Mol-Kelvin
 Total                   28.362             17.699             74.856
 Electronic               0.000              0.000              2.183
 Translational            0.889              2.981             38.294
 Rotational               0.889              2.981             24.633
 Vibrational             26.585             11.737              9.745
 Vibration     1          0.602              1.955              3.632
 Vibration     2          0.648              1.807              1.937
 Vibration     3          0.716              1.607              1.240
 Vibration     4          0.759              1.490              0.997
 Vibration     5          0.895              1.161              0.564
 Vibration     6          0.928              1.092              0.500

 Optimization completed.
    -- Stationary point found.
 Normal termination of Gaussian 09 at Sun Jun 19 01:41:51 2016.
