 Gaussian 09, Revision E.01,
 Gaussian 09:  EM64L-G09RevE.01 30-Nov-2015

 ---------------------------------------------
 #p b3lyp/6-311++G(3df,2p) freq symmetry=Loose
 ---------------------------------------------

 ---------
 b3lyp opt
 ---------
 Symbolic Z-matrix:
 Charge =  2 Multiplicity = 3

                         Standard orientation:
 ---------------------------------------------------------------------
 Center     Atomic      Atomic             Coordinates (Angstroms)
 Number     Number       Type             X           Y           Z
 ---------------------------------------------------------------------
      1          6           0        0.591715   -0.081907   -0.084847
      2          6           0       -0.677591    0.832460   -0.058741
      3          6           0       -1.559706   -0.148183    0.325998
      4          6           0       -0.563816   -0.938218   -0.250623
      5          6           0        1.842269    0.008362    0.110159
      6          1           0        2.923105    0.120090    0.238009
      7          1           0       -0.720330    1.844824   -0.489679
 ---------------------------------------------------------------------

 SCF Done:  E(UB3LYP) =  -190.545833008     A.U. after   20 cycles

 The electronic state is 3-A.
 Alpha  occ. eigenvalues --  -10.82348 -10.79148 -10.79110 -10.78021 -10.75249
 Alpha  occ. eigenvalues --   -1.48312  -1.30143  -1.14834  -1.12697  -1.02497
 Alpha  occ. eigenvalues --   -0.98496  -0.95164  -0.91232  -0.83364  -0.79430
 Alpha  occ. eigenvalues --   -0.77893
 Alpha virt. eigenvalues --   -0.64257  -0.56472  -0.54632  -0.43688  -0.33653
 Alpha virt. eigenvalues --   -0.32237  -0.31919  -0.30113  -0.27082  -0.26094
 Alpha virt. eigenvalues --   -0.24903  -0.22773  -0.22639  -0.21298  -0.20756

  Beta  occ. eigenvalues --  -10.80711 -10.78968 -10.78729 -10.76038 -10.75086
  Beta  occ. eigenvalues --   -1.46629  -1.28692  -1.12784  -1.10620  -1.01743
  Beta  occ. eigenvalues --   -0.95183  -0.93176  -0.90009  -0.78601
  Beta virt. eigenvalues --   -0.66206  -0.62448  -0.60524  -0.53631  -0.51695
  Beta virt. eigenvalues --   -0.41535  -0.32996  -0.31852  -0.31173  -0.29238
  Beta virt. eigenvalues --   -0.26510  -0.25629  -0.24241  -0.22261  -0.22028

 Mulliken charges and spin densities:
               1          2
     1  C    0.167984   0.079019
     2  C    0.072040   0.011114
     3  C    0.184698   0.987007
     4  C    0.437555   0.696684
     5  C    0.341981   0.211697
     6  H    0.456714  -0.006144
     7  H    0.339026   0.020623
 Sum of Mulliken charges =   2.00000   2.00000

 Dipole moment (field-independent basis, Debye):
    X=              2.5626    Y=              1.3194    Z=             -0.2078  Tot=              2.8897
 Quadrupole moment (field-independent basis, Debye-Ang):
   XX=              3.5480   YY=            -14.9167   ZZ=            -23.2923
   XY=             -0.5238   XZ=              1.5256   YZ=             -0.6658

  Exact polarizability:  66.087   0.875  35.747  -0.371  -0.058  25.027
 Approx polarizability: 139.642   4.771  69.926  -1.407   2.351  38.874

                      1                      2                      3
                      A                      A                      A
 Frequencies --    236.4833               260.4638               415.2746
 Red. masses --      5.1270                 2.9509                 7.9507
 Frc consts  --      0.1689                 0.1180                 0.8078
 IR Inten    --      4.8065                14.8420                 9.4503

                      4                      5                      6
                      A                      A                      A
 Frequencies --    469.4877               617.3014               647.2100
 Red. masses --      5.6623                 6.0624                 1.3233
 Frc consts  --      0.7353                 1.3611                 0.3266
 IR Inten    --     18.2539                30.1329                39.8349

                      7                      8                      9
                      A                      A                      A
 Frequencies --    837.0315               919.2912               938.0766
 Red. masses --      1.5010                 3.1197                 1.4520
 Frc consts  --      0.6196                 1.5533                 0.7528
 IR Inten    --     20.3734                 4.3956                 4.3441

                     10                     11                     12
                      A                      A                      A
 Frequencies --   1087.8578              1217.7470              1427.6863
 Red. masses --      1.4422                 9.2944                 9.2239
 Frc consts  --      1.0056                 8.1206                11.0772
 IR Inten    --     10.2031                24.3313                 0.5243

                     13                     14                     15
                      A                      A                      A
 Frequencies --   1781.3155              3027.7431              3148.8098
 Red. masses --      6.4749                 1.1006                 1.1423
 Frc consts  --     12.1050                 5.9443                 6.6728
 IR Inten    --    346.1393               276.2667               375.8306

 - Thermochemistry -
 -------------------
 Temperature   298.150 Kelvin.  Pressure   1.00000 Atm.
 Atom     1 has atomic number  6 and mass  12.00000

 Molecular mass:    62.01565 amu.
 Principal axes and moments of inertia in atomic units:
                           1         2         3
     Eigenvalues --    89.93382 339.51946 411.24628
           X            0.99985  -0.01224   0.01188
           Y            0.01275   0.99894  -0.04415
           Z           -0.01133   0.04430   0.99895
 This molecule is an asymmetric top.
 Rotational symmetry number  1.
 Rotational temperatures (Kelvin)      0.96308     0.25511     0.21061
 Rotational constants (GHZ):          20.06744     5.31558     4.38847
 Zero-point vibrational energy     101872.7 (Joules/Mol)
                                   24.34815 (Kcal/Mol)
 Warning -- explicit consideration of   5 degrees of freedom as
           vibrations may cause significant error
 Vibrational temperatures:    340.25   374.75   597.49   675.49   888.16
          (Kelvin)            931.19  1204.30  1322.65  1349.68  1565.18
                             1752.06  2054.12  2562.91  4356.24  4530.43

 Zero-point correction=                           0.038801 (Hartree/Particle)
 Thermal correction to Energy=                    0.043656
 Thermal correction to Enthalpy=                  0.044600
 Thermal correction to Gibbs Free Energy=         0.010863
 Sum of electronic and zero-point Energies=           -190.507032
 Sum of electronic and thermal Energies=              -190.502177
 Sum of electronic and thermal Enthalpies=            -190.501233
 Sum of electronic and thermal Free Energies=         -190.534970

                     E (Thermal)             CV                S
                      KCal/Mol        Cal/Mol-Kelvin    Cal/Mol-Kelvin
 Total                   27.394             16.299             71.004
 Electronic               0.000              0.000              2.183
 Translational            0.889              2.981             38.294
 Rotational               0.889              2.981             24.044
 Vibrational             25.617             10.337              6.483
 Vibration     1          0.655              1.785              1.829
 Vibration     2          0.669              1.745              1.659
 Vibration     3          0.779              1.437              0.908
 Vibration     4          0.827              1.318              0.739
 Vibration     5          0.977              0.995              0.421

 Optimization completed.
    -- Stationary point found.
 Normal termination of Gaussian 09 at Sun Jun 19 04:13:22 2016.
