 Gaussian 09, Revision E.01,
 Gaussian 09:  EM64L-G09RevE.01 30-Nov-2015

 ------------------------------------------------------
 #p b3lyp/6-311++G(3df,2p) freq IOp(2/17=3) IOp(2/18=3)
 ------------------------------------------------------

 ---------
 b3lyp opt
 ---------
 Symbolic Z-matrix:
 Charge =  2 Multiplicity = 1

                         Standard orientation:
 ---------------------------------------------------------------------
 Center     Atomic      Atomic             Coordinates (Angstroms)
 Number     Number       Type             X           Y           Z
 ---------------------------------------------------------------------
      1          6           0        0.000000   -0.000000    0.770138
      2          6           0       -0.000000   -0.826109   -0.339500
      3          6           0        0.000000    0.000000   -1.563588
      4          6           0        0.000000    0.826109   -0.339500
      5          6           0        0.000000   -0.000000    2.202495
      6          1           0        0.915909   -0.000000   -2.190199
      7          1           0       -0.915909    0.000000   -2.190199
 ---------------------------------------------------------------------

 SCF Done:  E(RB3LYP) =  -190.525733540     A.U. after   12 cycles

 The electronic state is 1-A1.
 Alpha  occ. eigenvalues --  -10.89159 -10.82301 -10.82289 -10.77224 -10.74069
 Alpha  occ. eigenvalues --   -1.51440  -1.30346  -1.19262  -1.09073  -0.98738
 Alpha  occ. eigenvalues --   -0.98163  -0.94416  -0.86455  -0.84778  -0.80726
 Alpha virt. eigenvalues --   -0.67544  -0.66767  -0.59631  -0.53861  -0.46334
 Alpha virt. eigenvalues --   -0.34348  -0.33155  -0.32609  -0.29248  -0.26660
 Alpha virt. eigenvalues --   -0.24906  -0.23909  -0.23565  -0.23124  -0.20829

 Mulliken charges:
               1
     1  C    0.079563
     2  C    1.204822
     3  C   -0.999272
     4  C    1.204822
     5  C   -0.119181
     6  H    0.314623
     7  H    0.314623
 Sum of Mulliken charges =   2.00000

 Dipole moment (field-independent basis, Debye):
    X=              0.0000    Y=              0.0000    Z=             -0.4548  Tot=              0.4548
 Quadrupole moment (field-independent basis, Debye-Ang):
   XX=            -20.5748   YY=            -21.8460   ZZ=              2.1628
   XY=             -0.0000   XZ=             -0.0000   YZ=              0.0000

  Exact polarizability:  27.429  -0.000  37.240  -0.000  -0.000  68.002
 Approx polarizability:  44.028   0.000  92.867  -0.000   0.000 138.630

                      1                      2                      3
                     B2                     B1                     B1
 Frequencies --    179.9057               190.3079               463.0490
 Red. masses --      8.4758                 4.9561                 2.3897
 Frc consts  --      0.1616                 0.1058                 0.3019
 IR Inten    --      0.0000                 1.5371                 9.3535

                      4                      5                      6
                     B2                     A1                     B1
 Frequencies --    547.7939               674.3548               903.1480
 Red. masses --      9.3840                 9.7187                 2.0017
 Frc consts  --      1.6591                 2.6040                 0.9620
 IR Inten    --     55.9316                80.8729                 8.2071

                      7                      8                      9
                     A2                     A1                     B2
 Frequencies --    926.5899               945.1407              1018.7311
 Red. masses --      1.1023                10.9932                 9.4604
 Frc consts  --      0.5576                 5.7858                 5.7847
 IR Inten    --      0.0000                59.0140                 1.4081

                     10                     11                     12
                     B2                     A1                     A1
 Frequencies --   1084.3286              1164.1246              1279.6261
 Red. masses --      1.2400                 9.1432                 1.0596
 Frc consts  --      0.8590                 7.3004                 1.0223
 IR Inten    --     28.9606                10.1600               333.6207

                     13                     14                     15
                     A1                     A1                     B1
 Frequencies --   1638.3920              2886.5390              2930.1270
 Red. masses --     10.6307                 1.0557                 1.1094
 Frc consts  --     16.8132                 5.1826                 5.6121
 IR Inten    --    742.1284               609.5089               246.9160

 - Thermochemistry -
 -------------------
 Temperature   298.150 Kelvin.  Pressure   1.00000 Atm.
 Atom     1 has atomic number  6 and mass  12.00000

 Molecular mass:    62.01565 amu.
 Principal axes and moments of inertia in atomic units:
                           1         2         3
     Eigenvalues --    64.52868 387.41936 439.87135
           X            0.00000   0.00000   1.00000
           Y            0.00000   1.00000  -0.00000
           Z            1.00000  -0.00000   0.00000
 This molecule is an asymmetric top.
 Rotational symmetry number  2.
 Rotational temperatures (Kelvin)      1.34225     0.22357     0.19691
 Rotational constants (GHZ):          27.96805     4.65837     4.10288
 Zero-point vibrational energy     100678.7 (Joules/Mol)
                                   24.06278 (Kcal/Mol)
 Warning -- explicit consideration of   4 degrees of freedom as
           vibrations may cause significant error
 Vibrational temperatures:    258.84   273.81   666.22   788.15   970.24
          (Kelvin)           1299.43  1333.15  1359.84  1465.72  1560.11
                             1674.91  1841.09  2357.28  4153.08  4215.79

 Zero-point correction=                           0.038346 (Hartree/Particle)
 Thermal correction to Energy=                    0.043158
 Thermal correction to Enthalpy=                  0.044102
 Thermal correction to Gibbs Free Energy=         0.011962
 Sum of electronic and zero-point Energies=           -190.487387
 Sum of electronic and thermal Energies=              -190.482575
 Sum of electronic and thermal Enthalpies=            -190.481631
 Sum of electronic and thermal Free Energies=         -190.513771

                     E (Thermal)             CV                S
                      KCal/Mol        Cal/Mol-Kelvin    Cal/Mol-Kelvin
 Total                   27.082             15.524             67.645
 Electronic               0.000              0.000              0.000
 Translational            0.889              2.981             38.294
 Rotational               0.889              2.981             22.535
 Vibrational             25.305              9.563              6.816
 Vibration     1          0.629              1.867              2.329
 Vibration     2          0.634              1.853              2.225
 Vibration     3          0.821              1.332              0.757
 Vibration     4          0.903              1.145              0.549

 Optimization completed.
    -- Stationary point found.
 Normal termination of Gaussian 09 at Thu Jan 31 04:59:57 2019.
