 Gaussian 09, Revision E.01,
 Gaussian 09:  EM64L-G09RevE.01 30-Nov-2015

 ---------------------------------------------
 #p b3lyp/6-311++G(3df,2p) freq symmetry=Loose
 ---------------------------------------------

 ---------
 b3lyp opt
 ---------
 Symbolic Z-matrix:
 Charge =  2 Multiplicity = 1

                         Standard orientation:
 ---------------------------------------------------------------------
 Center     Atomic      Atomic             Coordinates (Angstroms)
 Number     Number       Type             X           Y           Z
 ---------------------------------------------------------------------
      1          6           0       -0.679092    0.000000   -0.998124
      2          6           0        0.679092   -0.000000   -0.998124
      3          6           0        0.785273   -0.000000    0.520474
      4          6           0        0.000000    0.000000    1.543072
      5          6           0       -0.785273    0.000000    0.520474
      6          1           0       -1.457693    0.000000   -1.763311
      7          1           0        1.457693   -0.000000   -1.763311
 ---------------------------------------------------------------------

 SCF Done:  E(RB3LYP) =  -190.568353695     A.U. after   11 cycles

 The electronic state is 1-A1.
 Alpha  occ. eigenvalues --  -10.87988 -10.87975 -10.81604 -10.75105 -10.75040
 Alpha  occ. eigenvalues --   -1.55477  -1.34268  -1.17773  -1.07086  -1.06303
 Alpha  occ. eigenvalues --   -0.98014  -0.97896  -0.92566  -0.89951  -0.79029
 Alpha virt. eigenvalues --   -0.69717  -0.66569  -0.52949  -0.48453  -0.46299
 Alpha virt. eigenvalues --   -0.41101  -0.32592  -0.30054  -0.29558  -0.27889
 Alpha virt. eigenvalues --   -0.27834  -0.26172  -0.23247  -0.21745  -0.21657

 Mulliken charges:
               1
     1  C    0.045450
     2  C    0.045450
     3  C    0.347418
     4  C    0.524271
     5  C    0.347418
     6  H    0.344997
     7  H    0.344997
 Sum of Mulliken charges =   2.00000

 Dipole moment (field-independent basis, Debye):
    X=             -0.0000    Y=             -0.0000    Z=             -0.1255  Tot=              0.1255
 Quadrupole moment (field-independent basis, Debye-Ang):
   XX=            -11.9944   YY=            -23.6829   ZZ=             -6.4048
   XY=             -0.0000   XZ=             -0.0000   YZ=              0.0000

  Exact polarizability:  37.596  -0.000  21.851   0.000  -0.000  48.761
 Approx polarizability:  81.476  -0.000  33.318   0.000   0.000 108.920

                      1                      2                      3
                     B1                     B2                     A2
 Frequencies --    163.1972               304.4899               521.9372
 Red. masses --     11.5243                 7.7335                 4.7735
 Frc consts  --      0.1808                 0.4224                 0.7662
 IR Inten    --     17.0246                47.7488                 0.0000

                      4                      5                      6
                     B2                     A1                     B1
 Frequencies --    590.5837               787.7139               792.5442
 Red. masses --      1.2144                 9.9730                 5.5284
 Frc consts  --      0.2496                 3.6460                 2.0460
 IR Inten    --     99.4604                 0.8444                 2.3286

                      7                      8                      9
                     A2                     A1                     A1
 Frequencies --    876.9633               914.7920              1038.9245
 Red. masses --      1.3569                 9.6931                 1.0779
 Frc consts  --      0.6148                 4.7792                 0.6855
 IR Inten    --      0.0000                 5.5531                35.0568

                     10                     11                     12
                     B1                     B1                     A1
 Frequencies --   1153.6431              1433.7249              1457.0396
 Red. masses --      1.2257                 9.8220                 5.9930
 Frc consts  --      0.9611                11.8954                 7.4962
 IR Inten    --     20.0337                 0.0155               102.6726

                     13                     14                     15
                     A1                     B1                     A1
 Frequencies --   1839.2813              3108.5243              3138.2107
 Red. masses --     10.3398                 1.0929                 1.1191
 Frc consts  --     20.6091                 6.2224                 6.4938
 IR Inten    --      9.4657               275.0324               267.7106

 - Thermochemistry -
 -------------------
 Temperature   298.150 Kelvin.  Pressure   1.00000 Atm.
 Atom     1 has atomic number  6 and mass  12.00000

 Molecular mass:    62.01565 amu.
 Principal axes and moments of inertia in atomic units:
                           1         2         3
     Eigenvalues --   107.66996 232.31246 339.98242
           X            0.00000   1.00000  -0.00000
           Y            0.00000   0.00000   1.00000
           Z            1.00000  -0.00000  -0.00000
 This molecule is an asymmetric top.
 Rotational symmetry number  2.
 Rotational temperatures (Kelvin)      0.80444     0.37283     0.25476
 Rotational constants (GHZ):          16.76179     7.76859     5.30834
 Zero-point vibrational energy     108391.1 (Joules/Mol)
                                   25.90608 (Kcal/Mol)
 Warning -- explicit consideration of   4 degrees of freedom as
           vibrations may cause significant error
 Vibrational temperatures:    234.80   438.09   750.95   849.72  1133.34
          (Kelvin)           1140.29  1261.75  1316.18  1494.78  1659.83
                             2062.81  2096.35  2646.31  4472.47  4515.18

 Zero-point correction=                           0.041284 (Hartree/Particle)
 Thermal correction to Energy=                    0.045863
 Thermal correction to Enthalpy=                  0.046807
 Thermal correction to Gibbs Free Energy=         0.015246
 Sum of electronic and zero-point Energies=           -190.527070
 Sum of electronic and thermal Energies=              -190.522490
 Sum of electronic and thermal Enthalpies=            -190.521546
 Sum of electronic and thermal Free Energies=         -190.553108

                     E (Thermal)             CV                S
                      KCal/Mol        Cal/Mol-Kelvin    Cal/Mol-Kelvin
 Total                   28.780             14.892             66.428
 Electronic               0.000              0.000              0.000
 Translational            0.889              2.981             38.294
 Rotational               0.889              2.981             22.279
 Vibrational             27.002              8.930              5.854
 Vibration     1          0.623              1.888              2.512
 Vibration     2          0.695              1.665              1.392
 Vibration     3          0.877              1.201              0.605
 Vibration     4          0.948              1.052              0.466

 Optimization completed.
    -- Stationary point found.
 Normal termination of Gaussian 09 at Tue Jul 19 06:08:08 2016.
