 Gaussian 09, Revision E.01,
 Gaussian 09:  EM64L-G09RevE.01 30-Nov-2015

 ------------------------------------------------------
 #p b3lyp/6-311++G(3df,2p) freq IOp(2/17=3) IOp(2/18=3)
 ------------------------------------------------------

 ---------
 b3lyp opt
 ---------
 Symbolic Z-matrix:
 Charge =  0 Multiplicity = 3

                         Standard orientation:
 ---------------------------------------------------------------------
 Center     Atomic      Atomic             Coordinates (Angstroms)
 Number     Number       Type             X           Y           Z
 ---------------------------------------------------------------------
      1          6           0       -0.000000   -0.000000    2.537933
      2          6           0        0.000000   -0.000000    1.301670
      3          6           0        0.000000    0.000000   -0.000002
      4          6           0        0.000000    0.000000   -1.301680
      5          6           0        0.000000    0.000000   -2.537925
      6          1           0       -0.000000   -0.000000    3.599674
      7          1           0        0.000000    0.000000   -3.599645
 ---------------------------------------------------------------------

 SCF Done:  E(UB3LYP) =  -191.583455916     A.U. after   15 cycles

 The electronic state is 3-SG.
 Alpha  occ. eigenvalues --  -10.22791 -10.21236 -10.21231 -10.20834 -10.20829
 Alpha  occ. eigenvalues --   -0.83615  -0.79015  -0.72839  -0.63052  -0.54902
 Alpha  occ. eigenvalues --   -0.53583  -0.39677  -0.39677  -0.32651  -0.32651
 Alpha  occ. eigenvalues --   -0.22336  -0.22336
 Alpha virt. eigenvalues --   -0.00563  -0.00563  -0.00277   0.00343   0.03107
 Alpha virt. eigenvalues --    0.05191   0.05191   0.06064   0.07966   0.07966
 Alpha virt. eigenvalues --    0.09597   0.09597   0.09679   0.10852   0.12659

  Beta  occ. eigenvalues --  -10.21448 -10.21424 -10.21223 -10.19930 -10.19927
  Beta  occ. eigenvalues --   -0.81748  -0.77702  -0.69183  -0.61609  -0.53801
  Beta  occ. eigenvalues --   -0.52709  -0.36916  -0.36916  -0.30076  -0.30076
  Beta virt. eigenvalues --   -0.11655  -0.11655  -0.00137   0.00478   0.01011
  Beta virt. eigenvalues --    0.01011   0.03228   0.05338   0.05338   0.06243
  Beta virt. eigenvalues --    0.09255   0.09255   0.10152   0.10287   0.10287

 Mulliken charges and spin densities:
               1          2
     1  C    0.385924   0.857762
     2  C   -0.171873  -0.281695
     3  C   -1.074336   0.896944
     4  C   -0.171933  -0.281678
     5  C    0.385960   0.857680
     6  H    0.323126  -0.024508
     7  H    0.323132  -0.024504
 Sum of Mulliken charges =  -0.00000   2.00000

 Dipole moment (field-independent basis, Debye):
    X=             -0.0000    Y=             -0.0000    Z=              0.0000  Tot=              0.0000
 Quadrupole moment (field-independent basis, Debye-Ang):
   XX=            -30.3912   YY=            -30.3912   ZZ=            -15.3943
   XY=             -0.0000   XZ=              0.0000   YZ=             -0.0000

  Exact polarizability:  35.440   0.000  35.440  -0.000   0.000 147.391
 Approx polarizability:  48.187   0.000  48.187  -0.000  -0.000 284.659

                      1                      2                      3
                     PI                     PI                     PI
 Frequencies --    133.2346               133.2346               406.9407
 Red. masses --      4.7873                 4.7873                 6.8891
 Frc consts  --      0.0501                 0.0501                 0.6722
 IR Inten    --      4.4705                 4.4705                 0.0000

                      4                      5                      6
                     PI                     PI                     PI
 Frequencies --    406.9407               452.5412               452.5412
 Red. masses --      6.8891                 1.2149                 1.2149
 Frc consts  --      0.6722                 0.1466                 0.1466
 IR Inten    --      0.0000                 0.1475                 0.1475

                      7                      8                      9
                     PI                     PI                     PI
 Frequencies --    454.7314               454.7314               497.2831
 Red. masses --      1.2528                 1.2528                 8.1773
 Frc consts  --      0.1526                 0.1526                 1.1914
 IR Inten    --     95.2327                95.2327                 0.9916

                     10                     11                     12
                     PI                     SG                     SG
 Frequencies --    497.2831               767.9793              1570.0935
 Red. masses --      8.1773                 7.3532                 7.2976
 Frc consts  --      1.1914                 2.5552                10.5994
 IR Inten    --      0.9916                 0.0000                 5.5845

                     13                     14                     15
                     SG                     SG                     SG
 Frequencies --   1735.4016              1965.3658              3443.8670
 Red. masses --     10.0334                 7.2163                 1.1202
 Frc consts  --     17.8031                16.4231                 7.8281
 IR Inten    --      1.3742                 0.0000               219.8548

                     16
                     SG
 Frequencies --   3451.1935
 Red. masses --      1.1308
 Frc consts  --      7.9355
 IR Inten    --      0.0430

 - Thermochemistry -
 -------------------
 Temperature   298.150 Kelvin.  Pressure   1.00000 Atm.
 Atom     1 has atomic number  6 and mass  12.00000

 Molecular mass:    62.01565 amu.
 Principal axes and moments of inertia in atomic units:
                           1         2         3
     Eigenvalues --     0.00000 790.52102 790.52102
           X           -0.00000   0.11408   0.99347
           Y           -0.00000   0.99347  -0.11408
           Z            1.00000   0.00000   0.00000
 This molecule is a prolate symmetric top.
 Rotational symmetry number  1.
 Warning -- assumption of classical behavior for rotation
           may cause significant error
 Rotational temperature (Kelvin)      0.10957
 Rotational constant (GHZ):           2.282977
 Zero-point vibrational energy     100626.1 (Joules/Mol)
                                   24.05020 (Kcal/Mol)
 Warning -- explicit consideration of  10 degrees of freedom as
           vibrations may cause significant error
 Vibrational temperatures:    191.69   191.69   585.50   585.50   651.10
          (Kelvin)            651.10   654.26   654.26   715.48   715.48
                             1104.95  2259.01  2496.85  2827.72  4954.95
                             4965.49

 Zero-point correction=                           0.038326 (Hartree/Particle)
 Thermal correction to Energy=                    0.044228
 Thermal correction to Enthalpy=                  0.045172
 Thermal correction to Gibbs Free Energy=         0.011641
 Sum of electronic and zero-point Energies=           -191.545129
 Sum of electronic and thermal Energies=              -191.539228
 Sum of electronic and thermal Enthalpies=            -191.538284
 Sum of electronic and thermal Free Energies=         -191.571815

                     E (Thermal)             CV                S
                      KCal/Mol        Cal/Mol-Kelvin    Cal/Mol-Kelvin
 Total                   27.753             20.451             70.572
 Electronic               0.000              0.000              2.183
 Translational            0.889              2.981             38.294
 Rotational               0.592              1.987             17.704
 Vibrational             26.272             15.483             12.392
 Vibration     1          0.613              1.920              2.899
 Vibration     2          0.613              1.920              2.899
 Vibration     3          0.772              1.455              0.937
 Vibration     4          0.772              1.455              0.937
 Vibration     5          0.811              1.355              0.788
 Vibration     6          0.811              1.355              0.788
 Vibration     7          0.813              1.350              0.782
 Vibration     8          0.813              1.350              0.782
 Vibration     9          0.853              1.256              0.665
 Vibration    10          0.853              1.256              0.665

 Optimization completed.
    -- Stationary point found.
 Normal termination of Gaussian 09 at Thu Jan 31 04:31:28 2019.
