 Gaussian 09, Revision E.01,
 Gaussian 09:  EM64L-G09RevE.01 30-Nov-2015

 ---------------------------------------------
 #p b3lyp/6-311++G(3df,2p) freq symmetry=Loose
 ---------------------------------------------

 ---------
 b3lyp opt
 ---------
 Symbolic Z-matrix:
 Charge =  2 Multiplicity = 1

                         Standard orientation:
 ---------------------------------------------------------------------
 Center     Atomic      Atomic             Coordinates (Angstroms)
 Number     Number       Type             X           Y           Z
 ---------------------------------------------------------------------
      1          6           0       -0.534905    1.836808   -0.000000
      2          6           0        0.000000    0.696433   -0.000000
      3          6           0        1.140560   -0.181517   -0.000000
      4          6           0       -0.028909   -0.809785    0.000000
      5          6           0       -0.785077   -1.986345    0.000000
      6          1           0       -0.987076    2.831072   -0.000000
      7          1           0        2.237056   -0.164636   -0.000000
 ---------------------------------------------------------------------

 SCF Done:  E(RB3LYP) =  -190.571347517     A.U. after   14 cycles

 The electronic state is 1-A'.
 Alpha  occ. eigenvalues --  -10.82101 -10.78914 -10.77470 -10.74089 -10.73973
 Alpha  occ. eigenvalues --   -1.44486  -1.26720  -1.22526  -1.06338  -1.02416
 Alpha  occ. eigenvalues --   -0.94338  -0.90760  -0.88805  -0.79332  -0.76499
 Alpha virt. eigenvalues --   -0.64395  -0.63826  -0.57696  -0.45571  -0.42014
 Alpha virt. eigenvalues --   -0.33713  -0.32731  -0.30556  -0.29238  -0.27034
 Alpha virt. eigenvalues --   -0.25808  -0.25438  -0.23975  -0.21799  -0.20781

 Mulliken charges:
               1
     1  C    0.604153
     2  C   -0.191767
     3  C    0.075464
     4  C    0.534751
     5  C    0.134346
     6  H    0.455109
     7  H    0.387944
 Sum of Mulliken charges =   2.00000

 Dipole moment (field-independent basis, Debye):
    X=              0.6388    Y=              2.5045    Z=             -0.0000  Tot=              2.5847
 Quadrupole moment (field-independent basis, Debye-Ang):
   XX=            -10.3562   YY=              2.9623   ZZ=            -24.1890
   XY=             -4.5239   XZ=             -0.0000   YZ=             -0.0000

  Exact polarizability:  39.924   1.702  77.621   0.000   0.000  25.042
 Approx polarizability:  73.879  15.510 221.452  -0.000  -0.000  37.231

                      1                      2                      3
                     A'                     A"                     A'
 Frequencies --    147.2472               226.1360               276.1758
 Red. masses --      5.1856                 5.3469                 3.5860
 Frc consts  --      0.0662                 0.1611                 0.1612
 IR Inten    --      2.6841                 8.9325                22.0710

                      4                      5                      6
                     A"                     A'                     A"
 Frequencies --    370.4626               609.9022               623.1133
 Red. masses --      6.6422                 8.3423                 1.2469
 Frc consts  --      0.5371                 1.8283                 0.2852
 IR Inten    --     12.8947                27.0855                49.3062

                      7                      8                      9
                     A"                     A'                     A'
 Frequencies --    858.6238               864.0994               974.5082
 Red. masses --      1.3507                 3.0134                 1.4822
 Frc consts  --      0.5867                 1.3257                 0.8293
 IR Inten    --     20.6225                34.1516                 5.5666

                     10                     11                     12
                     A'                     A'                     A'
 Frequencies --    981.4330              1098.4517              1593.4176
 Red. masses --      1.7512                 5.4825                 7.3097
 Frc consts  --      0.9938                 3.8975                10.9347
 IR Inten    --     28.1837               138.1932               956.5403

                     13                     14                     15
                     A'                     A'                     A'
 Frequencies --   1881.2706              3101.9063              3169.2705
 Red. masses --      6.4629                 1.1292                 1.1461
 Frc consts  --     13.4766                 6.4016                 6.7822
 IR Inten    --    190.3700               233.7078               365.5967

 - Thermochemistry -
 -------------------
 Temperature   298.150 Kelvin.  Pressure   1.00000 Atm.
 Atom     1 has atomic number  6 and mass  12.00000

 Molecular mass:    62.01565 amu.
 Principal axes and moments of inertia in atomic units:
                           1         2         3
     Eigenvalues --   115.78346 392.59638 508.37984
           X            0.01908   0.99982   0.00000
           Y            0.99982  -0.01908   0.00000
           Z           -0.00000  -0.00000   1.00000
 This molecule is an asymmetric top.
 Rotational symmetry number  1.
 Rotational temperatures (Kelvin)      0.74807     0.22062     0.17037
 Rotational constants (GHZ):          15.58721     4.59694     3.54999
 Zero-point vibrational energy     100342.9 (Joules/Mol)
                                   23.98252 (Kcal/Mol)
 Warning -- explicit consideration of   5 degrees of freedom as
           vibrations may cause significant error
 Vibrational temperatures:    211.86   325.36   397.35   533.01   877.51
          (Kelvin)            896.52  1235.37  1243.24  1402.10  1412.06
                             1580.42  2292.57  2706.73  4462.95  4559.87

 Zero-point correction=                           0.038219 (Hartree/Particle)
 Thermal correction to Energy=                    0.043547
 Thermal correction to Enthalpy=                  0.044491
 Thermal correction to Gibbs Free Energy=         0.010451
 Sum of electronic and zero-point Energies=           -190.533129
 Sum of electronic and thermal Energies=              -190.527801
 Sum of electronic and thermal Enthalpies=            -190.526856
 Sum of electronic and thermal Free Energies=         -190.560897

                     E (Thermal)             CV                S
                      KCal/Mol        Cal/Mol-Kelvin    Cal/Mol-Kelvin
 Total                   27.326             17.181             71.644
 Electronic               0.000              0.000              0.000
 Translational            0.889              2.981             38.294
 Rotational               0.889              2.981             24.650
 Vibrational             25.549             11.219              8.700
 Vibration     1          0.617              1.906              2.708
 Vibration     2          0.650              1.801              1.909
 Vibration     3          0.678              1.717              1.557
 Vibration     4          0.742              1.533              1.078
 Vibration     5          0.969              1.011              0.433

 Optimization completed.
    -- Stationary point found.
 Normal termination of Gaussian 09 at Tue Jul 19 05:00:28 2016.
