 Gaussian 09, Revision E.01,
 Gaussian 09:  EM64L-G09RevE.01 30-Nov-2015

 ---------------------------------------------
 #p b3lyp/6-311++G(3df,2p) freq symmetry=Loose
 ---------------------------------------------

 ---------
 b3lyp opt
 ---------
 Symbolic Z-matrix:
 Charge =  2 Multiplicity = 3

                         Standard orientation:
 ---------------------------------------------------------------------
 Center     Atomic      Atomic             Coordinates (Angstroms)
 Number     Number       Type             X           Y           Z
 ---------------------------------------------------------------------
      1          6           0        0.000000    1.347406    0.363435
      2          6           0        0.000000   -0.000000    0.754224
      3          6           0       -0.000000   -1.347406    0.363435
      4          6           0       -0.000000   -0.647738   -0.872482
      5          6           0        0.000000    0.647738   -0.872482
      6          1           0        0.000000    2.353161    0.791607
      7          1           0       -0.000000   -2.353161    0.791607
 ---------------------------------------------------------------------

 SCF Done:  E(UB3LYP) =  -190.577859348     A.U. after   13 cycles

 The electronic state is 3-B2.
 Alpha  occ. eigenvalues --  -10.83477 -10.81334 -10.81221 -10.80513 -10.80510
 Alpha  occ. eigenvalues --   -1.54208  -1.34129  -1.23883  -1.07748  -1.02686
 Alpha  occ. eigenvalues --   -1.01795  -1.00051  -0.99587  -0.85247  -0.80912
 Alpha  occ. eigenvalues --   -0.78000
 Alpha virt. eigenvalues --   -0.63175  -0.53508  -0.52510  -0.47806  -0.38549
 Alpha virt. eigenvalues --   -0.33413  -0.32275  -0.31880  -0.28188  -0.27776
 Alpha virt. eigenvalues --   -0.24323  -0.23819  -0.23556  -0.22174  -0.21963

  Beta  occ. eigenvalues --  -10.82945 -10.80677 -10.80567 -10.79726 -10.79723
  Beta  occ. eigenvalues --   -1.52075  -1.31515  -1.21179  -1.06217  -1.01436
  Beta  occ. eigenvalues --   -1.00799  -0.99027  -0.92591  -0.84252
  Beta virt. eigenvalues --   -0.68773  -0.65971  -0.61742  -0.52641  -0.45966
  Beta virt. eigenvalues --   -0.41115  -0.36952  -0.32685  -0.31286  -0.31076
  Beta virt. eigenvalues --   -0.27823  -0.27099  -0.23943  -0.23294  -0.22886

 Mulliken charges and spin densities:
               1          2
     1  C    0.210138   0.502166
     2  C    0.345412   0.280193
     3  C    0.210138   0.502166
     4  C    0.242531   0.372250
     5  C    0.242531   0.372250
     6  H    0.374625  -0.014512
     7  H    0.374625  -0.014512
 Sum of Mulliken charges =   2.00000   2.00000

 Dipole moment (field-independent basis, Debye):
    X=             -0.0000    Y=             -0.0000    Z=              0.8539  Tot=              0.8539
 Quadrupole moment (field-independent basis, Debye-Ang):
   XX=            -23.5493   YY=             -0.8560   ZZ=            -15.7937
   XY=              0.0000   XZ=             -0.0000   YZ=             -0.0000

  Exact polarizability:  21.643   0.000  50.425  -0.000   0.000  36.647
 Approx polarizability:  32.068   0.000 106.276  -0.000  -0.000  85.369

                      1                      2                      3
                     A2                     B1                     A1
 Frequencies --    143.9610               322.0692               507.3281
 Red. masses --      9.3719                 4.1623                 8.1721
 Frc consts  --      0.1144                 0.2544                 1.2393
 IR Inten    --      0.0000                10.6892                 3.2155

                      4                      5                      6
                     B2                     A2                     B1
 Frequencies --    591.4406               623.5965               710.3160
 Red. masses --     10.8621                 1.2310                 1.3084
 Frc consts  --      2.2386                 0.2821                 0.3889
 IR Inten    --     18.3357                 0.0000                37.6760

                      7                      8                      9
                     A1                     A1                     B2
 Frequencies --    788.2440              1062.2630              1073.0691
 Red. masses --      4.2335                 1.2583                 1.1668
 Frc consts  --      1.5498                 0.8366                 0.7916
 IR Inten    --      2.9341                34.1974                 1.7198

                     10                     11                     12
                     B2                     A1                     B2
 Frequencies --   1132.0041              1199.2119              1448.0525
 Red. masses --      8.7318                 6.8606                 8.0577
 Frc consts  --      6.5925                 5.8131                 9.9547
 IR Inten    --     30.4855                14.0755               108.0539

                     13                     14                     15
                     A1                     B2                     A1
 Frequencies --   1749.1607              3127.7894              3133.2129
 Red. masses --     11.0362                 1.1152                 1.1129
 Frc consts  --     19.8943                 6.4283                 6.4368
 IR Inten    --     54.8571               426.3781                60.5599

 - Thermochemistry -
 -------------------
 Temperature   298.150 Kelvin.  Pressure   1.00000 Atm.
 Atom     1 has atomic number  6 and mass  12.00000

 Molecular mass:    62.01565 amu.
 Principal axes and moments of inertia in atomic units:
                           1         2         3
     Eigenvalues --   105.30700 231.41582 336.72282
           X            0.00000  -0.00000   1.00000
           Y            1.00000   0.00000  -0.00000
           Z           -0.00000   1.00000   0.00000
 This molecule is an asymmetric top.
 Rotational symmetry number  2.
 Rotational temperatures (Kelvin)      0.82249     0.37428     0.25723
 Rotational constants (GHZ):          17.13790     7.79869     5.35972
 Zero-point vibrational energy     105341.5 (Joules/Mol)
                                   25.17722 (Kcal/Mol)
 Warning -- explicit consideration of   4 degrees of freedom as
           vibrations may cause significant error
 Vibrational temperatures:    207.13   463.39   729.93   850.95   897.22
          (Kelvin)           1021.99  1134.11  1528.36  1543.91  1628.70
                             1725.40  2083.42  2516.65  4500.19  4507.99

 Zero-point correction=                           0.040122 (Hartree/Particle)
 Thermal correction to Energy=                    0.044827
 Thermal correction to Enthalpy=                  0.045771
 Thermal correction to Gibbs Free Energy=         0.012961
 Sum of electronic and zero-point Energies=           -190.537737
 Sum of electronic and thermal Energies=              -190.533033
 Sum of electronic and thermal Enthalpies=            -190.532088
 Sum of electronic and thermal Free Energies=         -190.564899

                     E (Thermal)             CV                S
                      KCal/Mol        Cal/Mol-Kelvin    Cal/Mol-Kelvin
 Total                   28.129             15.445             69.055
 Electronic               0.000              0.000              2.183
 Translational            0.889              2.981             38.294
 Rotational               0.889              2.981             22.244
 Vibrational             26.352              9.484              6.334
 Vibration     1          0.616              1.909              2.751
 Vibration     2          0.707              1.631              1.300
 Vibration     3          0.863              1.234              0.640
 Vibration     4          0.949              1.050              0.465

 Optimization completed.
    -- Stationary point found.
 Normal termination of Gaussian 09 at Tue Jul 19 08:00:58 2016.
