 Gaussian 09, Revision E.01,
 Gaussian 09:  EM64L-G09RevE.01 30-Nov-2015

 ------------------------------------------------------
 #p b3lyp/6-311++G(3df,2p) freq IOp(2/17=3) IOp(2/18=3)
 ------------------------------------------------------

 ---------
 b3lyp opt
 ---------
 Symbolic Z-matrix:
 Charge =  1 Multiplicity = 4

                         Standard orientation:
 ---------------------------------------------------------------------
 Center     Atomic      Atomic             Coordinates (Angstroms)
 Number     Number       Type             X           Y           Z
 ---------------------------------------------------------------------
      1          6           0        0.000000    0.558769    0.000000
      2          6           0        1.172921   -0.277490    0.000000
      3          6           0        0.241285   -1.365646    0.000000
      4          6           0       -0.946368   -0.603695    0.000000
      5          6           0       -0.504757    1.829661    0.000000
      6          1           0        2.237424   -0.121273    0.000000
      7          1           0       -2.015914   -0.728316    0.000000
 ---------------------------------------------------------------------

 SCF Done:  E(UB3LYP) =  -191.094352772     A.U. after   19 cycles

 The electronic state is 4-A'.
 Alpha  occ. eigenvalues --  -10.54795 -10.53341 -10.50544 -10.49302 -10.48326
 Alpha  occ. eigenvalues --   -1.20619  -1.03285  -0.94927  -0.81109  -0.79527
 Alpha  occ. eigenvalues --   -0.70828  -0.69103  -0.67619  -0.59112  -0.54490
 Alpha  occ. eigenvalues --   -0.52461  -0.47767
 Alpha virt. eigenvalues --   -0.37705  -0.32001  -0.19364  -0.14932  -0.13837
 Alpha virt. eigenvalues --   -0.13045  -0.12447  -0.10309  -0.09107  -0.07421
 Alpha virt. eigenvalues --   -0.06253  -0.06029  -0.05350  -0.03882  -0.03087

  Beta  occ. eigenvalues --  -10.53900 -10.51476 -10.50337 -10.48236 -10.47164
  Beta  occ. eigenvalues --   -1.17689  -0.99880  -0.91568  -0.77966  -0.76556
  Beta  occ. eigenvalues --   -0.68812  -0.66577  -0.62952  -0.56031
  Beta virt. eigenvalues --   -0.42845  -0.37281  -0.35203  -0.34573  -0.25532
  Beta virt. eigenvalues --   -0.14500  -0.14475  -0.13226  -0.12179  -0.11837
  Beta virt. eigenvalues --   -0.08931  -0.08675  -0.06919  -0.05442  -0.05182

 Mulliken charges and spin densities:
               1          2
     1  C    0.776192   0.101697
     2  C   -0.114128   0.715883
     3  C    0.347476   1.051340
     4  C   -0.361513   0.679005
     5  C   -0.284119   0.489408
     6  H    0.320248  -0.018971
     7  H    0.315844  -0.018361
 Sum of Mulliken charges =   1.00000   3.00000

 Dipole moment (field-independent basis, Debye):
    X=              0.3610    Y=             -0.7227    Z=              0.0000  Tot=              0.8078
 Quadrupole moment (field-independent basis, Debye-Ang):
   XX=            -16.3284   YY=            -22.5153   ZZ=            -26.7340
   XY=              1.6292   XZ=              0.0000   YZ=              0.0000

  Exact polarizability:  49.761  -5.309  63.968  -0.001  -0.000  30.459
 Approx polarizability:  82.474 -11.741 130.560  -0.000  -0.000  44.482

                      1                      2                      3
                     A"                     A'                     A"
 Frequencies --     87.7121               129.4292               521.4029
 Red. masses --     11.7443                 6.9018                 1.6544
 Frc consts  --      0.0532                 0.0681                 0.2650
 IR Inten    --      1.1760                 5.3348                17.0360

                      4                      5                      6
                     A"                     A"                     A'
 Frequencies --    570.8339               614.5271               699.2433
 Red. masses --      1.3148                 2.2746                 7.5870
 Frc consts  --      0.2524                 0.5061                 2.1856
 IR Inten    --      2.3947                56.5013                 2.2737

                      7                      8                      9
                     A'                     A'                     A'
 Frequencies --    838.3472               937.6503              1082.3496
 Red. masses --      3.7654                 3.9470                 1.7811
 Frc consts  --      1.5592                 2.0446                 1.2293
 IR Inten    --      8.8258                22.8555                 4.3966

                     10                     11                     12
                     A'                     A'                     A'
 Frequencies --   1120.3746              1157.3070              1262.4458
 Red. masses --      2.4271                 2.2141                 3.5171
 Frc consts  --      1.7950                 1.7472                 3.3026
 IR Inten    --     27.4026                25.2716                46.5794

                     13                     14                     15
                     A'                     A'                     A'
 Frequencies --   1470.3320              3269.7193              3280.3331
 Red. masses --     10.8936                 1.0952                 1.1055
 Frc consts  --     13.8757                 6.8987                 7.0086
 IR Inten    --    135.3727               148.2242                13.8456

 - Thermochemistry -
 -------------------
 Temperature   298.150 Kelvin.  Pressure   1.00000 Atm.
 Atom     1 has atomic number  6 and mass  12.00000

 Molecular mass:    62.01565 amu.
 Principal axes and moments of inertia in atomic units:
                           1         2         3
     Eigenvalues --   131.42824 269.55313 400.98137
           X           -0.29424   0.95573   0.00000
           Y            0.95573   0.29424   0.00000
           Z           -0.00000   0.00000   1.00000
 This molecule is an asymmetric top.
 Rotational symmetry number  1.
 Rotational temperatures (Kelvin)      0.65902     0.32132     0.21600
 Rotational constants (GHZ):          13.73176     6.69531     4.50081
 Zero-point vibrational energy     101933.8 (Joules/Mol)
                                   24.36277 (Kcal/Mol)
 Warning -- explicit consideration of   5 degrees of freedom as
           vibrations may cause significant error
 Vibrational temperatures:    126.20   186.22   750.18   821.30   884.17
          (Kelvin)           1006.05  1206.19  1349.07  1557.26  1611.97
                             1665.10  1816.38  2115.48  4704.39  4719.66

 Zero-point correction=                           0.038825 (Hartree/Particle)
 Thermal correction to Energy=                    0.043949
 Thermal correction to Enthalpy=                  0.044893
 Thermal correction to Gibbs Free Energy=         0.009620
 Sum of electronic and zero-point Energies=           -191.055528
 Sum of electronic and thermal Energies=              -191.050404
 Sum of electronic and thermal Enthalpies=            -191.049460
 Sum of electronic and thermal Free Energies=         -191.084733

                     E (Thermal)             CV                S
                      KCal/Mol        Cal/Mol-Kelvin    Cal/Mol-Kelvin
 Total                   27.578             16.056             74.239
 Electronic               0.000              0.000              2.755
 Translational            0.889              2.981             38.294
 Rotational               0.889              2.981             24.167
 Vibrational             25.801             10.094              9.024
 Vibration     1          0.601              1.958              3.710
 Vibration     2          0.612              1.924              2.955
 Vibration     3          0.876              1.203              0.607
 Vibration     4          0.927              1.094              0.503
 Vibration     5          0.974              1.001              0.425

 Optimization completed.
    -- Stationary point found.
 Normal termination of Gaussian 09 at Thu Jan 31 04:55:22 2019.
