 Gaussian 09, Revision E.01,
 Gaussian 09:  EM64L-G09RevE.01 30-Nov-2015

 ------------------------------------------------------
 #p b3lyp/6-311++G(3df,2p) freq IOp(2/17=3) IOp(2/18=3)
 ------------------------------------------------------

 ---------
 b3lyp opt
 ---------
 Symbolic Z-matrix:
 Charge =  1 Multiplicity = 2

                         Standard orientation:
 ---------------------------------------------------------------------
 Center     Atomic      Atomic             Coordinates (Angstroms)
 Number     Number       Type             X           Y           Z
 ---------------------------------------------------------------------
      1          6           0        0.000000    0.000000    1.190388
      2          6           0       -0.000000    0.000000   -0.182216
      3          6           0        0.673314   -0.000000   -1.381974
      4          6           0       -0.673314    0.000000   -1.381974
      5          6           0        0.000000    0.000000    2.396191
      6          1           0       -1.608989    0.000000   -1.921248
      7          1           0        1.608989   -0.000000   -1.921248
 ---------------------------------------------------------------------

 SCF Done:  E(UB3LYP) =  -191.219613322     A.U. after   14 cycles

 The electronic state is 2-A1.
 Alpha  occ. eigenvalues --  -10.51212 -10.49167 -10.49092 -10.48058 -10.42013
 Alpha  occ. eigenvalues --   -1.20831  -1.01771  -0.89899  -0.84568  -0.80355
 Alpha  occ. eigenvalues --   -0.66326  -0.64880  -0.64510  -0.61483  -0.53892
 Alpha  occ. eigenvalues --   -0.52156
 Alpha virt. eigenvalues --   -0.31730  -0.27863  -0.20996  -0.14617  -0.13667
 Alpha virt. eigenvalues --   -0.13215  -0.12339  -0.10682  -0.09327  -0.07995
 Alpha virt. eigenvalues --   -0.07283  -0.05147  -0.04522  -0.03867  -0.03729

  Beta  occ. eigenvalues --  -10.51177 -10.49209 -10.49135 -10.45669 -10.41963
  Beta  occ. eigenvalues --   -1.20929  -1.00620  -0.88491  -0.84660  -0.80337
  Beta  occ. eigenvalues --   -0.66567  -0.64617  -0.64616  -0.52586  -0.50548
  Beta virt. eigenvalues --   -0.39499  -0.30166  -0.28076  -0.18801  -0.14586
  Beta virt. eigenvalues --   -0.13648  -0.13217  -0.11297  -0.10656  -0.09060
  Beta virt. eigenvalues --   -0.07784  -0.06441  -0.05108  -0.03915  -0.03758

 Mulliken charges and spin densities:
               1          2
     1  C    0.128515  -0.250519
     2  C   -0.371075  -0.018060
     3  C    0.140079  -0.035814
     4  C    0.140079  -0.035814
     5  C    0.322820   1.341827
     6  H    0.319791  -0.000810
     7  H    0.319791  -0.000810
 Sum of Mulliken charges =   1.00000   1.00000

 Dipole moment (field-independent basis, Debye):
    X=             -0.0000    Y=             -0.0000    Z=             -2.5445  Tot=              2.5445
 Quadrupole moment (field-independent basis, Debye-Ang):
   XX=            -20.0718   YY=            -25.6945   ZZ=             -7.5708
   XY=             -0.0000   XZ=              0.0000   YZ=              0.0000

  Exact polarizability:  40.789  -0.000  27.417   0.000  -0.000  73.590
 Approx polarizability:  57.439  -0.000  38.880  -0.000  -0.000 134.649

                      1                      2                      3
                     B1                     B2                     B1
 Frequencies --    137.1043               201.2690               440.3191
 Red. masses --      6.9539                 8.0231                 4.7363
 Frc consts  --      0.0770                 0.1915                 0.5410
 IR Inten    --      0.0463                 6.6993                 5.9557

                      4                      5                      6
                     B2                     A1                     B2
 Frequencies --    514.9879               743.3621               865.2531
 Red. masses --      3.6992                 4.0988                 1.4648
 Frc consts  --      0.5780                 1.3345                 0.6461
 IR Inten    --      4.5937                 7.0541                38.6125

                      7                      8                      9
                     A1                     A2                     B1
 Frequencies --    982.4391               995.7925              1019.9323
 Red. masses --      1.2452                 1.4334                 1.4319
 Frc consts  --      0.7081                 0.8375                 0.8776
 IR Inten    --      6.8038                 0.0000                 3.3181

                     10                     11                     12
                     B1                     A1                     A1
 Frequencies --   1233.4554              1390.6897              1748.4020
 Red. masses --      6.1245                 7.5044                 6.6790
 Frc consts  --      5.4899                 8.5511                12.0293
 IR Inten    --     48.6548               157.8715                40.6600

                     13                     14                     15
                     A1                     B1                     A1
 Frequencies --   2235.7696              3233.7140              3267.5266
 Red. masses --     11.8669                 1.0971                 1.1443
 Frc consts  --     34.9496                 6.7591                 7.1980
 IR Inten    --    218.9220                81.0905                58.6674

 - Thermochemistry -
 -------------------
 Temperature   298.150 Kelvin.  Pressure   1.00000 Atm.
 Atom     1 has atomic number  6 and mass  12.00000

 Molecular mass:    62.01565 amu.
 Principal axes and moments of inertia in atomic units:
                           1         2         3
     Eigenvalues --    57.48935 497.61246 555.10180
           X            0.00000   1.00000   0.00000
           Y            0.00000  -0.00000   1.00000
           Z            1.00000   0.00000  -0.00000
 This molecule is an asymmetric top.
 Rotational symmetry number  2.
 Rotational temperatures (Kelvin)      1.50661     0.17406     0.15603
 Rotational constants (GHZ):          31.39262     3.62680     3.25119
 Zero-point vibrational energy     113705.2 (Joules/Mol)
                                   27.17618 (Kcal/Mol)
 Warning -- explicit consideration of   4 degrees of freedom as
           vibrations may cause significant error
 Vibrational temperatures:    197.26   289.58   633.52   740.95  1069.53
          (Kelvin)           1244.90  1413.51  1432.72  1467.45  1774.66
                             2000.89  2515.56  3216.77  4652.59  4701.24

 Zero-point correction=                           0.043308 (Hartree/Particle)
 Thermal correction to Energy=                    0.048144
 Thermal correction to Enthalpy=                  0.049088
 Thermal correction to Gibbs Free Energy=         0.015951
 Sum of electronic and zero-point Energies=           -191.176305
 Sum of electronic and thermal Energies=              -191.171469
 Sum of electronic and thermal Enthalpies=            -191.170525
 Sum of electronic and thermal Free Energies=         -191.203663

                     E (Thermal)             CV                S
                      KCal/Mol        Cal/Mol-Kelvin    Cal/Mol-Kelvin
 Total                   30.211             15.076             69.744
 Electronic               0.000              0.000              1.377
 Translational            0.889              2.981             38.294
 Rotational               0.889              2.981             22.900
 Vibrational             28.433              9.115              7.173
 Vibration     1          0.614              1.916              2.844
 Vibration     2          0.638              1.838              2.121
 Vibration     3          0.800              1.382              0.826
 Vibration     4          0.870              1.217              0.622

 Optimization completed.
    -- Stationary point found.
 Normal termination of Gaussian 09 at Thu Jan 31 04:51:57 2019.
