 Gaussian 09, Revision E.01,
 Gaussian 09:  EM64L-G09RevE.01 30-Nov-2015

 ---------------------------------------------
 #p b3lyp/6-311++G(3df,2p) freq symmetry=Loose
 ---------------------------------------------

 ---------
 b3lyp opt
 ---------
 Symbolic Z-matrix:
 Charge =  2 Multiplicity = 1

                         Standard orientation:
 ---------------------------------------------------------------------
 Center     Atomic      Atomic             Coordinates (Angstroms)
 Number     Number       Type             X           Y           Z
 ---------------------------------------------------------------------
      1          6           0        0.000000   -1.870546   -0.850474
      2          6           0        0.000000   -0.673077   -0.098808
      3          6           0        0.000000    0.000000    1.288908
      4          6           0        0.000000    0.673077   -0.098808
      5          6           0        0.000000    1.870546   -0.850474
      6          1           0        0.950585    0.000000    1.828968
      7          1           0       -0.950585    0.000000    1.828968
 ---------------------------------------------------------------------

 SCF Done:  E(RB3LYP) =  -190.445849943     A.U. after   13 cycles

 The electronic state is 1-A1.
 Alpha  occ. eigenvalues --  -10.85914 -10.85913 -10.77439 -10.77364 -10.73455
 Alpha  occ. eigenvalues --   -1.43477  -1.26856  -1.24042  -1.08571  -0.96275
 Alpha  occ. eigenvalues --   -0.91295  -0.89648  -0.82599  -0.82408  -0.80674
 Alpha virt. eigenvalues --   -0.71561  -0.64677  -0.61689  -0.57782  -0.43177
 Alpha virt. eigenvalues --   -0.36221  -0.36016  -0.29489  -0.28443  -0.28028
 Alpha virt. eigenvalues --   -0.25994  -0.24452  -0.23086  -0.22685  -0.22623

 Mulliken charges:
               1
     1  C    0.217730
     2  C    0.703752
     3  C   -0.433554
     4  C    0.703752
     5  C    0.217730
     6  H    0.295295
     7  H    0.295295
 Sum of Mulliken charges =   2.00000

 Dipole moment (field-independent basis, Debye):
    X=              0.0000    Y=              0.0000    Z=              0.4216  Tot=              0.4216
 Quadrupole moment (field-independent basis, Debye-Ang):
   XX=            -20.7069   YY=             -8.8921   ZZ=            -12.7177
   XY=              0.0000   XZ=             -0.0000   YZ=             -0.0000

  Exact polarizability:  30.667  -0.000  71.182  -0.000   0.000  46.356
 Approx polarizability:  46.505   0.000 216.562  -0.000   0.000  85.940

                      1                      2                      3
                     A1                     B2                     B1
 Frequencies --    103.5725               153.6632               167.1884
 Red. masses --     10.8580                 6.6393                 6.2480
 Frc consts  --      0.0686                 0.0924                 0.1029
 IR Inten    --      0.9181                22.0064                 1.3680

                      4                      5                      6
                     A2                     B2                     A1
 Frequencies --    242.9930               378.3520               832.7490
 Red. masses --      4.8200                 9.6951                 8.6286
 Frc consts  --      0.1677                 0.8177                 3.5255
 IR Inten    --      0.0000                35.9249                12.1105

                      7                      8                      9
                     A1                     A2                     B1
 Frequencies --    876.5219               883.7737               988.1846
 Red. masses --      9.4528                 1.1751                 1.2302
 Frc consts  --      4.2790                 0.5408                 0.7078
 IR Inten    --     37.0288                 0.0000                 0.2534

                     10                     11                     12
                     B2                     B2                     A1
 Frequencies --   1029.1125              1170.5146              1413.5022
 Red. masses --      1.6813                 3.1529                 1.0757
 Frc consts  --      1.0491                 2.5452                 1.2663
 IR Inten    --    244.5835              1131.2480                 4.5719

                     13                     14                     15
                     A1                     A1                     B1
 Frequencies --   1765.2085              3016.4115              3145.5635
 Red. masses --     11.3354                 1.0453                 1.1274
 Frc consts  --     20.8104                 5.6038                 6.5724
 IR Inten    --    278.9947               142.7620               119.0500

 - Thermochemistry -
 -------------------
 Temperature   298.150 Kelvin.  Pressure   1.00000 Atm.
 Atom     1 has atomic number  6 and mass  12.00000

 Molecular mass:    62.01565 amu.
 Principal axes and moments of inertia in atomic units:
                           1         2         3
     Eigenvalues --   163.84270 345.21060 496.04487
           X            0.00000   0.00000   1.00000
           Y            1.00000   0.00000  -0.00000
           Z           -0.00000   1.00000  -0.00000
 This molecule is an asymmetric top.
 Rotational symmetry number  2.
 Rotational temperatures (Kelvin)      0.52864     0.25090     0.17461
 Rotational constants (GHZ):          11.01508     5.22794     3.63826
 Zero-point vibrational energy      96702.0 (Joules/Mol)
                                   23.11233 (Kcal/Mol)
 Warning -- explicit consideration of   5 degrees of freedom as
           vibrations may cause significant error
 Vibrational temperatures:    149.02   221.09   240.55   349.61   544.36
          (Kelvin)           1198.14  1261.12  1271.55  1421.78  1480.66
                             1684.11  2033.71  2539.74  4339.94  4525.76

 Zero-point correction=                           0.036832 (Hartree/Particle)
 Thermal correction to Energy=                    0.042755
 Thermal correction to Enthalpy=                  0.043700
 Thermal correction to Gibbs Free Energy=         0.008636
 Sum of electronic and zero-point Energies=           -190.409018
 Sum of electronic and thermal Energies=              -190.403095
 Sum of electronic and thermal Enthalpies=            -190.402150
 Sum of electronic and thermal Free Energies=         -190.437214

                     E (Thermal)             CV                S
                      KCal/Mol        Cal/Mol-Kelvin    Cal/Mol-Kelvin
 Total                   26.829             17.726             73.798
 Electronic               0.000              0.000              0.000
 Translational            0.889              2.981             38.294
 Rotational               0.889              2.981             23.466
 Vibrational             25.052             11.764             12.039
 Vibration     1          0.605              1.946              3.386
 Vibration     2          0.619              1.899              2.626
 Vibration     3          0.624              1.883              2.467
 Vibration     4          0.659              1.774              1.781
 Vibration     5          0.749              1.516              1.046

 Normal termination of Gaussian 09 at Tue Jul 19 04:22:42 2016.
