 Gaussian 09, Revision E.01,
 Gaussian 09:  EM64L-G09RevE.01 30-Nov-2015

 ---------------------------------------------
 #p b3lyp/6-311++G(3df,2p) freq symmetry=Loose
 ---------------------------------------------

 ---------
 b3lyp opt
 ---------
 Symbolic Z-matrix:
 Charge =  2 Multiplicity = 3

                         Standard orientation:
 ---------------------------------------------------------------------
 Center     Atomic      Atomic             Coordinates (Angstroms)
 Number     Number       Type             X           Y           Z
 ---------------------------------------------------------------------
      1          6           0        0.691884   -0.047212   -0.001170
      2          6           0       -0.454245    0.867414    0.073349
      3          6           0       -1.437084   -0.129572   -0.193880
      4          6           0       -0.400390   -0.948892    0.264110
      5          6           0        2.100863   -0.026585   -0.140008
      6          1           0       -2.492875   -0.189768   -0.467245
      7          1           0       -0.513290    1.898845    0.452839
 ---------------------------------------------------------------------

 SCF Done:  E(UB3LYP) =  -190.540918516     A.U. after   26 cycles

 The electronic state is 3-A.
 Alpha  occ. eigenvalues --  -10.82212 -10.81746 -10.79694 -10.77676 -10.77196
 Alpha  occ. eigenvalues --   -1.49410  -1.28612  -1.16030  -1.14339  -0.99946
 Alpha  occ. eigenvalues --   -0.97893  -0.96127  -0.92563  -0.81133  -0.80166
 Alpha  occ. eigenvalues --   -0.78636
 Alpha virt. eigenvalues --   -0.62232  -0.58690  -0.58291  -0.46121  -0.34001
 Alpha virt. eigenvalues --   -0.33006  -0.31667  -0.30308  -0.28743  -0.26238
 Alpha virt. eigenvalues --   -0.24941  -0.24180  -0.22774  -0.21641  -0.20978

  Beta  occ. eigenvalues --  -10.80999 -10.80550 -10.79537 -10.77056 -10.76709
  Beta  occ. eigenvalues --   -1.47796  -1.25632  -1.14086  -1.12652  -0.97154
  Beta  occ. eigenvalues --   -0.96065  -0.94946  -0.89646  -0.79479
  Beta virt. eigenvalues --   -0.67665  -0.64638  -0.60468  -0.56054  -0.53339
  Beta virt. eigenvalues --   -0.41537  -0.33016  -0.32301  -0.30942  -0.29738
  Beta virt. eigenvalues --   -0.28218  -0.25826  -0.24273  -0.22928  -0.22068

 Mulliken charges and spin densities:
               1          2
     1  C    0.554322   0.411439
     2  C    0.152068   0.087033
     3  C    0.080487   0.250986
     4  C    0.410654   0.819455
     5  C    0.083761   0.401649
     6  H    0.382804   0.003211
     7  H    0.335904   0.026227
 Sum of Mulliken charges =   2.00000   2.00000

 Dipole moment (field-independent basis, Debye):
    X=             -1.8252    Y=              1.0130    Z=             -0.0558  Tot=              2.0882
 Quadrupole moment (field-independent basis, Debye-Ang):
   XX=             -3.9691   YY=            -14.8173   ZZ=            -22.4724
   XY=             -0.2957   XZ=              0.8648   YZ=              0.9009

  Exact polarizability:  68.232   0.770  38.052  -0.930  -0.068  26.483
 Approx polarizability: 119.239   1.765  71.925   1.545  -2.342  39.101

                      1                      2                      3
                      A                      A                      A
 Frequencies --    185.8533               279.4917               427.8522
 Red. masses --      5.3372                 7.0694                 4.0878
 Frc consts  --      0.1086                 0.3254                 0.4409
 IR Inten    --      2.0360                 1.9401                 1.8197

                      4                      5                      6
                      A                      A                      A
 Frequencies --    591.5694               824.1474               898.8724
 Red. masses --      4.2552                 2.2241                 2.2117
 Frc consts  --      0.8774                 0.8901                 1.0529
 IR Inten    --     10.3761                37.9569                 1.7441

                      7                      8                      9
                      A                      A                      A
 Frequencies --    926.8656               956.8855              1027.6366
 Red. masses --      2.4713                 2.0923                 1.6850
 Frc consts  --      1.2509                 1.1287                 1.0484
 IR Inten    --     23.1175                13.0155                14.9427

                     10                     11                     12
                      A                      A                      A
 Frequencies --   1127.9820              1208.1593              1347.9685
 Red. masses --      1.4480                 2.8558                 5.3507
 Frc consts  --      1.0855                 2.4560                 5.7282
 IR Inten    --     23.1442                52.2821                62.3894

                     13                     14                     15
                      A                      A                      A
 Frequencies --   1455.2690              3034.6071              3135.2512
 Red. masses --     10.6804                 1.0989                 1.1137
 Frc consts  --     13.3267                 5.9622                 6.4502
 IR Inten    --    119.7800               222.9543               257.5671

 - Thermochemistry -
 -------------------
 Temperature   298.150 Kelvin.  Pressure   1.00000 Atm.
 Atom     1 has atomic number  6 and mass  12.00000

 Molecular mass:    62.01565 amu.
 Principal axes and moments of inertia in atomic units:
                           1         2         3
     Eigenvalues --    91.75675 343.73181 421.45355
           X            0.99991  -0.00877   0.00975
           Y            0.00834   0.99904   0.04299
           Z           -0.01012  -0.04291   0.99903
 This molecule is an asymmetric top.
 Rotational symmetry number  1.
 Rotational temperatures (Kelvin)      0.94395     0.25198     0.20551
 Rotational constants (GHZ):          19.66876     5.25043     4.28218
 Zero-point vibrational energy     104245.0 (Joules/Mol)
                                   24.91516 (Kcal/Mol)
 Warning -- explicit consideration of   4 degrees of freedom as
           vibrations may cause significant error
 Vibrational temperatures:    267.40   402.13   615.58   851.14  1185.76
          (Kelvin)           1293.28  1333.55  1376.74  1478.54  1622.91
                             1738.27  1939.42  2093.80  4366.12  4510.92

 Zero-point correction=                           0.039705 (Hartree/Particle)
 Thermal correction to Energy=                    0.044320
 Thermal correction to Enthalpy=                  0.045264
 Thermal correction to Gibbs Free Energy=         0.011770
 Sum of electronic and zero-point Energies=           -190.501214
 Sum of electronic and thermal Energies=              -190.496599
 Sum of electronic and thermal Enthalpies=            -190.495654
 Sum of electronic and thermal Free Energies=         -190.529149

                     E (Thermal)             CV                S
                      KCal/Mol        Cal/Mol-Kelvin    Cal/Mol-Kelvin
 Total                   27.811             15.015             70.495
 Electronic               0.000              0.000              2.183
 Translational            0.889              2.981             38.294
 Rotational               0.889              2.981             24.101
 Vibrational             26.034              9.053              5.917
 Vibration     1          0.632              1.859              2.269
 Vibration     2          0.680              1.712              1.537
 Vibration     3          0.789              1.410              0.866
 Vibration     4          0.949              1.050              0.464

 Optimization completed.
    -- Stationary point found.
 Normal termination of Gaussian 09 at Sun Jun 19 04:27:37 2016.
