 Gaussian 09, Revision E.01,
 Gaussian 09:  EM64L-G09RevE.01 30-Nov-2015

 ---------------------------------------------
 #p b3lyp/6-311++G(3df,2p) freq symmetry=Loose
 ---------------------------------------------

 ---------
 b3lyp opt
 ---------
 Symbolic Z-matrix:
 Charge =  1 Multiplicity = 1

                         Standard orientation:
 ---------------------------------------------------------------------
 Center     Atomic      Atomic             Coordinates (Angstroms)
 Number     Number       Type             X           Y           Z
 ---------------------------------------------------------------------
      1          6           0        0.964430   -0.139083    0.000058
      2          1           0        1.120418    0.969064   -0.000226
      3          1           0       -1.151890    0.716167    0.000316
      4          9           0       -0.639457   -0.094526   -0.000049
 ---------------------------------------------------------------------

 SCF Done:  E(RB3LYP) =  -138.641455503     A.U. after   10 cycles

 The electronic state is 1-A.
 Alpha  occ. eigenvalues --  -25.09723 -10.65796  -1.61421  -1.03828  -0.92361
 Alpha  occ. eigenvalues --   -0.82212  -0.80656  -0.60799
 Alpha virt. eigenvalues --   -0.44423  -0.34519  -0.24987  -0.17178  -0.11244
 Alpha virt. eigenvalues --   -0.10574  -0.07598  -0.07531  -0.06108  -0.02791
 Alpha virt. eigenvalues --   -0.00259   0.00438   0.06309   0.10143   0.11988

 Mulliken charges:
               1
     1  C    0.388055
     2  H    0.236522
     3  H    0.620406
     4  F   -0.244982
 Sum of Mulliken charges =   1.00000

 Dipole moment (field-independent basis, Debye):
    X=             -0.0473    Y=              3.2184    Z=              0.0005  Tot=              3.2188
 Quadrupole moment (field-independent basis, Debye-Ang):
   XX=             -4.1758   YY=             -8.7833   ZZ=             -9.6318
   XY=             -0.4375   XZ=             -0.0015   YZ=              0.0010

  Exact polarizability:  18.404  -0.523  13.239  -0.000  -0.000  11.085
 Approx polarizability:  25.352  -0.433  16.774  -0.000   0.001  16.662

                      1                      2                      3
                      A                      A                      A
 Frequencies --    497.3069               509.0408               843.6476
 Red. masses --      1.1339                 9.9895                 1.0995
 Frc consts  --      0.1652                 1.5251                 0.4611
 IR Inten    --     49.2257               193.2013               113.9384

                      4                      5                      6
                      A                      A                      A
 Frequencies --   1257.9201              2904.3891              3546.8073
 Red. masses --      1.1307                 1.0892                 1.0560
 Frc consts  --      1.0541                 5.4134                 7.8270
 IR Inten    --     46.0368                12.5472               459.8133

 - Thermochemistry -
 -------------------
 Temperature   298.150 Kelvin.  Pressure   1.00000 Atm.
 Atom     1 has atomic number  6 and mass  12.00000

 Molecular mass:    33.01405 amu.
 Principal axes and moments of inertia in atomic units:
                           1         2         3
     Eigenvalues --     6.31369  76.86352  83.17721
           X            0.99993   0.01169  -0.00003
           Y           -0.01169   0.99993   0.00000
           Z            0.00003  -0.00000   1.00000
 This molecule is an asymmetric top.
 Rotational symmetry number  1.
 Rotational temperatures (Kelvin)     13.71841     1.12685     1.04132
 Rotational constants (GHZ):         285.84564    23.47981    21.69754
 Zero-point vibrational energy      57176.2 (Joules/Mol)
                                   13.66544 (Kcal/Mol)
 Warning -- explicit consideration of   2 degrees of freedom as
           vibrations may cause significant error
 Vibrational temperatures:    715.51   732.40  1213.82  1809.86  4178.76
          (Kelvin)           5103.06

 Zero-point correction=                           0.021777 (Hartree/Particle)
 Thermal correction to Energy=                    0.025133
 Thermal correction to Enthalpy=                  0.026078
 Thermal correction to Gibbs Free Energy=        -0.000655
 Sum of electronic and zero-point Energies=           -138.619678
 Sum of electronic and thermal Energies=              -138.616322
 Sum of electronic and thermal Enthalpies=            -138.615378
 Sum of electronic and thermal Free Energies=         -138.642110

                     E (Thermal)             CV                S
                      KCal/Mol        Cal/Mol-Kelvin    Cal/Mol-Kelvin
 Total                   15.771              9.199             56.263
 Electronic               0.000              0.000              0.000
 Translational            0.889              2.981             36.415
 Rotational               0.889              2.981             18.341
 Vibrational             13.994              3.238              1.508
 Vibration     1          0.853              1.256              0.665
 Vibration     2          0.864              1.230              0.636

 Optimization completed.
    -- Stationary point found.
 Normal termination of Gaussian 09 at Sun Jun 19 04:41:30 2016.
