 Gaussian 09, Revision E.01,
 Gaussian 09:  EM64L-G09RevE.01 30-Nov-2015

 ---------------------------------------------
 #p b3lyp/6-311++G(3df,2p) freq symmetry=Loose
 ---------------------------------------------

 ---------
 b3lyp opt
 ---------
 Symbolic Z-matrix:
 Charge =  1 Multiplicity = 1

                         Standard orientation:
 ---------------------------------------------------------------------
 Center     Atomic      Atomic             Coordinates (Angstroms)
 Number     Number       Type             X           Y           Z
 ---------------------------------------------------------------------
      1          1           0       -0.000000   -0.808239   -0.434176
      2          1           0        0.000000    0.808239   -0.434176
      3          9           0        0.000000   -0.000000    0.096482
 ---------------------------------------------------------------------

 SCF Done:  E(RB3LYP) =  -100.677333612     A.U. after    7 cycles

 The electronic state is 1-A1.
 Alpha  occ. eigenvalues --  -25.16829  -1.70265  -1.07686  -0.93940  -0.88167
 Alpha virt. eigenvalues --   -0.33713  -0.24853  -0.10799  -0.08603  -0.08186
 Alpha virt. eigenvalues --   -0.07151   0.02756   0.03012   0.17402   0.18783
 Alpha virt. eigenvalues --    0.29124   0.31895   0.40963   0.58581   0.74344

 Mulliken charges:
               1
     1  H    0.674902
     2  H    0.674902
     3  F   -0.349803
 Sum of Mulliken charges =   1.00000

 Dipole moment (field-independent basis, Debye):
    X=              0.0000    Y=              0.0000    Z=             -2.2777  Tot=              2.2777
 Quadrupole moment (field-independent basis, Debye-Ang):
   XX=             -5.2305   YY=             -0.7346   ZZ=             -3.8490
   XY=              0.0000   XZ=             -0.0000   YZ=             -0.0000

  Exact polarizability:   3.230  -0.000   5.147  -0.000  -0.000   3.872
 Approx polarizability:   3.614   0.000   6.344  -0.000  -0.000   4.762

                      1                      2                      3
                     A1                     B2                     A1
 Frequencies --   1432.1214              3465.8338              3479.5109
 Red. masses --      1.0765                 1.0783                 1.0358
 Frc consts  --      1.3009                 7.6314                 7.3887
 IR Inten    --    273.0532               842.5812               212.5096

 - Thermochemistry -
 -------------------
 Temperature   298.150 Kelvin.  Pressure   1.00000 Atm.
 Atom     1 has atomic number  1 and mass   1.00783

 Molecular mass:    21.01405 amu.
 Principal axes and moments of inertia in atomic units:
                           1         2         3
     Eigenvalues --     1.83253   4.70210   6.53463
           X            0.00000  -0.00000   1.00000
           Y            1.00000   0.00000  -0.00000
           Z           -0.00000   1.00000   0.00000
 This molecule is an asymmetric top.
 Rotational symmetry number  2.
 Rotational temperatures (Kelvin)     47.26470    18.42022    13.25458
 Rotational constants (GHZ):         984.83779   383.81562   276.18104
 Zero-point vibrational energy      50108.4 (Joules/Mol)
                                   11.97619 (Kcal/Mol)
 Vibrational temperatures:   2060.50  4986.56  5006.23
          (Kelvin)

 Zero-point correction=                           0.019085 (Hartree/Particle)
 Thermal correction to Energy=                    0.021924
 Thermal correction to Enthalpy=                  0.022869
 Thermal correction to Gibbs Free Energy=         0.001243
 Sum of electronic and zero-point Energies=           -100.658248
 Sum of electronic and thermal Energies=              -100.655409
 Sum of electronic and thermal Enthalpies=            -100.654465
 Sum of electronic and thermal Free Energies=         -100.676090

                     E (Thermal)             CV                S
                      KCal/Mol        Cal/Mol-Kelvin    Cal/Mol-Kelvin
 Total                   13.758              6.056             45.514
 Electronic               0.000              0.000              0.000
 Translational            0.889              2.981             35.068
 Rotational               0.889              2.981             10.431
 Vibrational             11.980              0.095              0.016

 Optimization completed.
    -- Stationary point found.
 Normal termination of Gaussian 09 at Sun Jun 19 04:42:23 2016.
