 Gaussian 09, Revision E.01,
 Gaussian 09:  EM64L-G09RevE.01 30-Nov-2015

 ---------------------------------------------
 #p b3lyp/6-311++G(3df,2p) freq symmetry=Loose
 ---------------------------------------------

 ---------
 b3lyp opt
 ---------
 Symbolic Z-matrix:
 Charge =  1 Multiplicity = 3

                         Standard orientation:
 ---------------------------------------------------------------------
 Center     Atomic      Atomic             Coordinates (Angstroms)
 Number     Number       Type             X           Y           Z
 ---------------------------------------------------------------------
      1          1           0       -0.000000   -0.000000    1.401140
      2          1           0        0.000000   -0.000000   -1.401140
      3          1           0        0.000000    0.000000    0.000000
 ---------------------------------------------------------------------

 SCF Done:  E(UB3LYP) =  -1.13496968536     A.U. after    7 cycles

 The electronic state is 3-SGU.
 Alpha  occ. eigenvalues --   -0.81441  -0.63995
 Alpha virt. eigenvalues --   -0.39415  -0.13557  -0.10473  -0.06125   0.07843
 Alpha virt. eigenvalues --    0.07843   0.14490   0.16253   0.19283   0.25581
 Alpha virt. eigenvalues --    0.25581   0.28917   0.51335   0.51335   0.71522

 Mulliken charges and spin densities:
               1          2
     1  H    0.307632   0.692368
     2  H    0.307632   0.692368
     3  H    0.384737   0.615263
 Sum of Mulliken charges =   1.00000   2.00000

 Dipole moment (field-independent basis, Debye):
    X=              0.0000    Y=             -0.0000    Z=             -0.0000  Tot=              0.0000
 Quadrupole moment (field-independent basis, Debye-Ang):
   XX=             -2.0475   YY=             -2.0475   ZZ=              4.9157
   XY=             -0.0000   XZ=             -0.0000   YZ=              0.0000

  Exact polarizability:   3.371   0.000   3.371  -0.000   0.000  28.450
 Approx polarizability:   3.063  -0.000   3.063  -0.000   0.000  34.977

                      1                      2                      3
                     PIU                    PIU                    SGG
 Frequencies --    598.3271               598.3271               967.7001
 Red. masses --      1.0078                 1.0078                 1.0078
 Frc consts  --      0.2126                 0.2126                 0.5561
 IR Inten    --      1.9107                 1.9107                 0.0000

                      4
                     SGU
 Frequencies --   1109.5938
 Red. masses --      1.0078
 Frc consts  --      0.7311
 IR Inten    --   1404.8810

 - Thermochemistry -
 -------------------
 Temperature   298.150 Kelvin.  Pressure   1.00000 Atm.
 Atom     1 has atomic number  1 and mass   1.00783

 Molecular mass:     3.02348 amu.
 Principal axes and moments of inertia in atomic units:
                           1         2         3
     Eigenvalues --     0.00000  14.13111  14.13111
           X           -0.00000   0.99966   0.02622
           Y            0.00000  -0.02622   0.99966
           Z            1.00000   0.00000   0.00000
 This molecule is a prolate symmetric top.
 Rotational symmetry number  2.
 Rotational temperature (Kelvin)      6.12930
 Rotational constant (GHZ):         127.714085
 Zero-point vibrational energy      19582.6 (Joules/Mol)
                                    4.68034 (Kcal/Mol)
 Warning -- explicit consideration of   2 degrees of freedom as
           vibrations may cause significant error
 Vibrational temperatures:    860.86   860.86  1392.30  1596.46
          (Kelvin)

 Zero-point correction=                           0.007459 (Hartree/Particle)
 Thermal correction to Energy=                    0.010207
 Thermal correction to Enthalpy=                  0.011151
 Thermal correction to Gibbs Free Energy=        -0.008269
 Sum of electronic and zero-point Energies=             -1.127511
 Sum of electronic and thermal Energies=                -1.124763
 Sum of electronic and thermal Enthalpies=              -1.123819
 Sum of electronic and thermal Free Energies=           -1.143239

                     E (Thermal)             CV                S
                      KCal/Mol        Cal/Mol-Kelvin    Cal/Mol-Kelvin
 Total                    6.405              7.725             40.873
 Electronic               0.000              0.000              2.183
 Translational            0.889              2.981             29.289
 Rotational               0.592              1.987              8.329
 Vibrational              4.923              2.757              1.072
 Vibration     1          0.956              1.035              0.453
 Vibration     2          0.956              1.035              0.453

 Optimization completed.
    -- Stationary point found.
 Normal termination of Gaussian 09 at Sat Jul  2 15:37:44 2016.
