 Gaussian 09, Revision E.01,
 Gaussian 09:  EM64L-G09RevE.01 30-Nov-2015

 ---------------------------------------------
 #p b3lyp/6-311++G(3df,2p) freq symmetry=Loose
 ---------------------------------------------

 ---------
 b3lyp opt
 ---------
 Symbolic Z-matrix:
 Charge =  1 Multiplicity = 1

                         Standard orientation:
 ---------------------------------------------------------------------
 Center     Atomic      Atomic             Coordinates (Angstroms)
 Number     Number       Type             X           Y           Z
 ---------------------------------------------------------------------
      1          1           0       -0.000000    0.507669    0.000000
      2          1           0        0.439654   -0.253834   -0.000000
      3          1           0       -0.439654   -0.253834    0.000000
 ---------------------------------------------------------------------

 SCF Done:  E(RB3LYP) =  -1.34713050540     A.U. after    5 cycles

 The electronic state is 1-A1'.
 Alpha  occ. eigenvalues --   -1.03184
 Alpha virt. eigenvalues --   -0.34207  -0.34207  -0.18306  -0.08190  -0.08190
 Alpha virt. eigenvalues --    0.00654   0.05112   0.19660   0.19660   0.38172
 Alpha virt. eigenvalues --    0.38172   0.50210   0.50210   0.56706   0.89078

 Mulliken charges:
               1
     1  H    0.333333
     2  H    0.333333
     3  H    0.333333
 Sum of Mulliken charges =   1.00000

 Dipole moment (field-independent basis, Debye):
    X=              0.0000    Y=             -0.0000    Z=             -0.0000  Tot=              0.0000
 Quadrupole moment (field-independent basis, Debye-Ang):
   XX=             -0.2377   YY=             -0.2377   ZZ=             -1.4704
   XY=             -0.0000   XZ=             -0.0000   YZ=              0.0000

  Exact polarizability:   3.638  -0.000   3.638  -0.000  -0.000   1.959
 Approx polarizability:   4.383  -0.000   4.383  -0.000   0.000   2.041

                      1                      2                      3
                     E'                     E'                     A1'
 Frequencies --   2707.9482              2707.9482              3395.9979
 Red. masses --      1.0078                 1.0078                 1.0078
 Frc consts  --      4.3543                 4.3543                 6.8481
 IR Inten    --    184.3558               184.3551                 0.0000

 - Thermochemistry -
 -------------------
 Temperature   298.150 Kelvin.  Pressure   1.00000 Atm.
 Atom     1 has atomic number  1 and mass   1.00783

 Molecular mass:     3.02348 amu.
 Principal axes and moments of inertia in atomic units:
                           1         2         3
     Eigenvalues --     1.39135   1.39135   2.78269
           X            0.78626   0.61790   0.00000
           Y           -0.61790   0.78626   0.00000
           Z            0.00000  -0.00000   1.00000
 This molecule is an oblate symmetric top.
 Rotational symmetry number  6.
 Rotational temperatures (Kelvin)     62.25180    62.25180    31.12590
 Rotational constants (GHZ):        1297.11869  1297.11869   648.55935
 Zero-point vibrational energy      52706.8 (Joules/Mol)
                                   12.59724 (Kcal/Mol)
 Vibrational temperatures:   3896.13  3896.13  4886.08
          (Kelvin)

 Zero-point correction=                           0.020075 (Hartree/Particle)
 Thermal correction to Energy=                    0.022908
 Thermal correction to Enthalpy=                  0.023852
 Thermal correction to Gibbs Free Energy=         0.007125
 Sum of electronic and zero-point Energies=             -1.327056
 Sum of electronic and thermal Energies=                -1.324223
 Sum of electronic and thermal Enthalpies=              -1.323279
 Sum of electronic and thermal Free Energies=           -1.340006

                     E (Thermal)             CV                S
                      KCal/Mol        Cal/Mol-Kelvin    Cal/Mol-Kelvin
 Total                   14.375              5.963             35.205
 Electronic               0.000              0.000              0.000
 Translational            0.889              2.981             29.289
 Rotational               0.889              2.981              5.916
 Vibrational             12.597              0.001              0.000

 Optimization completed.
    -- Stationary point found.
 Normal termination of Gaussian 09 at Sun Jun 19 04:43:24 2016.
