 Gaussian 09, Revision E.01,
 Gaussian 09:  EM64L-G09RevE.01 30-Nov-2015

 ---------------------------------------------
 #p b3lyp/6-311++G(3df,2p) freq symmetry=Loose
 ---------------------------------------------

 ---------
 b3lyp opt
 ---------
 Symbolic Z-matrix:
 Charge =  1 Multiplicity = 3

                         Standard orientation:
 ---------------------------------------------------------------------
 Center     Atomic      Atomic             Coordinates (Angstroms)
 Number     Number       Type             X           Y           Z
 ---------------------------------------------------------------------
      1          6           0        0.102218   -0.001570   -0.119194
      2          1           0        1.080312    0.003867    0.352192
      3          1           0       -0.845648    0.641919    0.178754
      4          1           0       -0.847973   -0.636368    0.184218
 ---------------------------------------------------------------------

 SCF Done:  E(UB3LYP) =  -39.3619258311     A.U. after   10 cycles

 The electronic state is 3-A.
 Alpha  occ. eigenvalues --  -10.61214  -1.09897  -0.83316  -0.72302  -0.63412
 Alpha virt. eigenvalues --   -0.25805  -0.23632  -0.15466  -0.13775  -0.11960
 Alpha virt. eigenvalues --   -0.11420  -0.08905  -0.05450  -0.03778  -0.01942
 Alpha virt. eigenvalues --    0.02363   0.03284   0.11100   0.11192   0.13620

  Beta  occ. eigenvalues --  -10.58511  -1.01278  -0.80442
  Beta virt. eigenvalues --   -0.54622  -0.42590  -0.23425  -0.17843  -0.14702
  Beta virt. eigenvalues --   -0.12571  -0.11085  -0.09473  -0.07753  -0.04875
  Beta virt. eigenvalues --   -0.02370  -0.01338   0.05388   0.06084   0.12322

 Mulliken charges and spin densities:
               1          2
     1  C    0.089934   1.606839
     2  H    0.281617  -0.009807
     3  H    0.314504   0.202942
     4  H    0.313946   0.200025
 Sum of Mulliken charges =   1.00000   2.00000

 Dipole moment (field-independent basis, Debye):
    X=             -1.3230    Y=              0.0113    Z=              0.8318  Tot=              1.5628
 Quadrupole moment (field-independent basis, Debye-Ang):
   XX=             -2.0878   YY=             -4.6556   ZZ=             -6.3945
   XY=             -0.0033   XZ=             -0.0891   YZ=             -0.0029

  Exact polarizability:  12.678  -0.006  10.692  -0.324  -0.003   8.944
 Approx polarizability:  15.652  -0.013  13.950  -0.791  -0.004  10.612

                      1                      2                      3
                      A                      A                      A
 Frequencies --    797.8693               803.9145              1253.7024
 Red. masses --      1.1230                 1.1738                 1.0428
 Frc consts  --      0.4212                 0.4470                 0.9657
 IR Inten    --     63.3206                75.3392                16.8202

                      4                      5                      6
                      A                      A                      A
 Frequencies --   2113.4882              2536.2163              3206.2686
 Red. masses --      1.0339                 1.0815                 1.1070
 Frc consts  --      2.7209                 4.0987                 6.7051
 IR Inten    --    217.2158                54.7799               131.4004

 - Thermochemistry -
 -------------------
 Temperature   298.150 Kelvin.  Pressure   1.00000 Atm.
 Atom     1 has atomic number  6 and mass  12.00000

 Molecular mass:    15.02348 amu.
 Principal axes and moments of inertia in atomic units:
                           1         2         3
     Eigenvalues --     4.11045  10.89436  12.66514
           X            0.99983   0.00033   0.01828
           Y           -0.00031   1.00000  -0.00133
           Z           -0.01828   0.00133   0.99983
 This molecule is an asymmetric top.
 Rotational symmetry number  1.
 Rotational temperatures (Kelvin)     21.07164     7.95034     6.83875
 Rotational constants (GHZ):         439.06217   165.65834   142.49669
 Zero-point vibrational energy      64068.8 (Joules/Mol)
                                   15.31280 (Kcal/Mol)
 Vibrational temperatures:   1147.95  1156.65  1803.80  3040.83  3649.04
          (Kelvin)           4613.10

 Zero-point correction=                           0.024402 (Hartree/Particle)
 Thermal correction to Energy=                    0.027405
 Thermal correction to Enthalpy=                  0.028349
 Thermal correction to Gibbs Free Energy=         0.004212
 Sum of electronic and zero-point Energies=            -39.337523
 Sum of electronic and thermal Energies=               -39.334521
 Sum of electronic and thermal Enthalpies=             -39.333576
 Sum of electronic and thermal Free Energies=          -39.357714

                     E (Thermal)             CV                S
                      KCal/Mol        Cal/Mol-Kelvin    Cal/Mol-Kelvin
 Total                   17.197              7.442             50.801
 Electronic               0.000              0.000              2.183
 Translational            0.889              2.981             34.068
 Rotational               0.889              2.981             14.103
 Vibrational             15.420              1.480              0.447

 Normal termination of Gaussian 09 at Sun Jun 19 04:42:52 2016.
