 Gaussian 09, Revision E.01,
 Gaussian 09:  EM64L-G09RevE.01 30-Nov-2015

 ------------------------------
 #p b3lyp/6-311++G(3df,2p) freq
 ------------------------------

 ---------
 b3lyp opt
 ---------
 Symbolic Z-matrix:
 Charge =  2 Multiplicity = 2

                         Standard orientation:
 ---------------------------------------------------------------------
 Center     Atomic      Atomic             Coordinates (Angstroms)
 Number     Number       Type             X           Y           Z
 ---------------------------------------------------------------------
      1          6           0       -0.000000   -0.000000    0.139163
      2          1           0        0.000000   -1.117050    0.374429
      3          1           0        0.000000    0.000000   -1.583834
      4          1           0        0.000000    1.117050    0.374429
 ---------------------------------------------------------------------

 SCF Done:  E(UB3LYP) =  -38.6243616699     A.U. after    9 cycles

 The electronic state is 2-A1.
 Alpha  occ. eigenvalues --  -11.07066  -1.37650  -1.15541  -1.05490
 Alpha virt. eigenvalues --   -0.83160  -0.72943  -0.52758  -0.38881  -0.34888
 Alpha virt. eigenvalues --   -0.33917  -0.31723  -0.30455  -0.24778  -0.24056
 Alpha virt. eigenvalues --   -0.23151  -0.18967  -0.17975  -0.10125  -0.09635

  Beta  occ. eigenvalues --  -11.06084  -1.33623  -1.14549
  Beta virt. eigenvalues --   -0.87856  -0.81892  -0.61068  -0.51266  -0.38479
  Beta virt. eigenvalues --   -0.33454  -0.33296  -0.31090  -0.28973  -0.24835
  Beta virt. eigenvalues --   -0.22053  -0.21773  -0.18573  -0.17886  -0.09648

 Mulliken charges and spin densities:
               1          2
     1  C    0.549731   0.620529
     2  H    0.419243   0.012277
     3  H    0.611783   0.354918
     4  H    0.419243   0.012277
 Sum of Mulliken charges =   2.00000   1.00000

 Dipole moment (field-independent basis, Debye):
    X=              0.0000    Y=              0.0000    Z=             -2.6497  Tot=              2.6497
 Quadrupole moment (field-independent basis, Debye-Ang):
   XX=             -4.2387   YY=             -0.1380   ZZ=              3.7424
   XY=              0.0000   XZ=              0.0000   YZ=              0.0000

  Exact polarizability:   6.333   0.000   9.378   0.000  -0.000  16.168
 Approx polarizability:   8.389   0.000  11.081   0.000  -0.000  19.590

                      1                      2                      3
                     A1                     B2                     A1
 Frequencies --    449.7743               560.6825              1016.2986
 Red. masses --      1.0549                 1.0567                 1.1659
 Frc consts  --      0.1257                 0.1957                 0.7095
 IR Inten    --    587.8787               155.6112                43.0834

                      4                      5                      6
                     B1                     A1                     B2
 Frequencies --   1136.9159              2573.2594              2752.1718
 Red. masses --      1.1976                 1.0120                 1.1505
 Frc consts  --      0.9120                 3.9483                 5.1343
 IR Inten    --     78.3581               101.6608               700.8634

 - Thermochemistry -
 -------------------
 Temperature   298.150 Kelvin.  Pressure   1.00000 Atm.
 Atom     1 has atomic number  6 and mass  12.00000

 Molecular mass:    15.02348 amu.
 Principal axes and moments of inertia in atomic units:
                           1         2         3
     Eigenvalues --     8.98169  10.70412  19.68581
           X            0.00000  -0.00000   1.00000
           Y            0.00000   1.00000   0.00000
           Z            1.00000   0.00000   0.00000
 This molecule is an asymmetric top.
 Rotational symmetry number  2.
 Rotational temperatures (Kelvin)      9.64337     8.09163     4.39981
 Rotational constants (GHZ):         200.93551   168.60247    91.67724
 Zero-point vibrational energy      50776.1 (Joules/Mol)
                                   12.13578 (Kcal/Mol)
 Warning -- explicit consideration of   2 degrees of freedom as
           vibrations may cause significant error
 Vibrational temperatures:    647.12   806.70  1462.23  1635.77  3702.34
          (Kelvin)           3959.76

 Zero-point correction=                           0.019340 (Hartree/Particle)
 Thermal correction to Energy=                    0.022675
 Thermal correction to Enthalpy=                  0.023619
 Thermal correction to Gibbs Free Energy=        -0.000531
 Sum of electronic and zero-point Energies=            -38.605022
 Sum of electronic and thermal Energies=               -38.601686
 Sum of electronic and thermal Enthalpies=             -38.600742
 Sum of electronic and thermal Free Energies=          -38.624892

                     E (Thermal)             CV                S
                      KCal/Mol        Cal/Mol-Kelvin    Cal/Mol-Kelvin
 Total                   14.229              9.051             50.828
 Electronic               0.000              0.000              1.377
 Translational            0.889              2.981             34.068
 Rotational               0.889              2.981             13.923
 Vibrational             12.452              3.089              1.460
 Vibration     1          0.809              1.361              0.796
 Vibration     2          0.916              1.116              0.522

 Optimization completed.
    -- Stationary point found.
 Normal termination of Gaussian 09 at Thu Jul  7 22:47:31 2016.
