 Gaussian 09, Revision E.01,
 Gaussian 09:  EM64L-G09RevE.01 30-Nov-2015

 ---------------------------------------------
 #p b3lyp/6-311++G(3df,2p) freq symmetry=Loose
 ---------------------------------------------

 ---------
 b3lyp opt
 ---------
 Symbolic Z-matrix:
 Charge =  0 Multiplicity = 4

                         Standard orientation:
 ---------------------------------------------------------------------
 Center     Atomic      Atomic             Coordinates (Angstroms)
 Number     Number       Type             X           Y           Z
 ---------------------------------------------------------------------
      1          6           0        0.000000    0.000000   -0.521648
      2          6           0       -0.000000   -0.000000    0.971869
      3          1           0        0.000000    1.026442   -0.900442
      4          1           0       -0.888925   -0.513221   -0.900442
      5          1           0        0.888925   -0.513221   -0.900442
 ---------------------------------------------------------------------

 SCF Done:  E(UB3LYP) =  -77.7998390955     A.U. after   11 cycles

 The electronic state is 4-A1.
 Alpha  occ. eigenvalues --  -10.23100 -10.20779  -0.77878  -0.57314  -0.44616
 Alpha  occ. eigenvalues --   -0.44616  -0.36213  -0.22259  -0.22259
 Alpha virt. eigenvalues --   -0.00544   0.03120   0.03120   0.04109   0.08368
 Alpha virt. eigenvalues --    0.09720   0.09720   0.09794   0.09794   0.12236
 Alpha virt. eigenvalues --    0.15014   0.17080   0.17080   0.23542   0.28059

  Beta  occ. eigenvalues --  -10.20507 -10.18784  -0.74335  -0.48357  -0.42823
  Beta  occ. eigenvalues --   -0.42823
  Beta virt. eigenvalues --   -0.15869  -0.03590  -0.03590  -0.00176   0.03205
  Beta virt. eigenvalues --    0.03205   0.05157   0.08910   0.09822   0.09822
  Beta virt. eigenvalues --    0.12029   0.12029   0.12630   0.16133   0.17726

 Mulliken charges and spin densities:
               1          2
     1  C   -0.231975   0.010990
     2  C   -0.238843   2.829585
     3  H    0.156940   0.053142
     4  H    0.156940   0.053142
     5  H    0.156940   0.053142
 Sum of Mulliken charges =  -0.00000   3.00000

 Dipole moment (field-independent basis, Debye):
    X=             -0.0000    Y=              0.0000    Z=             -1.3368  Tot=              1.3368
 Quadrupole moment (field-independent basis, Debye-Ang):
   XX=            -13.6529   YY=            -13.6529   ZZ=            -13.9112
   XY=             -0.0000   XZ=              0.0000   YZ=             -0.0000

  Exact polarizability:  23.221  -0.000  23.223  -0.000  -0.000  31.083
 Approx polarizability:  29.141  -0.000  29.141   0.000   0.000  38.002

                      1                      2                      3
                     A1                      E                      E
 Frequencies --    979.3558              1008.2269              1008.2289
 Red. masses --      9.7734                 1.2695                 1.2695
 Frc consts  --      5.5230                 0.7603                 0.7603
 IR Inten    --     25.8390                 7.5249                 7.5245

                      4                      5                      6
                     A1                      E                      E
 Frequencies --   1355.0527              1447.9064              1447.9068
 Red. masses --      1.1237                 1.0506                 1.0506
 Frc consts  --      1.2157                 1.2977                 1.2977
 IR Inten    --      3.3164                 3.1707                 3.1706

                      7                      8                      9
                     A1                      E                      E
 Frequencies --   2972.3380              3036.9963              3036.9963
 Red. masses --      1.0268                 1.1022                 1.1022
 Frc consts  --      5.3449                 5.9897                 5.9897
 IR Inten    --     21.6531                 7.9405                 7.9422

 - Thermochemistry -
 -------------------
 Temperature   298.150 Kelvin.  Pressure   1.00000 Atm.
 Atom     1 has atomic number  6 and mass  12.00000

 Molecular mass:    27.02348 amu.
 Principal axes and moments of inertia in atomic units:
                           1         2         3
     Eigenvalues --    11.37557  65.62934  65.62934
           X            0.00000  -0.06652   0.99779
           Y            0.00000   0.99779   0.06652
           Z            1.00000  -0.00000   0.00000
 This molecule is a prolate symmetric top.
 Rotational symmetry number  3.
 Rotational temperatures (Kelvin)      7.61402     1.31974     1.31974
 Rotational constants (GHZ):         158.65068    27.49900    27.49900
 Zero-point vibrational energy      97453.8 (Joules/Mol)
                                   23.29202 (Kcal/Mol)
 Vibrational temperatures:   1409.07  1450.61  1450.61  1949.62  2083.21
          (Kelvin)           2083.21  4276.53  4369.55  4369.55

 Zero-point correction=                           0.037118 (Hartree/Particle)
 Thermal correction to Energy=                    0.040083
 Thermal correction to Enthalpy=                  0.041027
 Thermal correction to Gibbs Free Energy=         0.014773
 Sum of electronic and zero-point Energies=            -77.762721
 Sum of electronic and thermal Energies=               -77.759756
 Sum of electronic and thermal Enthalpies=             -77.758812
 Sum of electronic and thermal Free Energies=          -77.785066

                     E (Thermal)             CV                S
                      KCal/Mol        Cal/Mol-Kelvin    Cal/Mol-Kelvin
 Total                   25.153              7.402             55.257
 Electronic               0.000              0.000              2.755
 Translational            0.889              2.981             35.818
 Rotational               0.889              2.981             16.350
 Vibrational             23.375              1.440              0.334

 Optimization completed.
    -- Stationary point found.
 Normal termination of Gaussian 09 at Tue Jul 19 09:20:52 2016.
