 Gaussian 09, Revision E.01,
 Gaussian 09:  EM64L-G09RevE.01 30-Nov-2015

 ---------------------------------------------
 #p b3lyp/6-311++G(3df,2p) freq symmetry=Loose
 ---------------------------------------------

 ---------
 b3lyp opt
 ---------
 Symbolic Z-matrix:
 Charge =  3 Multiplicity = 1

                         Standard orientation:
 ---------------------------------------------------------------------
 Center     Atomic      Atomic             Coordinates (Angstroms)
 Number     Number       Type             X           Y           Z
 ---------------------------------------------------------------------
      1          6           0       -0.000000   -0.000000   -0.748084
      2          1           0        0.000000    1.056187   -1.329281
      3          1           0       -0.000000   -1.056187   -1.329281
      4          6           0        0.000000    0.000000    0.841464
      5          1           0        0.000000    0.000000    2.098278
 ---------------------------------------------------------------------

 SCF Done:  E(RB3LYP) =  -75.8069777814     A.U. after   11 cycles

 The electronic state is 1-A1.
 Alpha  occ. eigenvalues --  -11.42618 -11.27347  -1.70836  -1.50312  -1.37482
 Alpha  occ. eigenvalues --   -1.32767
 Alpha virt. eigenvalues --   -1.15740  -1.09750  -0.98715  -0.86640  -0.67524
 Alpha virt. eigenvalues --   -0.64660  -0.63202  -0.56588  -0.49324  -0.49137
 Alpha virt. eigenvalues --   -0.48625  -0.48145  -0.44605  -0.42671  -0.38950

 Mulliken charges:
               1
     1  C    0.444041
     2  H    0.438448
     3  H    0.438448
     4  C    1.074507
     5  H    0.604557
 Sum of Mulliken charges =   3.00000

 Dipole moment (field-independent basis, Debye):
    X=             -0.0000    Y=             -0.0000    Z=              1.7143  Tot=              1.7143
 Quadrupole moment (field-independent basis, Debye-Ang):
   XX=             -6.7172   YY=             -3.0083   ZZ=             15.9637
   XY=              0.0000   XZ=              0.0000   YZ=             -0.0000

  Exact polarizability:   9.407  -0.000  12.606   0.000  -0.000  24.999
 Approx polarizability:  13.747   0.000  17.306   0.000   0.000  41.149

                      1                      2                      3
                     A1                     B2                     B1
 Frequencies --    538.4206               543.7919               677.3564
 Red. masses --      6.0880                 1.0594                 1.1488
 Frc consts  --      1.0398                 0.1846                 0.3105
 IR Inten    --    286.8609               112.4067                94.5570

                      4                      5                      6
                     B2                     B1                     A1
 Frequencies --    919.9651              1026.6747              1068.3978
 Red. masses --      1.4474                 1.4328                 1.0861
 Frc consts  --      0.7217                 0.8898                 0.7304
 IR Inten    --     39.6552                27.9032                88.2717

                      7                      8                      9
                     A1                     A1                     B2
 Frequencies --   1745.1402              2058.6921              2104.6726
 Red. masses --      1.1204                 1.0196                 1.1451
 Frc consts  --      2.0104                 2.5460                 2.9885
 IR Inten    --   1755.4027               595.2350               944.0535

 - Thermochemistry -
 -------------------
 Temperature   298.150 Kelvin.  Pressure   1.00000 Atm.
 Atom     1 has atomic number  6 and mass  12.00000

 Molecular mass:    27.02348 amu.
 Principal axes and moments of inertia in atomic units:
                           1         2         3
     Eigenvalues --     8.02961  82.84768  90.87729
           X            0.00000   0.00000   1.00000
           Y            0.00000   1.00000  -0.00000
           Z            1.00000  -0.00000  -0.00000
 This molecule is an asymmetric top.
 Rotational symmetry number  2.
 Rotational temperatures (Kelvin)     10.78680     1.04546     0.95309
 Rotational constants (GHZ):         224.76072    21.78385    19.85910
 Zero-point vibrational energy      63899.2 (Joules/Mol)
                                   15.27227 (Kcal/Mol)
 Warning -- explicit consideration of   2 degrees of freedom as
           vibrations may cause significant error
 Vibrational temperatures:    774.67   782.39   974.56  1323.62  1477.15
          (Kelvin)           1537.18  2510.86  2962.00  3028.15

 Zero-point correction=                           0.024338 (Hartree/Particle)
 Thermal correction to Energy=                    0.027798
 Thermal correction to Enthalpy=                  0.028742
 Thermal correction to Gibbs Free Energy=         0.002642
 Sum of electronic and zero-point Energies=            -75.782640
 Sum of electronic and thermal Energies=               -75.779180
 Sum of electronic and thermal Enthalpies=             -75.778236
 Sum of electronic and thermal Free Energies=          -75.804336

                     E (Thermal)             CV                S
                      KCal/Mol        Cal/Mol-Kelvin    Cal/Mol-Kelvin
 Total                   17.443             10.332             54.932
 Electronic               0.000              0.000              0.000
 Translational            0.889              2.981             35.818
 Rotational               0.889              2.981             17.365
 Vibrational             15.666              4.370              1.750
 Vibration     1          0.893              1.165              0.569
 Vibration     2          0.899              1.153              0.557

 Optimization completed.
    -- Stationary point found.
 Normal termination of Gaussian 09 at Tue Jul 19 11:28:45 2016.
