 Gaussian 09, Revision E.01,
 Gaussian 09:  EM64L-G09RevE.01 30-Nov-2015

 ---------------------------------------------
 #p b3lyp/6-311++G(3df,2p) freq symmetry=Loose
 ---------------------------------------------

 ---------
 b3lyp opt
 ---------
 Symbolic Z-matrix:
 Charge =  1 Multiplicity = 1

                         Standard orientation:
 ---------------------------------------------------------------------
 Center     Atomic      Atomic             Coordinates (Angstroms)
 Number     Number       Type             X           Y           Z
 ---------------------------------------------------------------------
      1          6           0       -0.000192   -0.579293    0.000000
      2          1           0        0.938849   -1.152690    0.000000
      3          1           0       -0.937035   -1.156129    0.000000
      4          6           0       -0.000192    0.671937    0.000000
      5          1           0        0.000489    1.752959    0.000000
 ---------------------------------------------------------------------

 SCF Done:  E(RB3LYP) =  -77.6139648899     A.U. after    9 cycles

 The electronic state is 1-A'.
 Alpha  occ. eigenvalues --  -10.57444 -10.49163  -1.10318  -0.88758  -0.78310
 Alpha  occ. eigenvalues --   -0.75000  -0.61317
 Alpha virt. eigenvalues --   -0.41664  -0.28671  -0.18116  -0.16736  -0.13791
 Alpha virt. eigenvalues --   -0.11483  -0.10989  -0.08345  -0.06156  -0.04756
 Alpha virt. eigenvalues --   -0.04343  -0.02293  -0.00880  -0.00364   0.01110

 Mulliken charges:
               1
     1  C   -0.286034
     2  H    0.259961
     3  H    0.260179
     4  C    0.361067
     5  H    0.404827
 Sum of Mulliken charges =   1.00000

 Dipole moment (field-independent basis, Debye):
    X=              0.0018    Y=              0.5463    Z=              0.0000  Tot=              0.5463
 Quadrupole moment (field-independent basis, Debye-Ang):
   XX=             -8.0234   YY=             -2.3010   ZZ=            -12.2113
   XY=              0.0023   XZ=              0.0000   YZ=              0.0000

  Exact polarizability:  15.387  -0.001  25.665   0.000  -0.000  13.624
 Approx polarizability:  21.653  -0.012  45.256  -0.000  -0.000  17.465

                      1                      2                      3
                     A'                     A"                     A"
 Frequencies --    282.2315               656.4992               851.4737
 Red. masses --      1.1368                 1.3382                 1.2680
 Frc consts  --      0.0534                 0.3398                 0.5417
 IR Inten    --     38.2779                53.8552                99.6123

                      4                      5                      6
                     A'                     A'                     A'
 Frequencies --   1080.8785              1178.2023              1776.1095
 Red. masses --      1.4592                 1.0577                 5.0633
 Frc consts  --      1.0044                 0.8651                 9.4108
 IR Inten    --      1.1812                89.5864                54.1609

                      7                      8                      9
                     A'                     A'                     A'
 Frequencies --   2996.3596              3043.1845              3284.2341
 Red. masses --      1.0628                 1.1056                 1.1435
 Frc consts  --      5.6219                 6.0325                 7.2672
 IR Inten    --    286.8800               207.0630               120.6377

 - Thermochemistry -
 -------------------
 Temperature   298.150 Kelvin.  Pressure   1.00000 Atm.
 Atom     1 has atomic number  6 and mass  12.00000

 Molecular mass:    27.02348 amu.
 Principal axes and moments of inertia in atomic units:
                           1         2         3
     Eigenvalues --     6.33236  54.34017  60.67252
           X            0.00014   1.00000   0.00000
           Y            1.00000  -0.00014   0.00000
           Z            0.00000  -0.00000   1.00000
 This molecule is an asymmetric top.
 Rotational symmetry number  1.
 Rotational temperatures (Kelvin)     13.67797     1.59392     1.42756
 Rotational constants (GHZ):         285.00306    33.21192    29.74561
 Zero-point vibrational energy      90612.2 (Joules/Mol)
                                   21.65683 (Kcal/Mol)
 Warning -- explicit consideration of   1 degrees of freedom as
           vibrations may cause significant error
 Vibrational temperatures:    406.07   944.55  1225.08  1555.14  1695.17
          (Kelvin)           2555.42  4311.09  4378.46  4725.27

 Zero-point correction=                           0.034512 (Hartree/Particle)
 Thermal correction to Energy=                    0.038031
 Thermal correction to Enthalpy=                  0.038975
 Thermal correction to Gibbs Free Energy=         0.012524
 Sum of electronic and zero-point Energies=            -77.579453
 Sum of electronic and thermal Energies=               -77.575934
 Sum of electronic and thermal Enthalpies=             -77.574990
 Sum of electronic and thermal Free Energies=          -77.601441

                     E (Thermal)             CV                S
                      KCal/Mol        Cal/Mol-Kelvin    Cal/Mol-Kelvin
 Total                   23.865              9.697             55.671
 Electronic               0.000              0.000              0.000
 Translational            0.889              2.981             35.818
 Rotational               0.889              2.981             17.686
 Vibrational             22.087              3.735              2.168
 Vibration     1          0.681              1.707              1.520

 Normal termination of Gaussian 09 at Sun Jun 19 05:31:56 2016.
