 Gaussian 09, Revision E.01,
 Gaussian 09:  EM64L-G09RevE.01 30-Nov-2015

 ---------------------------------------------
 #p b3lyp/6-311++G(3df,2p) freq symmetry=Loose
 ---------------------------------------------

 ---------
 b3lyp opt
 ---------
 Symbolic Z-matrix:
 Charge =  2 Multiplicity = 2

                         Standard orientation:
 ---------------------------------------------------------------------
 Center     Atomic      Atomic             Coordinates (Angstroms)
 Number     Number       Type             X           Y           Z
 ---------------------------------------------------------------------
      1          6           0        0.000042   -0.619589   -0.000000
      2          1           0       -0.965549   -1.224304   -0.000000
      3          1           0        0.965136   -1.224607   -0.000000
      4          6           0        0.000042    0.720312    0.000000
      5          1           0       -0.000097    1.844569    0.000000
 ---------------------------------------------------------------------

 SCF Done:  E(UB3LYP) =  -76.8891371090     A.U. after   12 cycles

 The electronic state is 2-A".
 Alpha  occ. eigenvalues --  -10.99431 -10.89827  -1.46406  -1.21307  -1.10898
 Alpha  occ. eigenvalues --   -1.06330  -0.98541
 Alpha virt. eigenvalues --   -0.76074  -0.66906  -0.46903  -0.40312  -0.36562
 Alpha virt. eigenvalues --   -0.34519  -0.30447  -0.30329  -0.26948  -0.26207
 Alpha virt. eigenvalues --   -0.24215  -0.22824  -0.21966  -0.17866  -0.15479

  Beta  occ. eigenvalues --  -10.98311 -10.89213  -1.42378  -1.19585  -1.10190
  Beta  occ. eigenvalues --   -1.05799
  Beta virt. eigenvalues --   -0.83150  -0.74738  -0.59735  -0.45405  -0.39896
  Beta virt. eigenvalues --   -0.36402  -0.33758  -0.30077  -0.29486  -0.26320
  Beta virt. eigenvalues --   -0.26035  -0.23119  -0.22063  -0.22015  -0.17607

 Mulliken charges and spin densities:
               1          2
     1  C    0.074684   0.388349
     2  H    0.355170  -0.014224
     3  H    0.355173  -0.014208
     4  C    0.704857   0.654891
     5  H    0.510116  -0.014807
 Sum of Mulliken charges =   2.00000   1.00000

 Dipole moment (field-independent basis, Debye):
    X=             -0.0008    Y=              0.5815    Z=              0.0000  Tot=              0.5816
 Quadrupole moment (field-independent basis, Debye-Ang):
   XX=             -5.5550   YY=              4.7643   ZZ=             -8.9711
   XY=              0.0007   XZ=              0.0000   YZ=              0.0000

  Exact polarizability:  12.920   0.002  23.133  -0.000  -0.000  10.128
 Approx polarizability:  17.845   0.005  37.754   0.000   0.000  13.539

                      1                      2                      3
                     A'                     A"                     A"
 Frequencies --    459.7235               626.2433               890.5341
 Red. masses --      1.1107                 1.2058                 1.4036
 Frc consts  --      0.1383                 0.2786                 0.6558
 IR Inten    --     67.9242                55.9428                41.6357

                      4                      5                      6
                     A'                     A'                     A'
 Frequencies --   1020.0455              1132.4862              1408.8816
 Red. masses --      1.4807                 1.0613                 5.7388
 Frc consts  --      0.9077                 0.8020                 6.7116
 IR Inten    --      5.1684               167.7017                78.0701

                      7                      8                      9
                     A'                     A'                     A'
 Frequencies --   2631.5517              2661.6645              2865.9069
 Red. masses --      1.0454                 1.1078                 1.1296
 Frc consts  --      4.2655                 4.6240                 5.4663
 IR Inten    --    729.2250               524.8788               338.8519

 - Thermochemistry -
 -------------------
 Temperature   298.150 Kelvin.  Pressure   1.00000 Atm.
 Atom     1 has atomic number  6 and mass  12.00000

 Molecular mass:    27.02348 amu.
 Principal axes and moments of inertia in atomic units:
                           1         2         3
     Eigenvalues --     6.70773  61.67472  68.38245
           X            0.00000   1.00000   0.00000
           Y            1.00000  -0.00000   0.00000
           Z            0.00000   0.00000   1.00000
 This molecule is an asymmetric top.
 Rotational symmetry number  1.
 Rotational temperatures (Kelvin)     12.91253     1.40436     1.26661
 Rotational constants (GHZ):         269.05381    29.26225    26.39188
 Zero-point vibrational energy      81926.5 (Joules/Mol)
                                   19.58090 (Kcal/Mol)
 Warning -- explicit consideration of   1 degrees of freedom as
           vibrations may cause significant error
 Vibrational temperatures:    661.44   901.02  1281.28  1467.62  1629.39
          (Kelvin)           2027.06  3786.21  3829.54  4123.40

 Zero-point correction=                           0.031204 (Hartree/Particle)
 Thermal correction to Energy=                    0.034558
 Thermal correction to Enthalpy=                  0.035502
 Thermal correction to Gibbs Free Energy=         0.008581
 Sum of electronic and zero-point Energies=            -76.857933
 Sum of electronic and thermal Energies=               -76.854579
 Sum of electronic and thermal Enthalpies=             -76.853635
 Sum of electronic and thermal Free Energies=          -76.880556

                     E (Thermal)             CV                S
                      KCal/Mol        Cal/Mol-Kelvin    Cal/Mol-Kelvin
 Total                   21.685              9.505             56.660
 Electronic               0.000              0.000              1.377
 Translational            0.889              2.981             35.818
 Rotational               0.889              2.981             17.988
 Vibrational             19.908              3.543              1.477
 Vibration     1          0.818              1.339              0.767

 Optimization completed.
    -- Stationary point found.
 Normal termination of Gaussian 09 at Sun Jun 19 05:32:47 2016.
