 Gaussian 09, Revision E.01,
 Gaussian 09:  EM64L-G09RevE.01 30-Nov-2015

 ---------------------------------------------
 #p b3lyp/6-311++G(3df,2p) freq symmetry=Loose
 ---------------------------------------------

 ---------
 b3lyp opt
 ---------
 Symbolic Z-matrix:
 Charge =  1 Multiplicity = 3

                         Standard orientation:
 ---------------------------------------------------------------------
 Center     Atomic      Atomic             Coordinates (Angstroms)
 Number     Number       Type             X           Y           Z
 ---------------------------------------------------------------------
      1          6           0        0.048155   -0.626942    0.000000
      2          1           0       -0.887042   -1.192642    0.000000
      3          1           0        0.986731   -1.180130    0.000000
      4          6           0        0.048155    0.760816    0.000000
      5          1           0       -0.677544    1.569524    0.000000
 ---------------------------------------------------------------------

 SCF Done:  E(UB3LYP) =  -77.5445295336     A.U. after   11 cycles

 The electronic state is 3-A".
 Alpha  occ. eigenvalues --  -10.56889 -10.55358  -1.11149  -0.89981  -0.78209
 Alpha  occ. eigenvalues --   -0.74990  -0.63854  -0.56437
 Alpha virt. eigenvalues --   -0.35685  -0.18062  -0.16735  -0.13625  -0.11289
 Alpha virt. eigenvalues --   -0.10240  -0.09131  -0.07317  -0.05635  -0.05129
 Alpha virt. eigenvalues --   -0.02673  -0.02411  -0.00965  -0.00029   0.01122

  Beta  occ. eigenvalues --  -10.54604 -10.54520  -1.05753  -0.86197  -0.75918
  Beta  occ. eigenvalues --   -0.72886
  Beta virt. eigenvalues --   -0.49136  -0.37949  -0.28047  -0.17573  -0.15641
  Beta virt. eigenvalues --   -0.13106  -0.10382  -0.09768  -0.08388  -0.05932
  Beta virt. eigenvalues --   -0.04510  -0.04294  -0.02272  -0.01514  -0.00869

 Mulliken charges and spin densities:
               1          2
     1  C    0.122585   0.471453
     2  H    0.234860   0.044639
     3  H    0.242857   0.019878
     4  C    0.116571   1.452940
     5  H    0.283126   0.011089
 Sum of Mulliken charges =   1.00000   2.00000

 Dipole moment (field-independent basis, Debye):
    X=             -0.5759    Y=             -0.2785    Z=              0.0000  Tot=              0.6397
 Quadrupole moment (field-independent basis, Debye-Ang):
   XX=             -8.9886   YY=             -4.7031   ZZ=            -10.6078
   XY=             -1.5510   XZ=              0.0000   YZ=              0.0000

  Exact polarizability:  16.453  -0.892  26.053  -0.000   0.000  13.103
 Approx polarizability:  20.646  -0.443  34.755  -0.000  -0.000  17.733

                      1                      2                      3
                     A'                     A"                     A"
 Frequencies --    725.9973               767.8845              1045.4710
 Red. masses --      1.0596                 1.1112                 1.3806
 Frc consts  --      0.3291                 0.3860                 0.8891
 IR Inten    --     28.5857                14.4757                12.9640

                      4                      5                      6
                     A'                     A'                     A'
 Frequencies --   1055.5304              1330.8177              1464.9673
 Red. masses --      1.4448                 2.2255                 1.5804
 Frc consts  --      0.9484                 2.3223                 1.9983
 IR Inten    --      7.3181                 4.2038                23.3870

                      7                      8                      9
                     A'                     A'                     A'
 Frequencies --   3050.3771              3164.4259              3184.2668
 Red. masses --      1.0528                 1.1163                 1.0999
 Frc consts  --      5.7718                 6.5860                 6.5711
 IR Inten    --     48.6146                32.2553                93.1638

 - Thermochemistry -
 -------------------
 Temperature   298.150 Kelvin.  Pressure   1.00000 Atm.
 Atom     1 has atomic number  6 and mass  12.00000

 Molecular mass:    27.02348 amu.
 Principal axes and moments of inertia in atomic units:
                           1         2         3
     Eigenvalues --     7.84077  60.86466  68.70543
           X           -0.07556   0.99714   0.00000
           Y            0.99714   0.07556   0.00000
           Z           -0.00000   0.00000   1.00000
 This molecule is an asymmetric top.
 Rotational symmetry number  1.
 Rotational temperatures (Kelvin)     11.04659     1.42306     1.26065
 Rotational constants (GHZ):         230.17394    29.65171    26.26781
 Zero-point vibrational energy      94443.6 (Joules/Mol)
                                   22.57256 (Kcal/Mol)
 Vibrational temperatures:   1044.55  1104.81  1504.20  1518.67  1914.75
          (Kelvin)           2107.76  4388.81  4552.90  4581.44

 Zero-point correction=                           0.035972 (Hartree/Particle)
 Thermal correction to Energy=                    0.039071
 Thermal correction to Enthalpy=                  0.040015
 Thermal correction to Gibbs Free Energy=         0.013010
 Sum of electronic and zero-point Energies=            -77.508558
 Sum of electronic and thermal Energies=               -77.505458
 Sum of electronic and thermal Enthalpies=             -77.504514
 Sum of electronic and thermal Free Energies=          -77.531519

                     E (Thermal)             CV                S
                      KCal/Mol        Cal/Mol-Kelvin    Cal/Mol-Kelvin
 Total                   24.518              8.316             56.837
 Electronic               0.000              0.000              2.183
 Translational            0.889              2.981             35.818
 Rotational               0.889              2.981             18.134
 Vibrational             22.740              2.354              0.702

 Optimization completed.
    -- Stationary point found.
 Normal termination of Gaussian 09 at Sun Jun 19 05:32:47 2016.
