 Gaussian 09, Revision E.01,
 Gaussian 09:  EM64L-G09RevE.01 30-Nov-2015

 ---------------------------------------------
 #p b3lyp/6-311++G(3df,2p) freq symmetry=Loose
 ---------------------------------------------

 ---------
 b3lyp opt
 ---------
 Symbolic Z-matrix:
 Charge =  0 Multiplicity = 2

                         Standard orientation:
 ---------------------------------------------------------------------
 Center     Atomic      Atomic             Coordinates (Angstroms)
 Number     Number       Type             X           Y           Z
 ---------------------------------------------------------------------
      1          6           0        0.047958   -0.584170    0.000000
      2          1           0        0.964874   -1.165527    0.000000
      3          1           0       -0.878689   -1.160362    0.000000
      4          6           0        0.047958    0.717149    0.000000
      5          1           0       -0.661678    1.528014    0.000000
 ---------------------------------------------------------------------

 SCF Done:  E(UB3LYP) =  -77.9344782946     A.U. after   12 cycles

 The electronic state is 2-A'.
 Alpha  occ. eigenvalues --  -10.20142 -10.18072  -0.77667  -0.58421  -0.47206
 Alpha  occ. eigenvalues --   -0.44087  -0.29537  -0.24328
 Alpha virt. eigenvalues --   -0.01228   0.00069   0.01612   0.02787   0.06510
 Alpha virt. eigenvalues --    0.07976   0.08705   0.11282   0.12298   0.13063
 Alpha virt. eigenvalues --    0.14727   0.14900   0.15838   0.16509   0.26537

  Beta  occ. eigenvalues --  -10.18618 -10.18216  -0.75942  -0.56285  -0.45768
  Beta  occ. eigenvalues --   -0.42539  -0.28766
  Beta virt. eigenvalues --   -0.08714  -0.00316   0.00190   0.01739   0.02981
  Beta virt. eigenvalues --    0.06507   0.07999   0.09876   0.11365   0.12560
  Beta virt. eigenvalues --    0.13434   0.14867   0.14995   0.16254   0.17227

 Mulliken charges and spin densities:
               1          2
     1  C   -0.220556  -0.185122
     2  H    0.147551   0.040431
     3  H    0.125513   0.084326
     4  C   -0.241170   1.040233
     5  H    0.188662   0.020132
 Sum of Mulliken charges =  -0.00000   1.00000

 Dipole moment (field-independent basis, Debye):
    X=             -0.6131    Y=             -0.3307    Z=              0.0000  Tot=              0.6966
 Quadrupole moment (field-independent basis, Debye-Ang):
   XX=            -12.5619   YY=            -11.4579   ZZ=            -14.9957
   XY=             -1.2061   XZ=              0.0000   YZ=              0.0000

  Exact polarizability:  23.153  -0.417  35.148  -0.000  -0.000  21.218
 Approx polarizability:  29.401  -0.404  52.716  -0.000  -0.000  27.203

                      1                      2                      3
                     A'                     A"                     A"
 Frequencies --    709.5146               818.7619               928.6468
 Red. masses --      1.0567                 1.2375                 1.2496
 Frc consts  --      0.3134                 0.4888                 0.6349
 IR Inten    --     21.8849                20.8489                69.8916

                      4                      5                      6
                     A'                     A'                     A'
 Frequencies --   1047.1637              1395.3253              1649.4140
 Red. masses --      1.5054                 1.1057                 5.3957
 Frc consts  --      0.9726                 1.2683                 8.6488
 IR Inten    --      8.1209                 8.4704                 2.2241

                      7                      8                      9
                     A'                     A'                     A'
 Frequencies --   3040.7439              3134.4653              3241.6030
 Red. masses --      1.0624                 1.1016                 1.1054
 Frc consts  --      5.7877                 6.3766                 6.8438
 IR Inten    --      4.6113                 2.7389                 0.4506

 - Thermochemistry -
 -------------------
 Temperature   298.150 Kelvin.  Pressure   1.00000 Atm.
 Atom     1 has atomic number  6 and mass  12.00000

 Molecular mass:    27.02348 amu.
 Principal axes and moments of inertia in atomic units:
                           1         2         3
     Eigenvalues --     7.55248  55.02484  62.57732
           X           -0.08037   0.99676   0.00000
           Y            0.99676   0.08037   0.00000
           Z           -0.00000   0.00000   1.00000
 This molecule is an asymmetric top.
 Rotational symmetry number  1.
 Rotational temperatures (Kelvin)     11.46826     1.57409     1.38411
 Rotational constants (GHZ):         238.96012    32.79866    28.84018
 Zero-point vibrational energy      95495.7 (Joules/Mol)
                                   22.82403 (Kcal/Mol)
 Vibrational temperatures:   1020.83  1178.01  1336.11  1506.63  2007.56
          (Kelvin)           2373.14  4374.95  4509.79  4663.94

 Zero-point correction=                           0.036372 (Hartree/Particle)
 Thermal correction to Energy=                    0.039476
 Thermal correction to Enthalpy=                  0.040421
 Thermal correction to Gibbs Free Energy=         0.013902
 Sum of electronic and zero-point Energies=            -77.898106
 Sum of electronic and thermal Energies=               -77.895002
 Sum of electronic and thermal Enthalpies=             -77.894058
 Sum of electronic and thermal Free Energies=          -77.920576

                     E (Thermal)             CV                S
                      KCal/Mol        Cal/Mol-Kelvin    Cal/Mol-Kelvin
 Total                   24.772              8.335             55.813
 Electronic               0.000              0.000              1.377
 Translational            0.889              2.981             35.818
 Rotational               0.889              2.981             17.904
 Vibrational             22.994              2.374              0.714

 Optimization completed.
    -- Stationary point found.
 Normal termination of Gaussian 09 at Sun Jun 19 05:32:05 2016.
