 Gaussian 09, Revision E.01,
 Gaussian 09:  EM64L-G09RevE.01 30-Nov-2015

 ---------------------------------------------
 #p b3lyp/6-311++G(3df,2p) freq symmetry=Loose
 ---------------------------------------------

 ---------
 b3lyp opt
 ---------
 Symbolic Z-matrix:
 Charge =  0 Multiplicity = 2

                         Standard orientation:
 ---------------------------------------------------------------------
 Center     Atomic      Atomic             Coordinates (Angstroms)
 Number     Number       Type             X           Y           Z
 ---------------------------------------------------------------------
      1          6           0        0.000000    0.000000   -1.248768
      2          1           0       -0.000000    0.927527   -1.803696
      3          1           0       -0.000000   -0.927527   -1.803696
      4          6           0        0.000000   -0.000000    0.115285
      5          6           0       -0.000000   -0.000000    1.335260
      6          1           0        0.000000   -0.000000    2.396726
 ---------------------------------------------------------------------

 SCF Done:  E(UB3LYP) =  -116.047972762     A.U. after   14 cycles

 The electronic state is 2-B1.
 Alpha  occ. eigenvalues --  -10.20330 -10.18967 -10.18716  -0.79865  -0.71336
 Alpha  occ. eigenvalues --   -0.54803  -0.48456  -0.45902  -0.35208  -0.28957
 Alpha  occ. eigenvalues --   -0.22287
 Alpha virt. eigenvalues --   -0.00369   0.00889   0.01252   0.03879   0.03880
 Alpha virt. eigenvalues --    0.05331   0.08475   0.08506   0.09298   0.09605
 Alpha virt. eigenvalues --    0.10901   0.12255   0.14401   0.14488   0.16005

  Beta  occ. eigenvalues --  -10.19301 -10.19232 -10.18004  -0.78650  -0.68902
  Beta  occ. eigenvalues --   -0.54018  -0.47851  -0.45323  -0.31856  -0.28560
  Beta virt. eigenvalues --   -0.10470  -0.00242   0.00909   0.01331   0.03910
  Beta virt. eigenvalues --    0.04187   0.05339   0.08635   0.09401   0.10067
  Beta virt. eigenvalues --    0.11095   0.11321   0.12542   0.14418   0.15206

 Mulliken charges and spin densities:
               1          2
     1  C   -0.795467   0.806243
     2  H    0.177441  -0.025462
     3  H    0.177441  -0.025462
     4  C   -0.130912  -0.239900
     5  C    0.255621   0.500360
     6  H    0.315876  -0.015780
 Sum of Mulliken charges =  -0.00000   1.00000

 Dipole moment (field-independent basis, Debye):
    X=             -0.0000    Y=             -0.0000    Z=             -0.1028  Tot=              0.1028
 Quadrupole moment (field-independent basis, Debye-Ang):
   XX=            -20.3952   YY=            -18.5851   ZZ=            -13.1233
   XY=              0.0000   XZ=              0.0000   YZ=              0.0000

  Exact polarizability:  26.521  -0.000  27.281   0.000  -0.000  60.901
 Approx polarizability:  34.795   0.000  36.312  -0.000   0.000  99.409

                      1                      2                      3
                     B2                     B1                     B1
 Frequencies --    355.3761               408.1412               481.6262
 Red. masses --      2.7655                 3.3591                 1.3234
 Frc consts  --      0.2058                 0.3297                 0.1809
 IR Inten    --      6.7083                14.6262                42.7983

                      4                      5                      6
                     B2                     B1                     B2
 Frequencies --    638.3051               697.7587              1033.1887
 Red. masses --      1.2401                 1.3713                 1.4500
 Frc consts  --      0.2977                 0.3933                 0.9120
 IR Inten    --     51.7037                45.1851                 1.4649

                      7                      8                      9
                     A1                     A1                     A1
 Frequencies --   1090.0261              1459.9565              2007.5318
 Red. masses --      3.7934                 1.2021                 6.8205
 Frc consts  --      2.6556                 1.5096                16.1954
 IR Inten    --      1.5315                 1.1809                 0.2585

                     10                     11                     12
                     A1                     B2                     A1
 Frequencies --   3139.7086              3228.3416              3454.8783
 Red. masses --      1.0511                 1.1173                 1.1371
 Frc consts  --      6.1048                 6.8608                 7.9966
 IR Inten    --      1.7989                 0.2952                62.0460

 - Thermochemistry -
 -------------------
 Temperature   298.150 Kelvin.  Pressure   1.00000 Atm.
 Atom     1 has atomic number  6 and mass  12.00000

 Molecular mass:    39.02348 amu.
 Principal axes and moments of inertia in atomic units:
                           1         2         3
     Eigenvalues --     6.19250 187.75730 193.94980
           X            0.00000  -0.00000   1.00000
           Y            0.00000   1.00000   0.00000
           Z            1.00000  -0.00000  -0.00000
 This molecule is an asymmetric top.
 Rotational symmetry number  2.
 Rotational temperatures (Kelvin)     13.98690     0.46131     0.44658
 Rotational constants (GHZ):         291.44001     9.61210     9.30520
 Zero-point vibrational energy     107633.0 (Joules/Mol)
                                   25.72491 (Kcal/Mol)
 Warning -- explicit consideration of   3 degrees of freedom as
           vibrations may cause significant error
 Vibrational temperatures:    511.31   587.22   692.95   918.38  1003.92
          (Kelvin)           1486.53  1568.30  2100.55  2888.39  4517.33
                             4644.86  4970.79

 Zero-point correction=                           0.040995 (Hartree/Particle)
 Thermal correction to Energy=                    0.045041
 Thermal correction to Enthalpy=                  0.045985
 Thermal correction to Gibbs Free Energy=         0.017191
 Sum of electronic and zero-point Energies=           -116.006978
 Sum of electronic and thermal Energies=              -116.002932
 Sum of electronic and thermal Enthalpies=            -116.001987
 Sum of electronic and thermal Free Energies=         -116.030782

                     E (Thermal)             CV                S
                      KCal/Mol        Cal/Mol-Kelvin    Cal/Mol-Kelvin
 Total                   28.264             12.783             60.603
 Electronic               0.000              0.000              1.377
 Translational            0.889              2.981             36.913
 Rotational               0.889              2.981             18.673
 Vibrational             26.486              6.822              3.640
 Vibration     1          0.731              1.564              1.142
 Vibration     2          0.773              1.453              0.933
 Vibration     3          0.838              1.291              0.706

 Optimization completed.
    -- Stationary point found.
 Normal termination of Gaussian 09 at Sun Jun 19 05:34:57 2016.
