 Gaussian 09, Revision E.01,
 Gaussian 09:  EM64L-G09RevE.01 30-Nov-2015

 ---------------------------------------------
 #p b3lyp/6-311++G(3df,2p) freq symmetry=Loose
 ---------------------------------------------

 ---------
 b3lyp opt
 ---------
 Symbolic Z-matrix:
 Charge =  1 Multiplicity = 1

                         Standard orientation:
 ---------------------------------------------------------------------
 Center     Atomic      Atomic             Coordinates (Angstroms)
 Number     Number       Type             X           Y           Z
 ---------------------------------------------------------------------
      1          6           0       -0.720805   -0.517065   -0.000000
      2          6           0       -0.000000    0.658484    0.000000
      3          6           0        1.119828   -0.084761    0.000000
      4          1           0       -1.812834   -0.519224   -0.000000
      5          1           0       -0.248214   -1.507887   -0.000000
      6          1           0       -0.333089    1.687167    0.000000
 ---------------------------------------------------------------------

 SCF Done:  E(RB3LYP) =  -115.655466060     A.U. after   11 cycles

 The electronic state is 1-A'.
 Alpha  occ. eigenvalues --  -10.56863 -10.54446 -10.49278  -1.17326  -0.93226
 Alpha  occ. eigenvalues --   -0.85197  -0.74996  -0.70374  -0.64239  -0.58371
 Alpha virt. eigenvalues --   -0.38729  -0.35026  -0.26421  -0.16622  -0.15896
 Alpha virt. eigenvalues --   -0.12784  -0.11298  -0.10493  -0.09814  -0.07567
 Alpha virt. eigenvalues --   -0.05237  -0.05186  -0.04132  -0.03452  -0.02939

 Mulliken charges:
               1
     1  C   -0.032496
     2  C    0.324201
     3  C   -0.096425
     4  H    0.251423
     5  H    0.257758
     6  H    0.295539
 Sum of Mulliken charges =   1.00000

 Dipole moment (field-independent basis, Debye):
    X=             -2.1896    Y=              0.3729    Z=             -0.0000  Tot=              2.2211
 Quadrupole moment (field-independent basis, Debye-Ang):
   XX=            -12.0743   YY=            -10.1409   ZZ=            -16.4915
   XY=              2.2563   XZ=              0.0000   YZ=              0.0000

  Exact polarizability:  34.500   3.166  28.187  -0.000  -0.000  19.177
 Approx polarizability:  64.313  10.145  44.799   0.000   0.000  28.735

                      1                      2                      3
                     A'                     A"                     A'
 Frequencies --    299.2937               496.4855               749.8410
 Red. masses --      4.1458                 1.3002                 1.2416
 Frc consts  --      0.2188                 0.1888                 0.4113
 IR Inten    --      4.3777                10.7426                43.5007

                      4                      5                      6
                     A"                     A"                     A'
 Frequencies --    956.2168              1068.3296              1088.7395
 Red. masses --      1.1247                 1.3400                 1.3238
 Frc consts  --      0.6059                 0.9011                 0.9245
 IR Inten    --     26.3333                27.7362                 2.2455

                      7                      8                      9
                     A'                     A'                     A'
 Frequencies --   1306.5111              1449.9701              1544.6585
 Red. masses --      2.1456                 1.5884                 4.9917
 Frc consts  --      2.1578                 1.9676                 7.0172
 IR Inten    --     68.4035                32.9310                91.9252

                     10                     11                     12
                     A'                     A'                     A'
 Frequencies --   3023.7839              3124.1676              3224.3369
 Red. masses --      1.0588                 1.1090                 1.1101
 Frc consts  --      5.7038                 6.3774                 6.7999
 IR Inten    --    109.8575                83.7716               114.9558

 - Thermochemistry -
 -------------------
 Temperature   298.150 Kelvin.  Pressure   1.00000 Atm.
 Atom     1 has atomic number  6 and mass  12.00000

 Molecular mass:    39.02348 amu.
 Principal axes and moments of inertia in atomic units:
                           1         2         3
     Eigenvalues --    44.82747  92.84103 137.66850
           X            0.94753  -0.31966   0.00000
           Y            0.31966   0.94753   0.00000
           Z           -0.00000   0.00000   1.00000
 This molecule is an asymmetric top.
 Rotational symmetry number  1.
 Rotational temperatures (Kelvin)      1.93216     0.93293     0.62915
 Rotational constants (GHZ):          40.25972    19.43905    13.10933
 Zero-point vibrational energy     109651.7 (Joules/Mol)
                                   26.20739 (Kcal/Mol)
 Warning -- explicit consideration of   2 degrees of freedom as
           vibrations may cause significant error
 Vibrational temperatures:    430.62   714.33  1078.85  1375.78  1537.09
          (Kelvin)           1566.45  1879.78  2086.18  2222.42  4350.55
                             4494.97  4639.10

 Zero-point correction=                           0.041764 (Hartree/Particle)
 Thermal correction to Energy=                    0.045458
 Thermal correction to Enthalpy=                  0.046402
 Thermal correction to Gibbs Free Energy=         0.017643
 Sum of electronic and zero-point Energies=           -115.613702
 Sum of electronic and thermal Energies=              -115.610009
 Sum of electronic and thermal Enthalpies=            -115.609064
 Sum of electronic and thermal Free Energies=         -115.637823

                     E (Thermal)             CV                S
                      KCal/Mol        Cal/Mol-Kelvin    Cal/Mol-Kelvin
 Total                   28.525             10.955             60.528
 Electronic               0.000              0.000              0.000
 Translational            0.889              2.981             36.913
 Rotational               0.889              2.981             20.977
 Vibrational             26.748              4.994              2.639
 Vibration     1          0.692              1.675              1.421
 Vibration     2          0.852              1.258              0.667

 Optimization completed.
    -- Stationary point found.
 Normal termination of Gaussian 09 at Sun Jun 19 05:34:31 2016.
