 Gaussian 09, Revision E.01,
 Gaussian 09:  EM64L-G09RevE.01 30-Nov-2015

 ---------------------------------------------
 #p b3lyp/6-311++G(3df,2p) freq symmetry=Loose
 ---------------------------------------------

 ---------
 b3lyp opt
 ---------
 Symbolic Z-matrix:
 Charge =  3 Multiplicity = 1

                         Standard orientation:
 ---------------------------------------------------------------------
 Center     Atomic      Atomic             Coordinates (Angstroms)
 Number     Number       Type             X           Y           Z
 ---------------------------------------------------------------------
      1          6           0        0.000000    0.000000    0.320412
      2          1           0        0.000000    0.000000    1.553525
      3          6           0       -0.000000   -1.234755   -0.194656
      4          1           0       -0.000000   -2.338217   -0.570060
      5          6           0        0.000000    1.234755   -0.194656
      6          1           0        0.000000    2.338217   -0.570060
 ---------------------------------------------------------------------

 SCF Done:  E(RB3LYP) =  -114.117505650     A.U. after   10 cycles

 The electronic state is 1-A1.
 Alpha  occ. eigenvalues --  -11.23480 -11.23476 -11.08447  -1.70206  -1.55766
 Alpha  occ. eigenvalues --   -1.37388  -1.33380  -1.29451  -1.19046
 Alpha virt. eigenvalues --   -0.99615  -0.98328  -0.96385  -0.77972  -0.67252
 Alpha virt. eigenvalues --   -0.62391  -0.60591  -0.53315  -0.47755  -0.46961
 Alpha virt. eigenvalues --   -0.46916  -0.43636  -0.41399  -0.41185  -0.39841

 Mulliken charges:
               1
     1  C    0.146598
     2  H    0.390917
     3  C    0.685173
     4  H    0.546070
     5  C    0.685173
     6  H    0.546070
 Sum of Mulliken charges =   3.00000

 Dipole moment (field-independent basis, Debye):
    X=              0.0000    Y=             -0.0000    Z=             -0.2425  Tot=              0.2425
 Quadrupole moment (field-independent basis, Debye-Ang):
   XX=            -12.9539   YY=             22.9567   ZZ=             -4.2508
   XY=              0.0000   XZ=             -0.0000   YZ=              0.0000

  Exact polarizability:  13.016  -0.000  39.323  -0.000  -0.000  19.146
 Approx polarizability:  17.812   0.000  90.919  -0.000  -0.000  31.341

                      1                      2                      3
                     A1                     B1                     B2
 Frequencies --    319.9292               480.5601               683.9750
 Red. masses --      2.3725                 1.3541                 1.0489
 Frc consts  --      0.1431                 0.1842                 0.2891
 IR Inten    --     39.6895               204.0021                 8.4136

                      4                      5                      6
                     A2                     B1                     A1
 Frequencies --    803.2170               820.7001               956.0295
 Red. masses --      1.2790                 1.5703                 1.5488
 Frc consts  --      0.4862                 0.6232                 0.8340
 IR Inten    --      0.0000                14.7146                49.8844

                      7                      8                      9
                     B2                     A1                     B2
 Frequencies --    973.7138              1154.7710              1674.6952
 Red. masses --      1.3306                 5.3286                 3.9818
 Frc consts  --      0.7433                 4.1865                 6.5796
 IR Inten    --      9.1930                88.6131              1562.3338

                     10                     11                     12
                     A1                     A1                     B2
 Frequencies --   1872.4846              2507.8384              2523.5339
 Red. masses --      1.0664                 1.1359                 1.2647
 Frc consts  --      2.2030                 4.2090                 4.7451
 IR Inten    --   1111.2245                82.9565               916.8908

 - Thermochemistry -
 -------------------
 Temperature   298.150 Kelvin.  Pressure   1.00000 Atm.
 Atom     1 has atomic number  6 and mass  12.00000

 Molecular mass:    39.02348 amu.
 Principal axes and moments of inertia in atomic units:
                           1         2         3
     Eigenvalues --    18.65663 170.02184 188.67847
           X            0.00000   0.00000   1.00000
           Y            1.00000   0.00000  -0.00000
           Z            0.00000   1.00000   0.00000
 This molecule is an asymmetric top.
 Rotational symmetry number  2.
 Rotational temperatures (Kelvin)      4.64252     0.50943     0.45906
 Rotational constants (GHZ):          96.73456    10.61476     9.56517
 Zero-point vibrational energy      88352.9 (Joules/Mol)
                                   21.11684 (Kcal/Mol)
 Warning -- explicit consideration of   2 degrees of freedom as
           vibrations may cause significant error
 Vibrational temperatures:    460.31   691.42   984.09  1155.65  1180.80
          (Kelvin)           1375.51  1400.96  1661.46  2409.51  2694.08
                             3608.22  3630.80

 Zero-point correction=                           0.033652 (Hartree/Particle)
 Thermal correction to Energy=                    0.037496
 Thermal correction to Enthalpy=                  0.038441
 Thermal correction to Gibbs Free Energy=         0.010137
 Sum of electronic and zero-point Energies=           -114.083854
 Sum of electronic and thermal Energies=              -114.080009
 Sum of electronic and thermal Enthalpies=            -114.079065
 Sum of electronic and thermal Free Energies=         -114.107369

                     E (Thermal)             CV                S
                      KCal/Mol        Cal/Mol-Kelvin    Cal/Mol-Kelvin
 Total                   23.529             12.147             59.570
 Electronic               0.000              0.000              0.000
 Translational            0.889              2.981             36.913
 Rotational               0.889              2.981             19.643
 Vibrational             21.752              6.185              3.014
 Vibration     1          0.706              1.635              1.310
 Vibration     2          0.837              1.293              0.709

 Optimization completed.
    -- Stationary point found.
 Normal termination of Gaussian 09 at Tue Jul 19 12:19:44 2016.
