 Gaussian 09, Revision E.01,
 Gaussian 09:  EM64L-G09RevE.01 30-Nov-2015

 ---------------------------------------------
 #p b3lyp/6-311++G(3df,2p) freq symmetry=Loose
 ---------------------------------------------

 ---------
 b3lyp opt
 ---------
 Symbolic Z-matrix:
 Charge =  2 Multiplicity = 2

                         Standard orientation:
 ---------------------------------------------------------------------
 Center     Atomic      Atomic             Coordinates (Angstroms)
 Number     Number       Type             X           Y           Z
 ---------------------------------------------------------------------
      1          6           0       -0.831671   -0.788362   -0.000000
      2          6           0        0.000000    0.380343   -0.000000
      3          6           0        1.280677    0.572668    0.000000
      4          1           0       -1.924351   -0.659286   -0.000000
      5          1           0       -0.390124   -1.793296    0.000000
      6          1           0       -0.379561    1.464692   -0.000000
 ---------------------------------------------------------------------

 SCF Done:  E(UB3LYP) =  -114.971765803     A.U. after   15 cycles

 The electronic state is 2-A'.
 Alpha  occ. eigenvalues --  -10.95543 -10.83268 -10.79935  -1.41972  -1.26761
 Alpha  occ. eigenvalues --   -1.07777  -1.03008  -0.99288  -0.94063  -0.91513
 Alpha virt. eigenvalues --   -0.70201  -0.70158  -0.51115  -0.39037  -0.35262
 Alpha virt. eigenvalues --   -0.31161  -0.30263  -0.28066  -0.27835  -0.27355
 Alpha virt. eigenvalues --   -0.24106  -0.23114  -0.21510  -0.21112  -0.19584

  Beta  occ. eigenvalues --  -10.93167 -10.83363 -10.79773  -1.40200  -1.25813
  Beta  occ. eigenvalues --   -1.06511  -1.02395  -0.95146  -0.90074
  Beta virt. eigenvalues --   -0.76343  -0.68971  -0.66411  -0.49772  -0.38902
  Beta virt. eigenvalues --   -0.35167  -0.30672  -0.30183  -0.28043  -0.27666
  Beta virt. eigenvalues --   -0.27267  -0.23458  -0.22960  -0.21344  -0.20779

 Mulliken charges and spin densities:
               1          2
     1  C    0.174137  -0.056724
     2  C    0.523968  -0.093459
     3  C    0.383952   1.137803
     4  H    0.317734   0.013180
     5  H    0.311251   0.001798
     6  H    0.288958  -0.002597
 Sum of Mulliken charges =   2.00000   1.00000

 Dipole moment (field-independent basis, Debye):
    X=              0.1261    Y=              0.2505    Z=             -0.0000  Tot=              0.2804
 Quadrupole moment (field-independent basis, Debye-Ang):
   XX=             -0.0425   YY=             -3.0326   ZZ=            -14.3237
   XY=              5.6533   XZ=             -0.0000   YZ=              0.0000

  Exact polarizability:  34.260   7.285  26.656  -0.000  -0.000  16.118
 Approx polarizability:  74.035  16.518  40.598   0.000   0.000  21.581

                      1                      2                      3
                     A'                     A"                     A"
 Frequencies --    241.5859               264.8937               589.7189
 Red. masses --      4.6351                 1.3353                 1.4088
 Frc consts  --      0.1594                 0.0552                 0.2887
 IR Inten    --     13.1629                 7.9840                42.0945

                      4                      5                      6
                     A'                     A'                     A'
 Frequencies --    854.0247              1017.7662              1105.1316
 Red. masses --      1.0813                 2.9650                 1.5449
 Frc consts  --      0.4647                 1.8095                 1.1117
 IR Inten    --     11.8005                52.6099                14.9389

                      7                      8                      9
                     A"                     A'                     A'
 Frequencies --   1165.5449              1429.0610              1596.9790
 Red. masses --      1.3413                 1.1470                 9.1235
 Frc consts  --      1.0736                 1.3801                13.7091
 IR Inten    --     11.1431                 4.8704               193.9158

                     10                     11                     12
                     A'                     A'                     A'
 Frequencies --   2583.3622              2992.9021              3119.4086
 Red. masses --      1.0707                 1.0523                 1.1271
 Frc consts  --      4.2102                 5.5538                 6.4617
 IR Inten    --    427.5342               178.3193               161.2440

 - Thermochemistry -
 -------------------
 Temperature   298.150 Kelvin.  Pressure   1.00000 Atm.
 Atom     1 has atomic number  6 and mass  12.00000

 Molecular mass:    39.02348 amu.
 Principal axes and moments of inertia in atomic units:
                           1         2         3
     Eigenvalues --    22.30583 159.01655 181.32237
           X            0.81747  -0.57597   0.00000
           Y            0.57597   0.81747   0.00000
           Z           -0.00000   0.00000   1.00000
 This molecule is an asymmetric top.
 Rotational symmetry number  1.
 Rotational temperatures (Kelvin)      3.88301     0.54468     0.47768
 Rotational constants (GHZ):          80.90896    11.34939     9.95322
 Zero-point vibrational energy     101445.6 (Joules/Mol)
                                   24.24608 (Kcal/Mol)
 Warning -- explicit consideration of   3 degrees of freedom as
           vibrations may cause significant error
 Vibrational temperatures:    347.59   381.12   848.47  1228.75  1464.34
          (Kelvin)           1590.04  1676.96  2056.10  2297.69  3716.88
                             4306.11  4488.13

 Zero-point correction=                           0.038639 (Hartree/Particle)
 Thermal correction to Energy=                    0.042753
 Thermal correction to Enthalpy=                  0.043698
 Thermal correction to Gibbs Free Energy=         0.013452
 Sum of electronic and zero-point Energies=           -114.933127
 Sum of electronic and thermal Energies=              -114.929012
 Sum of electronic and thermal Enthalpies=            -114.928068
 Sum of electronic and thermal Free Energies=         -114.958314

                     E (Thermal)             CV                S
                      KCal/Mol        Cal/Mol-Kelvin    Cal/Mol-Kelvin
 Total                   26.828             12.108             63.657
 Electronic               0.000              0.000              1.377
 Translational            0.889              2.981             36.913
 Rotational               0.889              2.981             21.091
 Vibrational             25.051              6.146              4.275
 Vibration     1          0.658              1.777              1.791
 Vibration     2          0.671              1.737              1.629
 Vibration     3          0.947              1.054              0.468

 Optimization completed.
    -- Stationary point found.
 Normal termination of Gaussian 09 at Sun Jun 19 05:37:56 2016.
