 Gaussian 09, Revision E.01,
 Gaussian 09:  EM64L-G09RevE.01 30-Nov-2015

 ---------------------------------------------
 #p b3lyp/6-311++G(3df,2p) freq symmetry=Loose
 ---------------------------------------------

 ---------
 b3lyp opt
 ---------
 Symbolic Z-matrix:
 Charge =  1 Multiplicity = 3

                         Standard orientation:
 ---------------------------------------------------------------------
 Center     Atomic      Atomic             Coordinates (Angstroms)
 Number     Number       Type             X           Y           Z
 ---------------------------------------------------------------------
      1          6           0        0.000000   -0.000000   -1.239913
      2          6           0       -0.000000    0.000000    0.078905
      3          6           0       -0.000000    0.000000    1.358151
      4          1           0        0.000000    0.934043   -1.807932
      5          1           0       -0.000000   -0.934043   -1.807932
      6          1           0       -0.000000    0.000000    2.433004
 ---------------------------------------------------------------------

 SCF Done:  E(UB3LYP) =  -115.667882876     A.U. after   14 cycles

 The electronic state is 3-A2.
 Alpha  occ. eigenvalues --  -10.53345 -10.53097 -10.46761  -1.11194  -1.00970
 Alpha  occ. eigenvalues --   -0.82873  -0.76173  -0.72831  -0.64261  -0.60422
 Alpha  occ. eigenvalues --   -0.49504
 Alpha virt. eigenvalues --   -0.29503  -0.21374  -0.17231  -0.15175  -0.12526
 Alpha virt. eigenvalues --   -0.11569  -0.09742  -0.08019  -0.07270  -0.05976
 Alpha virt. eigenvalues --   -0.05907  -0.03372  -0.01048  -0.00907   0.00320

  Beta  occ. eigenvalues --  -10.52937 -10.51507 -10.45766  -1.07466  -0.96858
  Beta  occ. eigenvalues --   -0.80809  -0.74679  -0.70038  -0.60269
  Beta virt. eigenvalues --   -0.47319  -0.36414  -0.23991  -0.17973  -0.16615
  Beta virt. eigenvalues --   -0.14089  -0.11903  -0.11115  -0.08498  -0.07226
  Beta virt. eigenvalues --   -0.06888  -0.05219  -0.05184  -0.02363  -0.00799

 Mulliken charges and spin densities:
               1          2
     1  C   -0.526222   0.678985
     2  C    0.197544   0.192639
     3  C    0.398253   1.095988
     4  H    0.260777   0.031363
     5  H    0.260777   0.031363
     6  H    0.408872  -0.030337
 Sum of Mulliken charges =   1.00000   2.00000

 Dipole moment (field-independent basis, Debye):
    X=             -0.0000    Y=              0.0000    Z=              0.7304  Tot=              0.7304
 Quadrupole moment (field-independent basis, Debye-Ang):
   XX=            -17.6349   YY=            -13.6308   ZZ=             -0.3278
   XY=              0.0000   XZ=              0.0000   YZ=             -0.0000

  Exact polarizability:  19.309  -0.000  20.698   0.000   0.000  52.452
 Approx polarizability:  25.313   0.000  28.765   0.000  -0.000  89.320

                      1                      2                      3
                     B1                     B2                     B1
 Frequencies --    150.7899               336.5682               394.0513
 Red. masses --      1.4574                 1.9042                 2.8189
 Frc consts  --      0.0195                 0.1271                 0.2579
 IR Inten    --     42.4516                11.7551                25.6648

                      4                      5                      6
                     B2                     B1                     B2
 Frequencies --    646.8413               706.3409               820.4845
 Red. masses --      1.2559                 1.3502                 1.8915
 Frc consts  --      0.3096                 0.3969                 0.7503
 IR Inten    --      9.0716                57.2799                 9.5746

                      7                      8                      9
                     A1                     A1                     A1
 Frequencies --   1118.4831              1299.8179              1784.9334
 Red. masses --      2.9897                 1.2983                 7.8630
 Frc consts  --      2.2036                 1.2924                14.7598
 IR Inten    --      0.4428               106.3732                 3.6672

                     10                     11                     12
                     A1                     B2                     A1
 Frequencies --   3030.9852              3104.8953              3321.7511
 Red. masses --      1.0520                 1.1093                 1.1229
 Frc consts  --      5.6944                 6.3005                 7.3001
 IR Inten    --    254.9664               121.6349               253.3414

 - Thermochemistry -
 -------------------
 Temperature   298.150 Kelvin.  Pressure   1.00000 Atm.
 Atom     1 has atomic number  6 and mass  12.00000

 Molecular mass:    39.02348 amu.
 Principal axes and moments of inertia in atomic units:
                           1         2         3
     Eigenvalues --     6.27981 189.89905 196.17885
           X            0.00000  -0.00000   1.00000
           Y            0.00000   1.00000   0.00000
           Z            1.00000   0.00000   0.00000
 This molecule is an asymmetric top.
 Rotational symmetry number  2.
 Rotational temperatures (Kelvin)     13.79244     0.45610     0.44150
 Rotational constants (GHZ):         287.38809     9.50369     9.19947
 Zero-point vibrational energy      99983.5 (Joules/Mol)
                                   23.89664 (Kcal/Mol)
 Warning -- explicit consideration of   3 degrees of freedom as
           vibrations may cause significant error
 Vibrational temperatures:    216.95   484.25   566.95   930.66  1016.27
          (Kelvin)           1180.49  1609.25  1870.15  2568.12  4360.91
                             4467.25  4779.25

 Zero-point correction=                           0.038082 (Hartree/Particle)
 Thermal correction to Energy=                    0.042602
 Thermal correction to Enthalpy=                  0.043547
 Thermal correction to Gibbs Free Energy=         0.013312
 Sum of electronic and zero-point Energies=           -115.629801
 Sum of electronic and thermal Energies=              -115.625280
 Sum of electronic and thermal Enthalpies=            -115.624336
 Sum of electronic and thermal Free Energies=         -115.654571

                     E (Thermal)             CV                S
                      KCal/Mol        Cal/Mol-Kelvin    Cal/Mol-Kelvin
 Total                   26.733             13.758             63.635
 Electronic               0.000              0.000              2.183
 Translational            0.889              2.981             36.913
 Rotational               0.889              2.981             18.709
 Vibrational             24.956              7.796              5.830
 Vibration     1          0.618              1.902              2.662
 Vibration     2          0.717              1.602              1.228
 Vibration     3          0.761              1.483              0.985

 Optimization completed.
    -- Stationary point found.
 Normal termination of Gaussian 09 at Tue Jul 19 13:26:04 2016.
