 Gaussian 09, Revision E.01,
 Gaussian 09:  EM64L-G09RevE.01 30-Nov-2015

 ---------------------------------------------
 #p b3lyp/6-311++G(3df,2p) freq symmetry=Loose
 ---------------------------------------------

 ---------
 b3lyp opt
 ---------
 Symbolic Z-matrix:
 Charge =  0 Multiplicity = 4

                         Standard orientation:
 ---------------------------------------------------------------------
 Center     Atomic      Atomic             Coordinates (Angstroms)
 Number     Number       Type             X           Y           Z
 ---------------------------------------------------------------------
      1          6           0       -1.163430   -0.276956   -0.000000
      2          1           0       -1.167059   -1.371985   -0.000000
      3          1           0       -2.128480    0.212835   -0.000000
      4          6           0        0.000000    0.381730    0.000000
      5          6           0        1.336108   -0.004274    0.000000
      6          1           0        2.259469    0.556151    0.000000
 ---------------------------------------------------------------------

 SCF Done:  E(UB3LYP) =  -115.911245314     A.U. after   14 cycles

 The electronic state is 4-A".
 Alpha  occ. eigenvalues --  -10.23140 -10.21863 -10.19526  -0.81767  -0.70806
 Alpha  occ. eigenvalues --   -0.54927  -0.48120  -0.44825  -0.35627  -0.35325
 Alpha  occ. eigenvalues --   -0.22644  -0.20113
 Alpha virt. eigenvalues --   -0.00065   0.01187   0.01375   0.02593   0.05894
 Alpha virt. eigenvalues --    0.06722   0.07122   0.09321   0.09759   0.11932
 Alpha virt. eigenvalues --    0.12499   0.12758   0.12920   0.13426   0.14743

  Beta  occ. eigenvalues --  -10.20631 -10.20552 -10.18746  -0.77652  -0.65867
  Beta  occ. eigenvalues --   -0.51922  -0.45424  -0.42423  -0.30693
  Beta virt. eigenvalues --   -0.17341  -0.09938  -0.03902   0.00744   0.01568
  Beta virt. eigenvalues --    0.03002   0.03484   0.06547   0.08348   0.08774
  Beta virt. eigenvalues --    0.10159   0.10275   0.12503   0.13080   0.13707

 Mulliken charges and spin densities:
               1          2
     1  C   -0.413822   0.459467
     2  H    0.120584   0.086700
     3  H    0.170055   0.009655
     4  C    0.311777   0.759760
     5  C   -0.379403   1.671474
     6  H    0.190809   0.012944
 Sum of Mulliken charges =  -0.00000   3.00000

 Dipole moment (field-independent basis, Debye):
    X=             -0.2299    Y=             -0.0327    Z=             -0.0000  Tot=              0.2322
 Quadrupole moment (field-independent basis, Debye-Ang):
   XX=            -15.6011   YY=            -18.7943   ZZ=            -20.9946
   XY=              1.6080   XZ=             -0.0000   YZ=              0.0000

  Exact polarizability:  59.674   4.751  34.739  -0.002  -0.001  28.832
 Approx polarizability:  86.709   9.481  46.196   0.000   0.000  37.526

                      1                      2                      3
                     A'                     A"                     A"
 Frequencies --    325.9591               456.9934               561.1753
 Red. masses --      2.2595                 1.4374                 1.1536
 Frc consts  --      0.1414                 0.1769                 0.2140
 IR Inten    --      2.3912                11.3145                20.5148

                      4                      5                      6
                     A"                     A'                     A'
 Frequencies --    786.2511               875.0488               958.7004
 Red. masses --      1.3645                 1.2292                 1.7577
 Frc consts  --      0.4970                 0.5546                 0.9519
 IR Inten    --     39.9469                 6.5279                 4.5638

                      7                      8                      9
                     A'                     A'                     A'
 Frequencies --   1192.6274              1371.0830              1467.7679
 Red. masses --      3.7523                 1.5966                 2.8832
 Frc consts  --      3.1445                 1.7684                 3.6596
 IR Inten    --      2.2966                10.7711                 3.2635

                     10                     11                     12
                     A'                     A'                     A'
 Frequencies --   3000.9068              3175.4238              3189.1780
 Red. masses --      1.0640                 1.0952                 1.0897
 Frc consts  --      5.6454                 6.5067                 6.5301
 IR Inten    --      5.1315                 0.8128                 2.2425

 - Thermochemistry -
 -------------------
 Temperature   298.150 Kelvin.  Pressure   1.00000 Atm.
 Atom     1 has atomic number  6 and mass  12.00000

 Molecular mass:    39.02348 amu.
 Principal axes and moments of inertia in atomic units:
                           1         2         3
     Eigenvalues --    14.47128 177.06723 191.53851
           X            0.99049  -0.13761   0.00000
           Y            0.13761   0.99049   0.00000
           Z           -0.00000   0.00000   1.00000
 This molecule is an asymmetric top.
 Rotational symmetry number  1.
 Rotational temperatures (Kelvin)      5.98522     0.48916     0.45220
 Rotational constants (GHZ):         124.71193    10.19241     9.42234
 Zero-point vibrational energy     103842.5 (Joules/Mol)
                                   24.81896 (Kcal/Mol)
 Warning -- explicit consideration of   3 degrees of freedom as
           vibrations may cause significant error
 Vibrational temperatures:    468.98   657.51   807.41  1131.24  1259.00
          (Kelvin)           1379.35  1715.92  1972.68  2111.79  4317.63
                             4568.72  4588.51

 Zero-point correction=                           0.039552 (Hartree/Particle)
 Thermal correction to Energy=                    0.043430
 Thermal correction to Enthalpy=                  0.044374
 Thermal correction to Gibbs Free Energy=         0.014142
 Sum of electronic and zero-point Energies=           -115.871694
 Sum of electronic and thermal Energies=              -115.867816
 Sum of electronic and thermal Enthalpies=            -115.866872
 Sum of electronic and thermal Free Energies=         -115.897103

                     E (Thermal)             CV                S
                      KCal/Mol        Cal/Mol-Kelvin    Cal/Mol-Kelvin
 Total                   27.252             12.090             63.627
 Electronic               0.000              0.000              2.755
 Translational            0.889              2.981             36.913
 Rotational               0.889              2.981             20.823
 Vibrational             25.475              6.128              3.136
 Vibration     1          0.710              1.624              1.280
 Vibration     2          0.815              1.345              0.775
 Vibration     3          0.917              1.115              0.521

 Optimization completed.
    -- Stationary point found.
 Normal termination of Gaussian 09 at Sun Jun 19 05:35:05 2016.
