 Gaussian 09, Revision E.01,
 Gaussian 09:  EM64L-G09RevE.01 30-Nov-2015

 ---------------------------------------------
 #p b3lyp/6-311++G(3df,2p) freq symmetry=Loose
 ---------------------------------------------

 ---------
 b3lyp opt
 ---------
 Symbolic Z-matrix:
 Charge =  2 Multiplicity = 4

                         Standard orientation:
 ---------------------------------------------------------------------
 Center     Atomic      Atomic             Coordinates (Angstroms)
 Number     Number       Type             X           Y           Z
 ---------------------------------------------------------------------
      1          6           0       -0.023296   -0.235088    1.184407
      2          1           0        0.268054   -1.107627    1.795431
      3          6           0       -0.023296   -0.235088   -1.184407
      4          1           0        0.268054   -1.107627   -1.795431
      5          6           0       -0.023296    0.561259   -0.000000
      6          1           0       -0.116776    1.668748   -0.000000
 ---------------------------------------------------------------------

 SCF Done:  E(UB3LYP) =  -114.926196627     A.U. after   14 cycles

 The electronic state is 4-A".
 Alpha  occ. eigenvalues --  -10.86231 -10.85752 -10.85747  -1.42264  -1.24458
 Alpha  occ. eigenvalues --   -1.12813  -1.04152  -1.03166  -0.94651  -0.81353
 Alpha  occ. eigenvalues --   -0.80018
 Alpha virt. eigenvalues --   -0.68806  -0.59377  -0.41442  -0.39443  -0.34085
 Alpha virt. eigenvalues --   -0.32058  -0.28884  -0.28183  -0.26954  -0.25466
 Alpha virt. eigenvalues --   -0.23329  -0.21781  -0.21424  -0.18032  -0.17825

  Beta  occ. eigenvalues --  -10.85567 -10.83548 -10.83545  -1.36952  -1.17854
  Beta  occ. eigenvalues --   -1.09594  -1.02207  -1.01146
  Beta virt. eigenvalues --   -0.77999  -0.66892  -0.61674  -0.59898  -0.49912
  Beta virt. eigenvalues --   -0.38681  -0.36909  -0.33312  -0.31177  -0.27076
  Beta virt. eigenvalues --   -0.27021  -0.26085  -0.24834  -0.21442  -0.20907

 Mulliken charges and spin densities:
               1          2
     1  C    0.238337   1.232856
     2  H    0.400305  -0.012335
     3  C    0.238337   1.232856
     4  H    0.400305  -0.012335
     5  C    0.406150   0.510920
     6  H    0.316565   0.048037
 Sum of Mulliken charges =   2.00000   3.00000

 Dipole moment (field-independent basis, Debye):
    X=              0.4744    Y=             -0.7510    Z=             -0.0000  Tot=              0.8884
 Quadrupole moment (field-independent basis, Debye-Ang):
   XX=            -13.9880   YY=             -5.5523   ZZ=              2.0455
   XY=             -1.0482   XZ=             -0.0000   YZ=              0.0000

  Exact polarizability:  15.868  -1.032  22.811   0.000  -0.000  52.828
 Approx polarizability:  21.332  -0.470  30.399   0.000   0.000 113.507

                      1                      2                      3
                     A"                     A'                     A'
 Frequencies --    228.8433               285.3777               363.2318
 Red. masses --      1.2085                 2.8724                 1.5649
 Frc consts  --      0.0373                 0.1378                 0.1217
 IR Inten    --      0.0062                43.4446                21.4050

                      4                      5                      6
                     A"                     A'                     A'
 Frequencies --    599.8689               639.9533               817.2868
 Red. masses --      1.2060                 1.1591                 1.5092
 Frc consts  --      0.2557                 0.2797                 0.5939
 IR Inten    --    323.2175                38.4762                 8.9235

                      7                      8                      9
                     A"                     A'                     A"
 Frequencies --   1077.3202              1178.7143              1200.9917
 Red. masses --      3.1632                 5.5139                 1.3521
 Frc consts  --      2.1630                 4.5136                 1.1491
 IR Inten    --      5.7135                 0.7971                17.3148

                     10                     11                     12
                     A'                     A"                     A'
 Frequencies --   2907.4551              3009.1166              3032.8152
 Red. masses --      1.0884                 1.1017                 1.1065
 Frc consts  --      5.4206                 5.8774                 5.9965
 IR Inten    --    285.5028               533.1904               296.8738

 - Thermochemistry -
 -------------------
 Temperature   298.150 Kelvin.  Pressure   1.00000 Atm.
 Atom     1 has atomic number  6 and mass  12.00000

 Molecular mass:    39.02348 amu.
 Principal axes and moments of inertia in atomic units:
                           1         2         3
     Eigenvalues --    37.68208 143.82219 180.72528
           X           -0.00000  -0.07907   0.99687
           Y            0.00000   0.99687   0.07907
           Z            1.00000  -0.00000  -0.00000
 This molecule is an asymmetric top.
 Rotational symmetry number  1.
 Rotational temperatures (Kelvin)      2.29854     0.60223     0.47926
 Rotational constants (GHZ):          47.89388    12.54842     9.98610
 Zero-point vibrational energy      91759.4 (Joules/Mol)
                                   21.93102 (Kcal/Mol)
 Warning -- explicit consideration of   4 degrees of freedom as
           vibrations may cause significant error
 Vibrational temperatures:    329.25   410.59   522.61   863.08   920.75
          (Kelvin)           1175.89  1550.02  1695.90  1727.96  4183.17
                             4329.44  4363.54

 Zero-point correction=                           0.034949 (Hartree/Particle)
 Thermal correction to Energy=                    0.039519
 Thermal correction to Enthalpy=                  0.040464
 Thermal correction to Gibbs Free Energy=         0.008697
 Sum of electronic and zero-point Energies=           -114.891247
 Sum of electronic and thermal Energies=              -114.886677
 Sum of electronic and thermal Enthalpies=            -114.885733
 Sum of electronic and thermal Free Energies=         -114.917500

                     E (Thermal)             CV                S
                      KCal/Mol        Cal/Mol-Kelvin    Cal/Mol-Kelvin
 Total                   24.799             14.335             66.859
 Electronic               0.000              0.000              2.755
 Translational            0.889              2.981             36.913
 Rotational               0.889              2.981             21.509
 Vibrational             23.021              8.373              5.682
 Vibration     1          0.652              1.797              1.888
 Vibration     2          0.683              1.701              1.501
 Vibration     3          0.737              1.548              1.108
 Vibration     4          0.958              1.032              0.450

 Optimization completed.
    -- Stationary point found.
 Normal termination of Gaussian 09 at Tue Jul 19 09:21:07 2016.
