 Gaussian 09, Revision E.01,
 Gaussian 09:  EM64L-G09RevE.01 30-Nov-2015

 ---------------------------------------------
 #p b3lyp/6-311++G(3df,2p) freq symmetry=Loose
 ---------------------------------------------

 ---------
 b3lyp opt
 ---------
 Symbolic Z-matrix:
 Charge =  1 Multiplicity = 1

                         Standard orientation:
 ---------------------------------------------------------------------
 Center     Atomic      Atomic             Coordinates (Angstroms)
 Number     Number       Type             X           Y           Z
 ---------------------------------------------------------------------
      1          6           0        0.000000    0.783871   -0.000000
      2          1           0        0.000000    1.864032   -0.000000
      3          6           0        0.678852   -0.391935   -0.000000
      4          1           0        1.614299   -0.932016   -0.000000
      5          6           0       -0.678852   -0.391935   -0.000000
      6          1           0       -1.614299   -0.932016   -0.000000
 ---------------------------------------------------------------------

 SCF Done:  E(RB3LYP) =  -115.770905318     A.U. after    7 cycles

 The electronic state is 1-A1'.
 Alpha  occ. eigenvalues --  -10.51063 -10.50960 -10.50960  -1.22614  -0.86122
 Alpha  occ. eigenvalues --   -0.86122  -0.80452  -0.66791  -0.64292  -0.64292
 Alpha virt. eigenvalues --   -0.29727  -0.29727  -0.15159  -0.14956  -0.14956
 Alpha virt. eigenvalues --   -0.13679  -0.11378  -0.09703  -0.08342  -0.08342
 Alpha virt. eigenvalues --   -0.04283  -0.04283  -0.03780  -0.03780  -0.01656

 Mulliken charges:
               1
     1  C    0.033345
     2  H    0.299988
     3  C    0.033345
     4  H    0.299988
     5  C    0.033345
     6  H    0.299988
 Sum of Mulliken charges =   1.00000

 Dipole moment (field-independent basis, Debye):
    X=              0.0000    Y=             -0.0000    Z=             -0.0000  Tot=              0.0000
 Quadrupole moment (field-independent basis, Debye-Ang):
   XX=             -9.6332   YY=             -9.6332   ZZ=            -15.5682
   XY=             -0.0000   XZ=              0.0000   YZ=              0.0000

  Exact polarizability:  26.738  -0.000  26.738  -0.000  -0.000  16.426
 Approx polarizability:  40.572  -0.000  40.572   0.000   0.000  23.930

                      1                      2                      3
                     A2"                    E'                     E'
 Frequencies --    773.3103               940.1447               940.1447
 Red. masses --      1.0848                 1.0850                 1.0850
 Frc consts  --      0.3822                 0.5650                 0.5650
 IR Inten    --     65.8121                30.4677                30.4681

                      4                      5                      6
                     E"                     E"                     A2'
 Frequencies --   1018.6336              1018.6336              1051.9106
 Red. masses --      1.4294                 1.4294                 1.4294
 Frc consts  --      0.8739                 0.8739                 0.9319
 IR Inten    --      0.0000                 0.0000                 0.0000

                      7                      8                      9
                     E'                     E'                     A1'
 Frequencies --   1317.5442              1317.5442              1664.2324
 Red. masses --      6.0022                 6.0022                 4.6078
 Frc consts  --      6.1389                 6.1389                 7.5193
 IR Inten    --     49.0814                49.0754                 0.0000

                     10                     11                     12
                     E'                     E'                     A1'
 Frequencies --   3236.8483              3236.8483              3284.7297
 Red. masses --      1.0999                 1.0999                 1.1648
 Frc consts  --      6.7899                 6.7899                 7.4043
 IR Inten    --     94.8326                94.8332                 0.0000

 - Thermochemistry -
 -------------------
 Temperature   298.150 Kelvin.  Pressure   1.00000 Atm.
 Atom     1 has atomic number  6 and mass  12.00000

 Molecular mass:    39.02348 amu.
 Principal axes and moments of inertia in atomic units:
                           1         2         3
     Eigenvalues --    58.25433  58.25433 116.50866
           X            0.00000   1.00000   0.00000
           Y            1.00000   0.00000   0.00000
           Z            0.00000   0.00000   1.00000
 This molecule is an oblate symmetric top.
 Rotational symmetry number  6.
 Rotational temperatures (Kelvin)      1.48682     1.48682     0.74341
 Rotational constants (GHZ):          30.98038    30.98038    15.49019
 Zero-point vibrational energy     118433.4 (Joules/Mol)
                                   28.30627 (Kcal/Mol)
 Vibrational temperatures:   1112.62  1352.66  1352.66  1465.58  1465.58
          (Kelvin)           1513.46  1895.65  1895.65  2394.46  4657.10
                             4657.10  4725.99

 Zero-point correction=                           0.045109 (Hartree/Particle)
 Thermal correction to Energy=                    0.048243
 Thermal correction to Enthalpy=                  0.049187
 Thermal correction to Gibbs Free Energy=         0.023181
 Sum of electronic and zero-point Energies=           -115.725796
 Sum of electronic and thermal Energies=              -115.722663
 Sum of electronic and thermal Enthalpies=            -115.721718
 Sum of electronic and thermal Free Energies=         -115.747725

                     E (Thermal)             CV                S
                      KCal/Mol        Cal/Mol-Kelvin    Cal/Mol-Kelvin
 Total                   30.273              8.912             54.735
 Electronic               0.000              0.000              0.000
 Translational            0.889              2.981             36.913
 Rotational               0.889              2.981             17.047
 Vibrational             28.495              2.950              0.774

 Optimization completed.
    -- Stationary point found.
 Normal termination of Gaussian 09 at Tue Jul 19 12:33:20 2016.
