 Gaussian 09, Revision E.01,
 Gaussian 09:  EM64L-G09RevE.01 30-Nov-2015

 ---------------------------------------------
 #p b3lyp/6-311++G(3df,2p) freq symmetry=Loose
 ---------------------------------------------

 ---------
 b3lyp opt
 ---------
 Symbolic Z-matrix:
 Charge =  3 Multiplicity = 1

                         Standard orientation:
 ---------------------------------------------------------------------
 Center     Atomic      Atomic             Coordinates (Angstroms)
 Number     Number       Type             X           Y           Z
 ---------------------------------------------------------------------
      1          6           0        0.038522    0.404493   -0.000799
      2          1           0        0.101689    1.561155    0.000830
      3          6           0        1.742594   -0.316144    0.000232
      4          1           0       -1.806685   -0.453842   -0.962528
      5          6           0       -1.196234   -0.197648    0.000004
      6          1           0       -1.804299   -0.451517    0.965076
 ---------------------------------------------------------------------

 SCF Done:  E(RB3LYP) =  -114.018334433     A.U. after   12 cycles

 The electronic state is 1-A.
 Alpha  occ. eigenvalues --  -11.32515 -11.13139 -11.09551  -1.62247  -1.47473
 Alpha  occ. eigenvalues --   -1.34553  -1.25882  -1.22085  -1.17347
 Alpha virt. eigenvalues --   -1.01000  -0.98553  -0.93733  -0.90551  -0.77397
 Alpha virt. eigenvalues --   -0.57458  -0.57135  -0.53331  -0.50664  -0.48262
 Alpha virt. eigenvalues --   -0.45049  -0.44955  -0.43503  -0.43350  -0.39411

 Mulliken charges:
               1
     1  C    0.309821
     2  H    0.372781
     3  C    1.181948
     4  H    0.392979
     5  C    0.349506
     6  H    0.392965
 Sum of Mulliken charges =   3.00000

 Dipole moment (field-independent basis, Debye):
    X=              0.4879    Y=             -0.1777    Z=              0.0039  Tot=              0.5193
 Quadrupole moment (field-independent basis, Debye-Ang):
   XX=             18.2867   YY=             -5.8467   ZZ=             -8.3696
   XY=              1.2084   XZ=             -0.0040   YZ=              0.0031

  Exact polarizability:  44.736   1.221  20.175  -0.006   0.000  17.695
 Approx polarizability:  84.236   2.070  32.440  -0.015  -0.007  26.605

                      1                      2                      3
                      A                      A                      A
 Frequencies --    306.2080               412.7110               430.0514
 Red. masses --      3.9894                 8.1091                 1.2165
 Frc consts  --      0.2204                 0.8138                 0.1326
 IR Inten    --      7.8546               268.9685                41.7195

                      4                      5                      6
                      A                      A                      A
 Frequencies --    581.5673               864.7530               977.9670
 Red. masses --      1.4159                 1.1165                 1.2565
 Frc consts  --      0.2822                 0.4919                 0.7080
 IR Inten    --     26.3071                51.9154                15.4938

                      7                      8                      9
                      A                      A                      A
 Frequencies --   1062.0553              1069.4562              1215.3557
 Red. masses --      1.2930                 1.2090                 5.5482
 Frc consts  --      0.8593                 0.8147                 4.8284
 IR Inten    --    185.4994               107.1914               155.2245

                     10                     11                     12
                      A                      A                      A
 Frequencies --   2363.4399              2372.5016              2474.6444
 Red. masses --      1.0996                 1.0485                 1.0792
 Frc consts  --      3.6190                 3.4772                 3.8939
 IR Inten    --    679.3701              1248.6263               466.5074

 - Thermochemistry -
 -------------------
 Temperature   298.150 Kelvin.  Pressure   1.00000 Atm.
 Atom     1 has atomic number  6 and mass  12.00000

 Molecular mass:    39.02348 amu.
 Principal axes and moments of inertia in atomic units:
                           1         2         3
     Eigenvalues --    29.66465 220.78925 237.08115
           X            0.99948   0.03218  -0.00003
           Y           -0.03218   0.99948   0.00051
           Z            0.00004  -0.00051   1.00000
 This molecule is an asymmetric top.
 Rotational symmetry number  1.
 Rotational temperatures (Kelvin)      2.91977     0.39229     0.36533
 Rotational constants (GHZ):          60.83811     8.17404     7.61234
 Zero-point vibrational energy      84520.4 (Joules/Mol)
                                   20.20087 (Kcal/Mol)
 Warning -- explicit consideration of   4 degrees of freedom as
           vibrations may cause significant error
 Vibrational temperatures:    440.56   593.80   618.75   836.74  1244.19
          (Kelvin)           1407.07  1528.06  1538.71  1748.62  3400.46
                             3413.50  3560.46

 Zero-point correction=                           0.032192 (Hartree/Particle)
 Thermal correction to Energy=                    0.036361
 Thermal correction to Enthalpy=                  0.037305
 Thermal correction to Gibbs Free Energy=         0.007387
 Sum of electronic and zero-point Energies=           -113.986142
 Sum of electronic and thermal Energies=              -113.981974
 Sum of electronic and thermal Enthalpies=            -113.981029
 Sum of electronic and thermal Free Energies=         -114.010947

                     E (Thermal)             CV                S
                      KCal/Mol        Cal/Mol-Kelvin    Cal/Mol-Kelvin
 Total                   22.817             13.318             62.967
 Electronic               0.000              0.000              0.000
 Translational            0.889              2.981             36.913
 Rotational               0.889              2.981             21.967
 Vibrational             21.039              7.356              4.087
 Vibration     1          0.697              1.662              1.383
 Vibration     2          0.776              1.443              0.917
 Vibration     3          0.791              1.405              0.858
 Vibration     4          0.938              1.071              0.482

 Normal termination of Gaussian 09 at Sun Jun 19 05:40:33 2016.
