 Gaussian 09, Revision E.01,
 Gaussian 09:  EM64L-G09RevE.01 30-Nov-2015

 ---------------------------------------------
 #p b3lyp/6-311++G(3df,2p) freq symmetry=Loose
 ---------------------------------------------

 ---------
 b3lyp opt
 ---------
 Symbolic Z-matrix:
 Charge =  0 Multiplicity = 4

                         Standard orientation:
 ---------------------------------------------------------------------
 Center     Atomic      Atomic             Coordinates (Angstroms)
 Number     Number       Type             X           Y           Z
 ---------------------------------------------------------------------
      1          6           0       -0.894021   -0.616276    0.000000
      2          6           0        0.000000    0.423618   -0.000000
      3          6           0        1.378048    0.294782   -0.000000
      4          1           0       -1.956336   -0.414055    0.000000
      5          1           0       -0.569516   -1.646188    0.000000
      6          1           0       -0.378313    1.447505    0.000000
 ---------------------------------------------------------------------

 SCF Done:  E(UB3LYP) =  -115.908915479     A.U. after   14 cycles

 The electronic state is 4-A".
 Alpha  occ. eigenvalues --  -10.24595 -10.21375 -10.19109  -0.82059  -0.68833
 Alpha  occ. eigenvalues --   -0.54841  -0.47527  -0.42502  -0.37147  -0.35019
 Alpha  occ. eigenvalues --   -0.23722  -0.22306
 Alpha virt. eigenvalues --   -0.00060   0.00584   0.01608   0.02958   0.05889
 Alpha virt. eigenvalues --    0.06338   0.07626   0.09657   0.09719   0.11475
 Alpha virt. eigenvalues --    0.12137   0.12277   0.12786   0.13723   0.15118

  Beta  occ. eigenvalues --  -10.21450 -10.20576 -10.18156  -0.79285  -0.63670
  Beta  occ. eigenvalues --   -0.51542  -0.45297  -0.39595  -0.31242
  Beta virt. eigenvalues --   -0.17412  -0.08334  -0.05214   0.00347   0.01786
  Beta virt. eigenvalues --    0.03041   0.03479   0.06866   0.07660   0.08556
  Beta virt. eigenvalues --    0.09963   0.10744   0.11961   0.12719   0.13085

 Mulliken charges and spin densities:
               1          2
     1  C   -0.383320   0.667935
     2  C    0.223248  -0.345671
     3  C   -0.280399   2.621367
     4  H    0.144653  -0.000627
     5  H    0.156877  -0.016163
     6  H    0.138940   0.073160
 Sum of Mulliken charges =  -0.00000   3.00000

 Dipole moment (field-independent basis, Debye):
    X=             -0.8438    Y=              0.0330    Z=              0.0000  Tot=              0.8445
 Quadrupole moment (field-independent basis, Debye-Ang):
   XX=            -18.0960   YY=            -17.3907   ZZ=            -20.8337
   XY=             -0.2779   XZ=              0.0000   YZ=              0.0000

  Exact polarizability:  51.359   6.781  36.597   0.003  -0.004  27.997
 Approx polarizability:  76.366  10.893  49.916  -0.000  -0.000  36.482

                      1                      2                      3
                     A'                     A"                     A"
 Frequencies --    478.5274               601.0297               820.2832
 Red. masses --      2.9750                 1.3779                 1.3604
 Frc consts  --      0.4014                 0.2933                 0.5393
 IR Inten    --      0.1774                11.4220                46.8388

                      4                      5                      6
                     A"                     A'                     A'
 Frequencies --    874.2269               991.9506              1173.1716
 Red. masses --      1.2258                 1.5331                 3.3492
 Frc consts  --      0.5520                 0.8888                 2.7159
 IR Inten    --     12.6946                 1.6577                23.3590

                      7                      8                      9
                     A'                     A'                     A'
 Frequencies --   1232.8214              1338.7317              1493.5252
 Red. masses --      2.3451                 1.4988                 1.3616
 Frc consts  --      2.1000                 1.5826                 1.7895
 IR Inten    --      0.0861                 9.0134                 6.3725

                     10                     11                     12
                     A'                     A'                     A'
 Frequencies --   3050.4082              3142.7352              3240.8659
 Red. masses --      1.0832                 1.0543                 1.1175
 Frc consts  --      5.9385                 6.1353                 6.9157
 IR Inten    --      5.0038                 1.4515                 2.5225

 - Thermochemistry -
 -------------------
 Temperature   298.150 Kelvin.  Pressure   1.00000 Atm.
 Atom     1 has atomic number  6 and mass  12.00000

 Molecular mass:    39.02348 amu.
 Principal axes and moments of inertia in atomic units:
                           1         2         3
     Eigenvalues --    26.00293 149.88948 175.89242
           X            0.91765  -0.39738   0.00000
           Y            0.39738   0.91765   0.00000
           Z           -0.00000   0.00000   1.00000
 This molecule is an asymmetric top.
 Rotational symmetry number  1.
 Rotational temperatures (Kelvin)      3.33093     0.57785     0.49242
 Rotational constants (GHZ):          69.40530    12.04048    10.26048
 Zero-point vibrational energy     110285.4 (Joules/Mol)
                                   26.35884 (Kcal/Mol)
 Warning -- explicit consideration of   2 degrees of freedom as
           vibrations may cause significant error
 Vibrational temperatures:    688.49   864.75  1180.20  1257.82  1427.19
          (Kelvin)           1687.93  1773.75  1926.13  2148.85  4388.85
                             4521.69  4662.88

 Zero-point correction=                           0.042005 (Hartree/Particle)
 Thermal correction to Energy=                    0.045456
 Thermal correction to Enthalpy=                  0.046400
 Thermal correction to Gibbs Free Energy=         0.016683
 Sum of electronic and zero-point Energies=           -115.866910
 Sum of electronic and thermal Energies=              -115.863459
 Sum of electronic and thermal Enthalpies=            -115.862515
 Sum of electronic and thermal Free Energies=         -115.892232

                     E (Thermal)             CV                S
                      KCal/Mol        Cal/Mol-Kelvin    Cal/Mol-Kelvin
 Total                   28.524             10.444             62.545
 Electronic               0.000              0.000              2.755
 Translational            0.889              2.981             36.913
 Rotational               0.889              2.981             21.155
 Vibrational             26.747              4.482              1.722
 Vibration     1          0.835              1.298              0.714
 Vibration     2          0.959              1.030              0.448

 Optimization completed.
    -- Stationary point found.
 Normal termination of Gaussian 09 at Sun Jun 19 05:35:10 2016.
