 Gaussian 09, Revision E.01,
 Gaussian 09:  EM64L-G09RevE.01 30-Nov-2015

 ---------------------------------------------
 #p b3lyp/6-311++G(3df,2p) freq symmetry=Loose
 ---------------------------------------------

 ---------
 b3lyp opt
 ---------
 Symbolic Z-matrix:
 Charge =  3 Multiplicity = 3

                         Standard orientation:
 ---------------------------------------------------------------------
 Center     Atomic      Atomic             Coordinates (Angstroms)
 Number     Number       Type             X           Y           Z
 ---------------------------------------------------------------------
      1          6           0        0.004543   -1.373016    0.000000
      2          1           0        1.005700   -1.943925    0.000000
      3          1           0       -0.993116   -1.950104    0.000000
      4          6           0        0.000000    0.109743    0.000000
      5          6           0       -0.005108    1.472476    0.000000
      6          1           0       -0.009196    2.638812    0.000000
 ---------------------------------------------------------------------

 SCF Done:  E(UB3LYP) =  -114.075928364     A.U. after   13 cycles

 The electronic state is 3-A".
 Alpha  occ. eigenvalues --  -11.22528 -11.21358 -11.14830  -1.70974  -1.57434
 Alpha  occ. eigenvalues --   -1.36542  -1.30808  -1.26778  -1.22618  -1.17784
 Alpha virt. eigenvalues --   -0.98858  -0.89885  -0.83794  -0.75448  -0.61440
 Alpha virt. eigenvalues --   -0.56476  -0.53101  -0.52641  -0.46002  -0.45889
 Alpha virt. eigenvalues --   -0.45472  -0.44172  -0.44042  -0.39396  -0.37840

  Beta  occ. eigenvalues --  -11.21088 -11.19544 -11.14722  -1.64112  -1.55002
  Beta  occ. eigenvalues --   -1.34345  -1.29653  -1.23747
  Beta virt. eigenvalues --   -1.07537  -1.03942  -0.94730  -0.81870  -0.77085
  Beta virt. eigenvalues --   -0.71042  -0.60369  -0.55804  -0.52203  -0.51857
  Beta virt. eigenvalues --   -0.45024  -0.44908  -0.44884  -0.43572  -0.42555

 Mulliken charges and spin densities:
               1          2
     1  C   -0.006774   0.111157
     2  H    0.412425   0.029914
     3  H    0.412375   0.029913
     4  C    0.585480   1.061613
     5  C    1.028148   0.792348
     6  H    0.568346  -0.024944
 Sum of Mulliken charges =   3.00000   2.00000

 Dipole moment (field-independent basis, Debye):
    X=             -0.0037    Y=              0.8551    Z=              0.0000  Tot=              0.8551
 Quadrupole moment (field-independent basis, Debye-Ang):
   XX=             -8.7687   YY=             28.5423   ZZ=            -11.3729
   XY=             -0.1268   XZ=              0.0000   YZ=              0.0000

  Exact polarizability:  15.797  -0.101  45.576   0.000  -0.000  12.959
 Approx polarizability:  21.289  -0.169  70.354  -0.000  -0.000  18.456

                      1                      2                      3
                     A"                     A'                     A'
 Frequencies --    282.3623               304.6432               623.3676
 Red. masses --      3.3691                 2.6312                 1.2832
 Frc consts  --      0.1583                 0.1439                 0.2938
 IR Inten    --     32.8435                32.7070                32.4454

                      4                      5                      6
                     A'                     A"                     A'
 Frequencies --    707.3785               750.6812               856.3349
 Red. masses --      8.3922                 1.3411                 1.4073
 Frc consts  --      2.4742                 0.4453                 0.6080
 IR Inten    --     10.0072                18.0809                 3.8365

                      7                      8                      9
                     A"                     A'                     A'
 Frequencies --   1057.4564              1181.1004              1492.8822
 Red. masses --      1.3449                 1.0717                 4.9714
 Frc consts  --      0.8861                 0.8809                 6.5280
 IR Inten    --     34.1866               118.2903               438.5539

                     10                     11                     12
                     A'                     A'                     A'
 Frequencies --   2441.7281              2508.5577              2565.6242
 Red. masses --      1.0688                 1.1313                 1.1276
 Frc consts  --      3.7544                 4.1944                 4.3731
 IR Inten    --   1869.3699                87.4514               616.3797

 - Thermochemistry -
 -------------------
 Temperature   298.150 Kelvin.  Pressure   1.00000 Atm.
 Atom     1 has atomic number  6 and mass  12.00000

 Molecular mass:    39.02348 amu.
 Principal axes and moments of inertia in atomic units:
                           1         2         3
     Eigenvalues --     7.18957 226.42228 233.61185
           X           -0.00339   0.99999   0.00000
           Y            0.99999   0.00339   0.00000
           Z           -0.00000   0.00000   1.00000
 This molecule is an asymmetric top.
 Rotational symmetry number  1.
 Rotational temperatures (Kelvin)     12.04715     0.38253     0.37076
 Rotational constants (GHZ):         251.02210     7.97069     7.72538
 Zero-point vibrational energy      88356.9 (Joules/Mol)
                                   21.11780 (Kcal/Mol)
 Warning -- explicit consideration of   2 degrees of freedom as
           vibrations may cause significant error
 Vibrational temperatures:    406.26   438.31   896.89  1017.76  1080.06
          (Kelvin)           1232.07  1521.44  1699.34  2147.92  3513.10
                             3609.25  3691.36

 Zero-point correction=                           0.033653 (Hartree/Particle)
 Thermal correction to Energy=                    0.037811
 Thermal correction to Enthalpy=                  0.038755
 Thermal correction to Gibbs Free Energy=         0.008425
 Sum of electronic and zero-point Energies=           -114.042275
 Sum of electronic and thermal Energies=              -114.038118
 Sum of electronic and thermal Enthalpies=            -114.037174
 Sum of electronic and thermal Free Energies=         -114.067503

                     E (Thermal)             CV                S
                      KCal/Mol        Cal/Mol-Kelvin    Cal/Mol-Kelvin
 Total                   23.726             13.046             63.834
 Electronic               0.000              0.000              2.183
 Translational            0.889              2.981             36.913
 Rotational               0.889              2.981             20.569
 Vibrational             21.949              7.085              4.168
 Vibration     1          0.681              1.706              1.519
 Vibration     2          0.696              1.665              1.391

 Optimization completed.
    -- Stationary point found.
 Normal termination of Gaussian 09 at Sun Jun 19 05:40:50 2016.
