 Gaussian 09, Revision E.01,
 Gaussian 09:  EM64L-G09RevE.01 30-Nov-2015

 ---------------------------------------------
 #p b3lyp/6-311++G(3df,2p) freq symmetry=Loose
 ---------------------------------------------

 ---------
 b3lyp opt
 ---------
 Symbolic Z-matrix:
 Charge =  1 Multiplicity = 3

                         Standard orientation:
 ---------------------------------------------------------------------
 Center     Atomic      Atomic             Coordinates (Angstroms)
 Number     Number       Type             X           Y           Z
 ---------------------------------------------------------------------
      1          6           0        0.760671   -0.206309    0.000004
      2          1           0        1.325295   -0.490180    0.907475
      3          1           0        1.326492   -0.489058   -0.907050
      4          6           0       -0.176821    0.876421    0.000219
      5          6           0       -0.761460   -0.334340   -0.000416
      6          1           0       -1.586124   -1.035393    0.000732
 ---------------------------------------------------------------------

 SCF Done:  E(UB3LYP) =  -115.613920655     A.U. after   13 cycles

 The electronic state is 3-A.
 Alpha  occ. eigenvalues --  -10.55272 -10.54711 -10.49919  -1.21834  -0.91290
 Alpha  occ. eigenvalues --   -0.85769  -0.75709  -0.72835  -0.67087  -0.57798
 Alpha  occ. eigenvalues --   -0.55551
 Alpha virt. eigenvalues --   -0.32727  -0.17989  -0.17072  -0.14175  -0.13722
 Alpha virt. eigenvalues --   -0.13228  -0.10107  -0.07366  -0.07219  -0.07086
 Alpha virt. eigenvalues --   -0.05603  -0.04587  -0.02532  -0.01896  -0.01237

  Beta  occ. eigenvalues --  -10.53700 -10.53357 -10.49575  -1.18804  -0.88349
  Beta  occ. eigenvalues --   -0.83338  -0.71832  -0.67045  -0.64973
  Beta virt. eigenvalues --   -0.45699  -0.40721  -0.26383  -0.16788  -0.16387
  Beta virt. eigenvalues --   -0.13264  -0.13255  -0.11957  -0.09717  -0.06946
  Beta virt. eigenvalues --   -0.06382  -0.06100  -0.04792  -0.03825  -0.01893

 Mulliken charges and spin densities:
               1          2
     1  C   -0.193265   0.095664
     2  H    0.228360   0.112684
     3  H    0.228367   0.112686
     4  C    0.198464   1.126611
     5  C    0.207372   0.565055
     6  H    0.330702  -0.012699
 Sum of Mulliken charges =   1.00000   2.00000

 Dipole moment (field-independent basis, Debye):
    X=             -0.0796    Y=             -1.4697    Z=              0.0003  Tot=              1.4719
 Quadrupole moment (field-independent basis, Debye-Ang):
   XX=             -9.3550   YY=            -13.9743   ZZ=            -13.9664
   XY=              0.7883   XZ=             -0.0018   YZ=             -0.0026

  Exact polarizability:  31.665  -0.918  28.094   0.001   0.001  20.401
 Approx polarizability:  47.726  -1.002  48.751   0.006   0.009  29.423

                      1                      2                      3
                      A                      A                      A
 Frequencies --    584.1915               687.0821               734.3208
 Red. masses --      1.1422                 1.2007                 2.9422
 Frc consts  --      0.2297                 0.3340                 0.9348
 IR Inten    --      0.0177                15.5173                 2.8214

                      4                      5                      6
                      A                      A                      A
 Frequencies --    839.0232               910.0479               989.5442
 Red. masses --      1.3616                 1.4067                 1.3512
 Frc consts  --      0.5647                 0.6864                 0.7795
 IR Inten    --      9.9672                73.4987                60.7231

                      7                      8                      9
                      A                      A                      A
 Frequencies --   1148.8416              1259.6363              1509.8329
 Red. masses --      7.8709                 1.0625                 7.2133
 Frc consts  --      6.1206                 0.9933                 9.6882
 IR Inten    --     12.8010                96.9935                 6.5652

                     10                     11                     12
                      A                      A                      A
 Frequencies --   2888.1053              2910.5339              3227.4179
 Red. masses --      1.0485                 1.0958                 1.1112
 Frc consts  --      5.1530                 5.4692                 6.8198
 IR Inten    --    151.5755                83.2793               116.9679

 - Thermochemistry -
 -------------------
 Temperature   298.150 Kelvin.  Pressure   1.00000 Atm.
 Atom     1 has atomic number  6 and mass  12.00000

 Molecular mass:    39.02348 amu.
 Principal axes and moments of inertia in atomic units:
                           1         2         3
     Eigenvalues --    50.63535  78.55099 117.33659
           X            0.99932   0.03674  -0.00009
           Y           -0.03675   0.99932  -0.00019
           Z            0.00008   0.00019   1.00000
 This molecule is an asymmetric top.
 Rotational symmetry number  1.
 Rotational temperatures (Kelvin)      1.71054     1.10264     0.73817
 Rotational constants (GHZ):          35.64192    22.97541    15.38089
 Zero-point vibrational energy     105801.2 (Joules/Mol)
                                   25.28709 (Kcal/Mol)
 Warning -- explicit consideration of   1 degrees of freedom as
           vibrations may cause significant error
 Vibrational temperatures:    840.52   988.56  1056.52  1207.17  1309.35
          (Kelvin)           1423.73  1652.92  1812.33  2172.31  4155.33
                             4187.60  4643.53

 Zero-point correction=                           0.040298 (Hartree/Particle)
 Thermal correction to Energy=                    0.043713
 Thermal correction to Enthalpy=                  0.044657
 Thermal correction to Gibbs Free Energy=         0.015465
 Sum of electronic and zero-point Energies=           -115.573623
 Sum of electronic and thermal Energies=              -115.570207
 Sum of electronic and thermal Enthalpies=            -115.569263
 Sum of electronic and thermal Free Energies=         -115.598456

                     E (Thermal)             CV                S
                      KCal/Mol        Cal/Mol-Kelvin    Cal/Mol-Kelvin
 Total                   27.430             10.593             61.441
 Electronic               0.000              0.000              2.183
 Translational            0.889              2.981             36.913
 Rotational               0.889              2.981             20.773
 Vibrational             25.653              4.631              1.572
 Vibration     1          0.941              1.066              0.478

 Optimization completed.
    -- Stationary point found.
 Normal termination of Gaussian 09 at Sun Jun 19 05:38:24 2016.
