 Gaussian 09, Revision E.01,
 Gaussian 09:  EM64L-G09RevE.01 30-Nov-2015

 ---------------------------------------------
 #p b3lyp/6-311++G(3df,2p) freq symmetry=Loose
 ---------------------------------------------

 ---------
 b3lyp opt
 ---------
 Symbolic Z-matrix:
 Charge =  2 Multiplicity = 4

                         Standard orientation:
 ---------------------------------------------------------------------
 Center     Atomic      Atomic             Coordinates (Angstroms)
 Number     Number       Type             X           Y           Z
 ---------------------------------------------------------------------
      1          6           0       -1.092390   -0.578366    0.000426
      2          1           0        1.469041   -0.417554    0.955300
      3          6           0        0.979490   -0.112749    0.000002
      4          1           0        1.468390   -0.421650   -0.954510
      5          6           0       -0.278377    0.559254   -0.000526
      6          1           0       -0.589768    1.630371   -0.000205
 ---------------------------------------------------------------------

 SCF Done:  E(UB3LYP) =  -114.917296396     A.U. after   14 cycles

 The electronic state is 4-A.
 Alpha  occ. eigenvalues --  -10.92113 -10.86238 -10.83475  -1.45463  -1.24260
 Alpha  occ. eigenvalues --   -1.12367  -1.03887  -1.02225  -0.96754  -0.88834
 Alpha  occ. eigenvalues --   -0.83720
 Alpha virt. eigenvalues --   -0.65715  -0.62923  -0.38660  -0.36214  -0.32611
 Alpha virt. eigenvalues --   -0.32463  -0.29313  -0.27855  -0.26266  -0.25633
 Alpha virt. eigenvalues --   -0.24417  -0.23729  -0.22667  -0.20750  -0.20474

  Beta  occ. eigenvalues --  -10.88022 -10.85457 -10.82907  -1.40783  -1.19130
  Beta  occ. eigenvalues --   -1.07512  -1.01389  -0.99448
  Beta virt. eigenvalues --   -0.74383  -0.73144  -0.69481  -0.56518  -0.53497
  Beta virt. eigenvalues --   -0.37440  -0.35048  -0.31872  -0.30752  -0.27588
  Beta virt. eigenvalues --   -0.26263  -0.24972  -0.24516  -0.23057  -0.22367

 Mulliken charges and spin densities:
               1          2
     1  C    0.469154   2.192305
     2  H    0.321922   0.046038
     3  C    0.040458   0.328852
     4  H    0.322067   0.045969
     5  C    0.509580   0.320785
     6  H    0.336818   0.066051
 Sum of Mulliken charges =   2.00000   3.00000

 Dipole moment (field-independent basis, Debye):
    X=              0.5153    Y=              0.0694    Z=              0.0005  Tot=              0.5200
 Quadrupole moment (field-independent basis, Debye-Ang):
   XX=             -1.4276   YY=             -7.5876   ZZ=            -11.3026
   XY=             -0.6937   XZ=              0.0012   YZ=              0.0029

  Exact polarizability:  36.882   1.118  22.505  -0.001   0.001  17.263
 Approx polarizability:  70.796   9.642  36.543  -0.007  -0.005  23.999

                      1                      2                      3
                      A                      A                      A
 Frequencies --    279.1032               511.7033               677.7206
 Red. masses --      5.4399                 1.0730                 1.1214
 Frc consts  --      0.2497                 0.1655                 0.3035
 IR Inten    --     12.4200                 1.7070                31.1538

                      4                      5                      6
                      A                      A                      A
 Frequencies --    931.0867               961.0311              1083.0683
 Red. masses --      1.6224                 1.3136                 1.3287
 Frc consts  --      0.8287                 0.7148                 0.9183
 IR Inten    --      8.2173                41.6275                27.3711

                      7                      8                      9
                      A                      A                      A
 Frequencies --   1185.1182              1258.0275              1281.5146
 Red. masses --      3.1839                 3.5687                 1.3615
 Frc consts  --      2.6347                 3.3276                 1.3174
 IR Inten    --      8.8458                49.6093                55.1732

                     10                     11                     12
                      A                      A                      A
 Frequencies --   2810.0337              2869.4372              2902.1691
 Red. masses --      1.0445                 1.0951                 1.1149
 Frc consts  --      4.8594                 5.3126                 5.5329
 IR Inten    --    445.9652               252.4038               262.2491

 - Thermochemistry -
 -------------------
 Temperature   298.150 Kelvin.  Pressure   1.00000 Atm.
 Atom     1 has atomic number  6 and mass  12.00000

 Molecular mass:    39.02348 amu.
 Principal axes and moments of inertia in atomic units:
                           1         2         3
     Eigenvalues --    44.83683 119.20290 150.91277
           X            0.99470  -0.10283   0.00004
           Y            0.10283   0.99470   0.00035
           Z           -0.00008  -0.00034   1.00000
 This molecule is an asymmetric top.
 Rotational symmetry number  1.
 Rotational temperatures (Kelvin)      1.93176     0.72661     0.57393
 Rotational constants (GHZ):          40.25131    15.14008    11.95884
 Zero-point vibrational energy     100187.3 (Joules/Mol)
                                   23.94535 (Kcal/Mol)
 Warning -- explicit consideration of   2 degrees of freedom as
           vibrations may cause significant error
 Vibrational temperatures:    401.57   736.23   975.09  1339.62  1382.71
          (Kelvin)           1558.29  1705.12  1810.02  1843.81  4043.01
                             4128.48  4175.57

 Zero-point correction=                           0.038159 (Hartree/Particle)
 Thermal correction to Energy=                    0.041937
 Thermal correction to Enthalpy=                  0.042881
 Thermal correction to Gibbs Free Energy=         0.012524
 Sum of electronic and zero-point Energies=           -114.879137
 Sum of electronic and thermal Energies=              -114.875359
 Sum of electronic and thermal Enthalpies=            -114.874415
 Sum of electronic and thermal Free Energies=         -114.904773

                     E (Thermal)             CV                S
                      KCal/Mol        Cal/Mol-Kelvin    Cal/Mol-Kelvin
 Total                   26.316             11.489             63.892
 Electronic               0.000              0.000              2.755
 Translational            0.889              2.981             36.913
 Rotational               0.889              2.981             21.316
 Vibrational             24.538              5.528              2.908
 Vibration     1          0.679              1.712              1.539
 Vibration     2          0.867              1.224              0.630

 Normal termination of Gaussian 09 at Sun Jun 19 05:38:24 2016.
