 Gaussian 09, Revision E.01,
 Gaussian 09:  EM64L-G09RevE.01 30-Nov-2015

 ---------------------------------------------
 #p b3lyp/6-311++G(3df,2p) freq symmetry=Loose
 ---------------------------------------------

 ---------
 b3lyp opt
 ---------
 Symbolic Z-matrix:
 Charge =  2 Multiplicity = 2

                         Standard orientation:
 ---------------------------------------------------------------------
 Center     Atomic      Atomic             Coordinates (Angstroms)
 Number     Number       Type             X           Y           Z
 ---------------------------------------------------------------------
      1          6           0       -0.424697   -0.312802    0.240890
      2          1           0       -0.781215   -1.028516    1.051348
      3          6           0       -1.637102    0.148983   -0.270865
      4          6           0        0.996162   -0.492410   -0.206334
      5          6           0        0.786954    0.749796    0.091368
      6          1           0        1.632308   -1.377889   -0.338254
      7          1           0        0.821009    1.845004    0.156548
 ---------------------------------------------------------------------

 SCF Done:  E(UB3LYP) =  -153.080458781     A.U. after   20 cycles

 The electronic state is 2-A.
 Alpha  occ. eigenvalues --  -10.87298 -10.80851 -10.78943 -10.78208  -1.46565
 Alpha  occ. eigenvalues --   -1.29689  -1.11866  -1.05016  -1.03326  -0.96669
 Alpha  occ. eigenvalues --   -0.90674  -0.85657  -0.82076
 Alpha virt. eigenvalues --   -0.64364  -0.62557  -0.54498  -0.43727  -0.35946
 Alpha virt. eigenvalues --   -0.35070  -0.32771  -0.31142  -0.30191  -0.27098
 Alpha virt. eigenvalues --   -0.25797  -0.24719  -0.22687  -0.21359  -0.20918

  Beta  occ. eigenvalues --  -10.86620 -10.80349 -10.78628 -10.77986  -1.45266
  Beta  occ. eigenvalues --   -1.27529  -1.10946  -1.04252  -1.02132  -0.95486
  Beta  occ. eigenvalues --   -0.88305  -0.83755
  Beta virt. eigenvalues --   -0.71364  -0.63418  -0.60666  -0.51550  -0.42618
  Beta virt. eigenvalues --   -0.35337  -0.34254  -0.32345  -0.30776  -0.29900
  Beta virt. eigenvalues --   -0.26812  -0.25325  -0.24311  -0.22381  -0.21277

 Mulliken charges and spin densities:
               1          2
     1  C    0.220436   0.058303
     2  H    0.301252   0.051193
     3  C    0.187397   0.401575
     4  C    0.226008   0.176217
     5  C    0.280275   0.322606
     6  H    0.375144  -0.004660
     7  H    0.409487  -0.005234
 Sum of Mulliken charges =   2.00000   1.00000

 Dipole moment (field-independent basis, Debye):
    X=              0.5683    Y=             -0.1475    Z=              0.7226  Tot=              0.9310
 Quadrupole moment (field-independent basis, Debye-Ang):
   XX=             -5.1547   YY=             -7.9977   ZZ=            -17.1109
   XY=              0.1985   XZ=             -1.5643   YZ=             -0.6306

  Exact polarizability:  58.090  -1.801  31.779   0.886  -0.548  23.650
 Approx polarizability: 124.269  -2.019  53.310   8.403  -1.514  39.173

                      1                      2                      3
                      A                      A                      A
 Frequencies --    212.6865               257.5831               346.0564
 Red. masses --      3.8752                 4.5428                 5.7080
 Frc consts  --      0.1033                 0.1776                 0.4027
 IR Inten    --      3.9830                10.2493                37.6280

                      4                      5                      6
                      A                      A                      A
 Frequencies --    535.4808               750.7950               769.6473
 Red. masses --      1.6123                 1.2040                 1.5262
 Frc consts  --      0.2724                 0.3999                 0.5326
 IR Inten    --     46.7317                52.4805                29.4846

                      7                      8                      9
                      A                      A                      A
 Frequencies --    815.4133               891.5300               935.6382
 Red. masses --      2.3591                 1.1660                 1.1283
 Frc consts  --      0.9242                 0.5460                 0.5819
 IR Inten    --     11.9743                33.2577                 3.7728

                     10                     11                     12
                      A                      A                      A
 Frequencies --   1000.3182              1236.5133              1614.5383
 Red. masses --      1.5322                 4.5129                 4.6258
 Frc consts  --      0.9033                 4.0654                 7.1045
 IR Inten    --      5.0762               133.3178               202.0961

                     13                     14                     15
                      A                      A                      A
 Frequencies --   2643.0074              3049.2780              3117.0629
 Red. masses --      1.0739                 1.0889                 1.1668
 Frc consts  --      4.4200                 5.9652                 6.6793
 IR Inten    --    406.6538               497.4754               123.5979

 - Thermochemistry -
 -------------------
 Temperature   298.150 Kelvin.  Pressure   1.00000 Atm.
 Atom     1 has atomic number  6 and mass  12.00000

 Molecular mass:    51.02348 amu.
 Principal axes and moments of inertia in atomic units:
                           1         2         3
     Eigenvalues --    74.63831 217.87189 268.28125
           X            0.99975   0.00054  -0.02228
           Y           -0.00107   0.99972  -0.02369
           Z            0.02226   0.02371   0.99947
 This molecule is an asymmetric top.
 Rotational symmetry number  1.
 Rotational temperatures (Kelvin)      1.16045     0.39754     0.32285
 Rotational constants (GHZ):          24.17982     8.28350     6.72705
 Zero-point vibrational energy     108713.9 (Joules/Mol)
                                   25.98325 (Kcal/Mol)
 Warning -- explicit consideration of   4 degrees of freedom as
           vibrations may cause significant error
 Vibrational temperatures:    306.01   370.60   497.90   770.44  1080.23
          (Kelvin)           1107.35  1173.20  1282.71  1346.17  1439.23
                             1779.06  2322.96  3802.69  4387.23  4484.75

 Zero-point correction=                           0.041407 (Hartree/Particle)
 Thermal correction to Energy=                    0.046234
 Thermal correction to Enthalpy=                  0.047178
 Thermal correction to Gibbs Free Energy=         0.014573
 Sum of electronic and zero-point Energies=           -153.039052
 Sum of electronic and thermal Energies=              -153.034225
 Sum of electronic and thermal Enthalpies=            -153.033280
 Sum of electronic and thermal Free Energies=         -153.065885

                     E (Thermal)             CV                S
                      KCal/Mol        Cal/Mol-Kelvin    Cal/Mol-Kelvin
 Total                   29.012             15.926             68.623
 Electronic               0.000              0.000              1.377
 Translational            0.889              2.981             37.712
 Rotational               0.889              2.981             22.994
 Vibrational             27.235              9.964              6.540
 Vibration     1          0.644              1.822              2.020
 Vibration     2          0.667              1.750              1.678
 Vibration     3          0.724              1.583              1.184
 Vibration     4          0.890              1.172              0.575

 Optimization completed.
    -- Stationary point found.
 Normal termination of Gaussian 09 at Sun Jun 19 06:25:20 2016.
