 Gaussian 09, Revision E.01,
 Gaussian 09:  EM64L-G09RevE.01 30-Nov-2015

 ---------------------------------------------
 #p b3lyp/6-311++G(3df,2p) freq symmetry=Loose
 ---------------------------------------------

 ---------
 b3lyp opt
 ---------
 Symbolic Z-matrix:
 Charge =  0 Multiplicity = 2

                         Standard orientation:
 ---------------------------------------------------------------------
 Center     Atomic      Atomic             Coordinates (Angstroms)
 Number     Number       Type             X           Y           Z
 ---------------------------------------------------------------------
      1          6           0        0.786055    0.428824   -0.017657
      2          1           0        1.021521    1.275264   -0.679316
      3          1           0        1.130980    0.767948    0.995394
      4          6           0        1.764536   -0.641767   -0.035903
      5          6           0       -0.636426    0.112679    0.004834
      6          6           0       -1.800850   -0.170001   -0.002776
      7          1           0       -2.832395   -0.421622   -0.007066
 ---------------------------------------------------------------------

 SCF Done:  E(UB3LYP) =  -154.016739386     A.U. after   20 cycles

 The electronic state is 2-A.
 Alpha  occ. eigenvalues --  -10.25343 -10.23326 -10.19687 -10.18438  -0.84374
 Alpha  occ. eigenvalues --   -0.75477  -0.60603  -0.54419  -0.50130  -0.48042
 Alpha  occ. eigenvalues --   -0.33615  -0.30147  -0.28949  -0.23108
 Alpha virt. eigenvalues --   -0.11039  -0.01484   0.00100   0.00605   0.01804
 Alpha virt. eigenvalues --    0.03214   0.04705   0.05326   0.07336   0.08161
 Alpha virt. eigenvalues --    0.08375   0.09641   0.10357   0.10824   0.11895

  Beta  occ. eigenvalues --  -10.23896 -10.23407 -10.19542 -10.18432  -0.83487
  Beta  occ. eigenvalues --   -0.75030  -0.58697  -0.53613  -0.49243  -0.47677
  Beta  occ. eigenvalues --   -0.32077  -0.30035  -0.28061
  Beta virt. eigenvalues --   -0.09529  -0.07467  -0.01384   0.00224   0.00658
  Beta virt. eigenvalues --    0.01975   0.03249   0.04872   0.05666   0.07357
  Beta virt. eigenvalues --    0.08297   0.08450   0.10105   0.10659   0.11055

 Mulliken charges and spin densities:
               1          2
     1  C   -0.538741   0.009461
     2  H    0.169290   0.049274
     3  H    0.200166  -0.010293
     4  C   -0.436474   0.964146
     5  C   -0.195536   0.025953
     6  C    0.485017  -0.038848
     7  H    0.316278   0.000307
 Sum of Mulliken charges =  -0.00000   1.00000

 Dipole moment (field-independent basis, Debye):
    X=             -1.3270    Y=              1.9114    Z=              0.1454  Tot=              2.3314
 Quadrupole moment (field-independent basis, Debye-Ang):
   XX=            -25.1010   YY=            -26.0724   ZZ=            -23.7422
   XY=              5.1558   XZ=              0.4567   YZ=              0.4517

  Exact polarizability:  67.123   0.872  41.203   0.186  -0.337  35.872
 Approx polarizability:  97.779   4.267  57.543   1.106   1.650  52.916

                      1                      2                      3
                      A                      A                      A
 Frequencies --    201.4919               291.9902               425.3154
 Red. masses --      5.0700                 2.2004                 2.0274
 Frc consts  --      0.1213                 0.1105                 0.2161
 IR Inten    --     12.7843                 7.6928                22.8576

                      4                      5                      6
                      A                      A                      A
 Frequencies --    525.2937               679.7995               696.1612
 Red. masses --      5.5509                 1.2647                 1.2610
 Frc consts  --      0.9024                 0.3443                 0.3601
 IR Inten    --     14.3651                45.2851                43.6376

                      7                      8                      9
                      A                      A                      A
 Frequencies --    897.8877               990.9195              1119.9323
 Red. masses --      5.9621                 1.5292                 1.3913
 Frc consts  --      2.8320                 0.8847                 1.0282
 IR Inten    --     20.8305                 7.5964                 8.7432

                     10                     11                     12
                      A                      A                      A
 Frequencies --   1260.7001              1314.5311              2217.4131
 Red. masses --      1.6809                 1.2815                 5.8978
 Frc consts  --      1.5741                 1.3047                17.0857
 IR Inten    --     48.1751                 4.5370                 1.1151

                     13                     14                     15
                      A                      A                      A
 Frequencies --   2803.1412              2959.3935              3462.6147
 Red. masses --      1.0693                 1.0800                 1.1625
 Frc consts  --      4.9505                 5.5728                 8.2123
 IR Inten    --     44.8164                 4.5557                69.3927

 - Thermochemistry -
 -------------------
 Temperature   298.150 Kelvin.  Pressure   1.00000 Atm.
 Atom     1 has atomic number  6 and mass  12.00000

 Molecular mass:    51.02348 amu.
 Principal axes and moments of inertia in atomic units:
                           1         2         3
     Eigenvalues --    40.58817 359.16458 389.19118
           X            0.99930   0.03726   0.00426
           Y           -0.03722   0.99927  -0.00871
           Z           -0.00458   0.00855   0.99995
 This molecule is an asymmetric top.
 Rotational symmetry number  1.
 Rotational temperatures (Kelvin)      2.13397     0.24115     0.22255
 Rotational constants (GHZ):          44.46471     5.02483     4.63716
 Zero-point vibrational energy     118708.9 (Joules/Mol)
                                   28.37212 (Kcal/Mol)
 Warning -- explicit consideration of   4 degrees of freedom as
           vibrations may cause significant error
 Vibrational temperatures:    289.90   420.11   611.93   755.78   978.08
          (Kelvin)           1001.62  1291.86  1425.71  1611.33  1813.86
                             1891.31  3190.36  4033.09  4257.90  4981.92

 Zero-point correction=                           0.045214 (Hartree/Particle)
 Thermal correction to Energy=                    0.049901
 Thermal correction to Enthalpy=                  0.050846
 Thermal correction to Gibbs Free Energy=         0.018350
 Sum of electronic and zero-point Energies=           -153.971526
 Sum of electronic and thermal Energies=              -153.966838
 Sum of electronic and thermal Enthalpies=            -153.965894
 Sum of electronic and thermal Free Energies=         -153.998390

                     E (Thermal)             CV                S
                      KCal/Mol        Cal/Mol-Kelvin    Cal/Mol-Kelvin
 Total                   31.314             15.271             68.394
 Electronic               0.000              0.000              1.377
 Translational            0.889              2.981             37.712
 Rotational               0.889              2.981             23.255
 Vibrational             29.536              9.310              6.049
 Vibration     1          0.638              1.838              2.119
 Vibration     2          0.687              1.689              1.462
 Vibration     3          0.787              1.415              0.874
 Vibration     4          0.880              1.194              0.598

 Optimization completed.
    -- Stationary point found.
 Normal termination of Gaussian 09 at Sun Jun 19 05:51:30 2016.
