 Gaussian 09, Revision E.01,
 Gaussian 09:  EM64L-G09RevE.01 30-Nov-2015

 ---------------------------------------------
 #p b3lyp/6-311++G(3df,2p) freq symmetry=Loose
 ---------------------------------------------

 ---------
 b3lyp opt
 ---------
 Symbolic Z-matrix:
 Charge =  0 Multiplicity = 2

                         Standard orientation:
 ---------------------------------------------------------------------
 Center     Atomic      Atomic             Coordinates (Angstroms)
 Number     Number       Type             X           Y           Z
 ---------------------------------------------------------------------
      1          6           0        0.131697   -0.121446    0.880256
      2          6           0        0.131697    1.099473   -0.000000
      3          1           0        1.005353    1.743168   -0.000000
      4          6           0        0.131697   -0.121446   -0.880256
      5          1           0       -0.801143    1.652048   -0.000000
      6          6           0       -0.333683   -1.069686    0.000000
      7          1           0       -0.572649   -2.116590    0.000000
 ---------------------------------------------------------------------

 SCF Done:  E(UB3LYP) =  -154.068088580     A.U. after   13 cycles

 The electronic state is 2-A".
 Alpha  occ. eigenvalues --  -10.23014 -10.23011 -10.22156 -10.22037  -0.94652
 Alpha  occ. eigenvalues --   -0.71463  -0.57561  -0.56835  -0.48748  -0.43070
 Alpha  occ. eigenvalues --   -0.40850  -0.34421  -0.30164  -0.20306
 Alpha virt. eigenvalues --   -0.04207  -0.02909   0.00161   0.01202   0.02605
 Alpha virt. eigenvalues --    0.03530   0.06009   0.07569   0.07949   0.08496
 Alpha virt. eigenvalues --    0.10039   0.11395   0.11867   0.12689   0.13042

  Beta  occ. eigenvalues --  -10.22198 -10.22174 -10.22087 -10.22020  -0.93619
  Beta  occ. eigenvalues --   -0.71164  -0.56730  -0.55184  -0.47662  -0.42787
  Beta  occ. eigenvalues --   -0.39826  -0.32438  -0.27525
  Beta virt. eigenvalues --   -0.08484  -0.03251  -0.01940   0.00440   0.01226
  Beta virt. eigenvalues --    0.02680   0.03775   0.06271   0.07604   0.07891
  Beta virt. eigenvalues --    0.08527   0.10809   0.11421   0.11889   0.12856

 Mulliken charges and spin densities:
               1          2
     1  C   -0.179956   0.516461
     2  C   -0.286420   0.052472
     3  H    0.124616   0.009296
     4  C   -0.179956   0.516461
     5  H    0.184551  -0.002984
     6  C    0.111744  -0.094878
     7  H    0.225421   0.003172
 Sum of Mulliken charges =  -0.00000   1.00000

 Dipole moment (field-independent basis, Debye):
    X=             -0.9046    Y=              0.3024    Z=             -0.0000  Tot=              0.9538
 Quadrupole moment (field-independent basis, Debye-Ang):
   XX=            -24.0008   YY=            -18.9274   ZZ=            -29.1496
   XY=              1.3371   XZ=              0.0000   YZ=              0.0000

  Exact polarizability:  33.794   3.487  47.896  -0.000   0.000  53.492
 Approx polarizability:  49.603   7.353  69.808   0.000  -0.000 110.970

                      1                      2                      3
                     A'                     A"                     A'
 Frequencies --    500.6755               663.9870               768.6540
 Red. masses --      2.3014                 4.7842                 4.8141
 Frc consts  --      0.3399                 1.2427                 1.6758
 IR Inten    --     11.6954                63.0753                 1.6669

                      4                      5                      6
                     A'                     A"                     A'
 Frequencies --    870.6172               923.3123              1032.4758
 Red. masses --      1.5633                 1.5899                 1.5001
 Frc consts  --      0.6982                 0.7986                 0.9422
 IR Inten    --     18.1759                31.5052                11.3934

                      7                      8                      9
                     A"                     A"                     A'
 Frequencies --   1054.5750              1105.8508              1121.5841
 Red. masses --      1.6781                 1.2233                 5.3013
 Frc consts  --      1.0996                 0.8814                 3.9292
 IR Inten    --      0.5934                 0.5823                 1.1591

                     10                     11                     12
                     A"                     A'                     A'
 Frequencies --   1181.8474              1468.7710              1498.0922
 Red. masses --      1.6664                 1.9094                 1.9767
 Frc consts  --      1.3713                 2.4269                 2.6137
 IR Inten    --      0.6170                 0.3082                 3.4367

                     13                     14                     15
                     A'                     A'                     A'
 Frequencies --   3104.3241              3168.4754              3286.3918
 Red. masses --      1.0549                 1.1135                 1.1071
 Frc consts  --      5.9897                 6.5861                 7.0450
 IR Inten    --      7.4618                 2.8541                 1.4482

 - Thermochemistry -
 -------------------
 Temperature   298.150 Kelvin.  Pressure   1.00000 Atm.
 Atom     1 has atomic number  6 and mass  12.00000

 Molecular mass:    51.02348 amu.
 Principal axes and moments of inertia in atomic units:
                           1         2         3
     Eigenvalues --    75.30022 152.98860 210.50625
           X            0.19664   0.00000   0.98047
           Y            0.98047   0.00000  -0.19664
           Z           -0.00000   1.00000  -0.00000
 This molecule is an asymmetric top.
 Rotational symmetry number  1.
 Rotational temperatures (Kelvin)      1.15025     0.56615     0.41145
 Rotational constants (GHZ):          23.96728    11.79657     8.57334
 Zero-point vibrational energy     130091.7 (Joules/Mol)
                                   31.09266 (Kcal/Mol)
 Warning -- explicit consideration of   1 degrees of freedom as
           vibrations may cause significant error
 Vibrational temperatures:    720.36   955.33  1105.92  1252.62  1328.44
          (Kelvin)           1485.50  1517.30  1591.07  1613.71  1700.41
                             2113.23  2155.42  4466.42  4558.72  4728.38

 Zero-point correction=                           0.049549 (Hartree/Particle)
 Thermal correction to Energy=                    0.053069
 Thermal correction to Enthalpy=                  0.054013
 Thermal correction to Gibbs Free Energy=         0.023904
 Sum of electronic and zero-point Energies=           -154.018539
 Sum of electronic and thermal Energies=              -154.015019
 Sum of electronic and thermal Enthalpies=            -154.014075
 Sum of electronic and thermal Free Energies=         -154.044185

                     E (Thermal)             CV                S
                      KCal/Mol        Cal/Mol-Kelvin    Cal/Mol-Kelvin
 Total                   33.301             11.401             63.372
 Electronic               0.000              0.000              1.377
 Translational            0.889              2.981             37.712
 Rotational               0.889              2.981             22.410
 Vibrational             31.524              5.440              1.872
 Vibration     1          0.856              1.249              0.656

 Optimization completed.
    -- Stationary point found.
 Normal termination of Gaussian 09 at Tue Jul 19 09:42:45 2016.
