 Gaussian 09, Revision E.01,
 Gaussian 09:  EM64L-G09RevE.01 30-Nov-2015

 ---------------------------------------------
 #p b3lyp/6-311++G(3df,2p) freq symmetry=Loose
 ---------------------------------------------

 ---------
 b3lyp opt
 ---------
 Symbolic Z-matrix:
 Charge =  1 Multiplicity = 3

                         Standard orientation:
 ---------------------------------------------------------------------
 Center     Atomic      Atomic             Coordinates (Angstroms)
 Number     Number       Type             X           Y           Z
 ---------------------------------------------------------------------
      1          6           0       -0.592552   -0.974695   -0.000000
      2          1           0       -1.488647   -1.577654   -0.000000
      3          6           0        0.747522   -0.880725   -0.000000
      4          1           0        1.716993   -1.357670   -0.000000
      5          6           0       -0.000000    0.285531    0.000000
      6          6           0       -0.057362    1.654797    0.000000
      7          1           0       -0.813995    2.425871    0.000000
 ---------------------------------------------------------------------

 SCF Done:  E(UB3LYP) =  -153.774180647     A.U. after   13 cycles

 The electronic state is 3-A".
 Alpha  occ. eigenvalues --  -10.49819 -10.49309 -10.49089 -10.47752  -1.20637
 Alpha  occ. eigenvalues --   -0.99983  -0.84745  -0.81383  -0.75580  -0.67008
 Alpha  occ. eigenvalues --   -0.65366  -0.63723  -0.50903  -0.49500
 Alpha virt. eigenvalues --   -0.28559  -0.22621  -0.15129  -0.13871  -0.13563
 Alpha virt. eigenvalues --   -0.11945  -0.10210  -0.10099  -0.09106  -0.05616
 Alpha virt. eigenvalues --   -0.05001  -0.04794  -0.03969  -0.02824  -0.02703

  Beta  occ. eigenvalues --  -10.49808 -10.48939 -10.48823 -10.45125  -1.19741
  Beta  occ. eigenvalues --   -0.94618  -0.83987  -0.80493  -0.73328  -0.64629
  Beta  occ. eigenvalues --   -0.63779  -0.62256
  Beta virt. eigenvalues --   -0.37758  -0.32138  -0.27013  -0.18226  -0.14835
  Beta virt. eigenvalues --   -0.13643  -0.13211  -0.11202  -0.09935  -0.09304
  Beta virt. eigenvalues --   -0.08791  -0.04714  -0.04331  -0.03906  -0.03738

 Mulliken charges and spin densities:
               1          2
     1  C    0.174000   0.236554
     2  H    0.318185   0.005259
     3  C    0.116559   0.173261
     4  H    0.316011   0.006993
     5  C    0.180274  -0.013336
     6  C   -0.371234   1.587535
     7  H    0.266204   0.003734
 Sum of Mulliken charges =   1.00000   2.00000

 Dipole moment (field-independent basis, Debye):
    X=             -0.5095    Y=             -0.8788    Z=             -0.0000  Tot=              1.0158
 Quadrupole moment (field-independent basis, Debye-Ang):
   XX=            -14.6829   YY=             -9.6064   ZZ=            -21.2317
   XY=             -2.2564   XZ=             -0.0000   YZ=              0.0000

  Exact polarizability:  33.784  -1.803  51.604   0.000   0.000  22.499
 Approx polarizability:  51.530  -1.161  75.889  -0.000   0.000  32.538

                      1                      2                      3
                     A'                     A"                     A"
 Frequencies --    360.8967               410.1130               602.3674
 Red. masses --      2.4750                 2.5457                 1.3462
 Frc consts  --      0.1899                 0.2523                 0.2878
 IR Inten    --      9.0200                20.7471                 5.3821

                      4                      5                      6
                     A'                     A"                     A'
 Frequencies --    803.7948               822.8960               864.8611
 Red. masses --      1.3261                 1.3946                 1.8691
 Frc consts  --      0.5048                 0.5564                 0.8237
 IR Inten    --     21.5175                41.8428                 4.4951

                      7                      8                      9
                     A"                     A'                     A'
 Frequencies --    974.3863              1009.8265              1026.2229
 Red. masses --      1.4339                 1.5738                 1.8089
 Frc consts  --      0.8021                 0.9456                 1.1224
 IR Inten    --      0.0001                 7.0470                24.2791

                     10                     11                     12
                     A'                     A'                     A'
 Frequencies --   1172.9103              1424.2209              1711.0285
 Red. masses --      4.8319                 7.2187                 6.4806
 Frc consts  --      3.9165                 8.6270                11.1785
 IR Inten    --     29.2994                31.0307                 0.5350

                     13                     14                     15
                     A'                     A'                     A'
 Frequencies --   3227.0049              3234.2334              3262.1070
 Red. masses --      1.0948                 1.0966                 1.1421
 Frc consts  --      6.7169                 6.7581                 7.1607
 IR Inten    --     90.9537                58.0077                44.4916

 - Thermochemistry -
 -------------------
 Temperature   298.150 Kelvin.  Pressure   1.00000 Atm.
 Atom     1 has atomic number  6 and mass  12.00000

 Molecular mass:    51.02348 amu.
 Principal axes and moments of inertia in atomic units:
                           1         2         3
     Eigenvalues --    58.84642 232.77808 291.62450
           X           -0.08421   0.99645   0.00000
           Y            0.99645   0.08421   0.00000
           Z            0.00000   0.00000   1.00000
 This molecule is an asymmetric top.
 Rotational symmetry number  1.
 Rotational temperatures (Kelvin)      1.47186     0.37209     0.29700
 Rotational constants (GHZ):          30.66867     7.75305     6.18858
 Zero-point vibrational energy     125050.9 (Joules/Mol)
                                   29.88787 (Kcal/Mol)
 Warning -- explicit consideration of   3 degrees of freedom as
           vibrations may cause significant error
 Vibrational temperatures:    519.25   590.06   866.67  1156.48  1183.96
          (Kelvin)           1244.34  1401.92  1452.91  1476.50  1687.55
                             2049.13  2461.79  4642.93  4653.33  4693.44

 Zero-point correction=                           0.047629 (Hartree/Particle)
 Thermal correction to Energy=                    0.051617
 Thermal correction to Enthalpy=                  0.052562
 Thermal correction to Gibbs Free Energy=         0.021112
 Sum of electronic and zero-point Energies=           -153.726551
 Sum of electronic and thermal Energies=              -153.722563
 Sum of electronic and thermal Enthalpies=            -153.721619
 Sum of electronic and thermal Free Energies=         -153.753068

                     E (Thermal)             CV                S
                      KCal/Mol        Cal/Mol-Kelvin    Cal/Mol-Kelvin
 Total                   32.390             13.276             66.191
 Electronic               0.000              0.000              2.183
 Translational            0.889              2.981             37.712
 Rotational               0.889              2.981             22.906
 Vibrational             30.613              7.314              3.389
 Vibration     1          0.735              1.553              1.118
 Vibration     2          0.774              1.448              0.926
 Vibration     3          0.961              1.027              0.446

 Normal termination of Gaussian 09 at Sun Jun 19 06:16:48 2016.
