 Gaussian 09, Revision E.01,
 Gaussian 09:  EM64L-G09RevE.01 30-Nov-2015

 ---------------------------------------------
 #p b3lyp/6-311++G(3df,2p) freq symmetry=Loose
 ---------------------------------------------

 ---------
 b3lyp opt
 ---------
 Symbolic Z-matrix:
 Charge =  1 Multiplicity = 3

                         Standard orientation:
 ---------------------------------------------------------------------
 Center     Atomic      Atomic             Coordinates (Angstroms)
 Number     Number       Type             X           Y           Z
 ---------------------------------------------------------------------
      1          6           0       -0.016955    0.000247   -0.007030
      2          6           0        1.199712   -0.675772    0.000981
      3          6           0        1.200325    0.675583    0.000904
      4          6           0       -1.466822    0.000516   -0.005469
      5          1           0       -1.849465   -0.887745   -0.511005
      6          1           0       -1.796988   -0.027494    1.040477
      7          1           0       -1.851102    0.911792   -0.465785
 ---------------------------------------------------------------------

 SCF Done:  E(UB3LYP) =  -153.712469333     A.U. after   14 cycles

 The electronic state is 3-A.
 Alpha  occ. eigenvalues --  -10.55866 -10.55789 -10.54576 -10.42379  -1.24828
 Alpha  occ. eigenvalues --   -1.01143  -0.81630  -0.79483  -0.70449  -0.70257
 Alpha  occ. eigenvalues --   -0.66139  -0.63006  -0.61877  -0.54578
 Alpha virt. eigenvalues --   -0.30446  -0.30263  -0.16574  -0.12882  -0.11613
 Alpha virt. eigenvalues --   -0.11342  -0.10508  -0.10394  -0.09126  -0.07093
 Alpha virt. eigenvalues --   -0.06913  -0.06314  -0.04614  -0.03760  -0.02871

  Beta  occ. eigenvalues --  -10.54219 -10.54008 -10.53951 -10.42358  -1.22459
  Beta  occ. eigenvalues --   -1.00553  -0.77088  -0.75342  -0.69839  -0.66663
  Beta  occ. eigenvalues --   -0.63967  -0.62176
  Beta virt. eigenvalues --   -0.44774  -0.39446  -0.29201  -0.26816  -0.16154
  Beta virt. eigenvalues --   -0.11711  -0.11516  -0.10865  -0.09977  -0.09501
  Beta virt. eigenvalues --   -0.08811  -0.06956  -0.06129  -0.04141  -0.04034

 Mulliken charges and spin densities:
               1          2
     1  C    0.248423  -0.049615
     2  C    0.220917   1.001346
     3  C    0.221716   1.000837
     4  C   -0.330293   0.015592
     5  H    0.208062   0.016514
     6  H    0.223967  -0.002234
     7  H    0.207209   0.017562
 Sum of Mulliken charges =   1.00000   2.00000

 Dipole moment (field-independent basis, Debye):
    X=             -0.5467    Y=             -0.0045    Z=              0.0770  Tot=              0.5521
 Quadrupole moment (field-independent basis, Debye-Ang):
   XX=            -12.1306   YY=            -18.5516   ZZ=            -19.8255
   XY=              0.0127   XZ=             -0.1460   YZ=              0.0002

  Exact polarizability:  49.018   0.011  33.791  -0.144   0.000  26.124
 Approx polarizability:  72.662   0.041  61.238  -0.417  -0.001  38.547

                      1                      2                      3
                      A                      A                      A
 Frequencies --     38.9818               362.0800               411.7395
 Red. masses --      1.2724                 3.6968                 3.0621
 Frc consts  --      0.0011                 0.2856                 0.3059
 IR Inten    --      0.7764                 2.1367                 1.2583

                      4                      5                      6
                      A                      A                      A
 Frequencies --    788.5904               989.7254               993.9724
 Red. masses --      4.9116                 1.6809                 1.5744
 Frc consts  --      1.7996                 0.9701                 0.9164
 IR Inten    --      0.8489                15.8580                 6.3392

                      7                      8                      9
                      A                      A                      A
 Frequencies --   1150.7637              1357.8469              1378.1390
 Red. masses --      4.6045                 4.7083                 1.2858
 Frc consts  --      3.5925                 5.1147                 1.4388
 IR Inten    --     40.8015                53.6668                 6.3058

                     10                     11                     12
                      A                      A                      A
 Frequencies --   1416.0998              1443.9990              1666.9109
 Red. masses --      1.0424                 1.1142                11.1455
 Frc consts  --      1.2316                 1.3688                18.2464
 IR Inten    --     41.6571                19.3149                42.2612

                     13                     14                     15
                      A                      A                      A
 Frequencies --   3006.6221              3075.7164              3116.0593
 Red. masses --      1.0389                 1.0906                 1.1049
 Frc consts  --      5.5331                 6.0788                 6.3210
 IR Inten    --     67.9492                19.4252                12.6202

 - Thermochemistry -
 -------------------
 Temperature   298.150 Kelvin.  Pressure   1.00000 Atm.
 Atom     1 has atomic number  6 and mass  12.00000

 Molecular mass:    51.02348 amu.
 Principal axes and moments of inertia in atomic units:
                           1         2         3
     Eigenvalues --    50.57902 255.43508 294.77444
           X            1.00000   0.00007  -0.00100
           Y           -0.00007   1.00000   0.00003
           Z            0.00100  -0.00003   1.00000
 This molecule is an asymmetric top.
 Rotational symmetry number  1.
 Rotational temperatures (Kelvin)      1.71245     0.33908     0.29383
 Rotational constants (GHZ):          35.68162     7.06536     6.12245
 Zero-point vibrational energy     126787.7 (Joules/Mol)
                                   30.30299 (Kcal/Mol)
 Warning -- explicit consideration of   3 degrees of freedom as
           vibrations may cause significant error
 Vibrational temperatures:     56.09   520.95   592.40  1134.60  1423.99
          (Kelvin)           1430.10  1655.69  1953.64  1982.83  2037.45
                             2077.59  2398.31  4325.85  4425.26  4483.31

 Zero-point correction=                           0.048291 (Hartree/Particle)
 Thermal correction to Energy=                    0.052839
 Thermal correction to Enthalpy=                  0.053783
 Thermal correction to Gibbs Free Energy=         0.020221
 Sum of electronic and zero-point Energies=           -153.664178
 Sum of electronic and thermal Energies=              -153.659631
 Sum of electronic and thermal Enthalpies=            -153.658687
 Sum of electronic and thermal Free Energies=         -153.692249

                     E (Thermal)             CV                S
                      KCal/Mol        Cal/Mol-Kelvin    Cal/Mol-Kelvin
 Total                   33.157             13.089             70.637
 Electronic               0.000              0.000              2.183
 Translational            0.889              2.981             37.712
 Rotational               0.889              2.981             22.859
 Vibrational             31.379              7.127              7.883
 Vibration     1          0.594              1.981              5.310
 Vibration     2          0.736              1.550              1.113
 Vibration     3          0.776              1.445              0.920

 Normal termination of Gaussian 09 at Sun Jun 19 06:10:58 2016.
