 Gaussian 09, Revision E.01,
 Gaussian 09:  EM64L-G09RevE.01 30-Nov-2015

 ---------------------------------------------
 #p b3lyp/6-311++G(3df,2p) freq symmetry=Loose
 ---------------------------------------------

 ---------
 b3lyp opt
 ---------
 Symbolic Z-matrix:
 Charge =  0 Multiplicity = 2

                         Standard orientation:
 ---------------------------------------------------------------------
 Center     Atomic      Atomic             Coordinates (Angstroms)
 Number     Number       Type             X           Y           Z
 ---------------------------------------------------------------------
      1          6           0        1.163727    1.291565    0.000000
      2          1           0        1.537473    2.301419    0.000000
      3          6           0        0.000000    0.688809    0.000000
      4          1           0       -0.913092    1.285252    0.000000
      5          6           0       -0.193218   -0.754519    0.000000
      6          1           0        0.678421   -1.433327    0.000000
      7          6           0       -1.187643   -1.584745    0.000000
 ---------------------------------------------------------------------

 SCF Done:  E(UB3LYP) =  -154.029433965     A.U. after   18 cycles

 The electronic state is 2-A'.
 Alpha  occ. eigenvalues --  -10.23869 -10.22387 -10.22290 -10.19896  -0.84589
 Alpha  occ. eigenvalues --   -0.77230  -0.61861  -0.54573  -0.49155  -0.45099
 Alpha  occ. eigenvalues --   -0.36557  -0.30776  -0.27506  -0.27017
 Alpha virt. eigenvalues --   -0.10614  -0.05375  -0.00501   0.00805   0.01994
 Alpha virt. eigenvalues --    0.03447   0.05429   0.06318   0.07124   0.08079
 Alpha virt. eigenvalues --    0.08944   0.09078   0.10869   0.11384   0.12490

  Beta  occ. eigenvalues --  -10.23917 -10.22497 -10.20754 -10.19770  -0.84007
  Beta  occ. eigenvalues --   -0.75994  -0.59975  -0.53791  -0.48038  -0.44095
  Beta  occ. eigenvalues --   -0.36422  -0.30679  -0.26814
  Beta virt. eigenvalues --   -0.11126  -0.10626  -0.04504  -0.00315   0.00986
  Beta virt. eigenvalues --    0.02074   0.03487   0.05544   0.06319   0.07861
  Beta virt. eigenvalues --    0.08288   0.09075   0.09101   0.11072   0.11603

 Mulliken charges and spin densities:
               1          2
     1  C   -0.364998   1.068572
     2  H    0.215673   0.017768
     3  C    0.138141  -0.185111
     4  H    0.149020   0.074030
     5  C    0.285147   0.058093
     6  H    0.157646  -0.002796
     7  C   -0.580630  -0.030557
 Sum of Mulliken charges =  -0.00000   1.00000

 Dipole moment (field-independent basis, Debye):
    X=              1.4783    Y=              2.2318    Z=              0.0000  Tot=              2.6770
 Quadrupole moment (field-independent basis, Debye-Ang):
   XX=            -25.9611   YY=            -24.3437   ZZ=            -26.9099
   XY=             -4.1783   XZ=              0.0000   YZ=              0.0000

  Exact polarizability:  56.792  18.327  61.267   0.000   0.000  34.356
 Approx polarizability:  95.584  32.565  88.661  -0.000  -0.000  47.538

                      1                      2                      3
                     A'                     A"                     A'
 Frequencies --    153.7581               174.8687               415.2649
 Red. masses --      5.7587                 3.6517                 2.6855
 Frc consts  --      0.0802                 0.0658                 0.2728
 IR Inten    --     26.0915                 7.4978                 4.9522

                      4                      5                      6
                     A"                     A"                     A'
 Frequencies --    570.3180               706.3961               782.4206
 Red. masses --      1.1683                 1.4874                 1.5338
 Frc consts  --      0.2239                 0.4373                 0.5532
 IR Inten    --     65.2952                 9.5287                20.0725

                      7                      8                      9
                     A"                     A'                     A'
 Frequencies --    841.2919               864.0968              1082.6913
 Red. masses --      1.5922                 1.5035                 2.2698
 Frc consts  --      0.6640                 0.6614                 1.5677
 IR Inten    --      0.2159                 0.5604                 2.3919

                     10                     11                     12
                     A'                     A'                     A'
 Frequencies --   1268.1911              1634.2921              1765.9293
 Red. masses --      1.1791                 7.0857                 9.7135
 Frc consts  --      1.1173                11.1504                17.8474
 IR Inten    --      2.1864                 3.0230                70.3497

                     13                     14                     15
                     A'                     A'                     A'
 Frequencies --   2980.8185              3061.0224              3254.2270
 Red. masses --      1.0775                 1.0826                 1.1035
 Frc consts  --      5.6408                 5.9768                 6.8852
 IR Inten    --     27.8707                 2.4717                 5.3873

 - Thermochemistry -
 -------------------
 Temperature   298.150 Kelvin.  Pressure   1.00000 Atm.
 Atom     1 has atomic number  6 and mass  12.00000

 Molecular mass:    51.02348 amu.
 Principal axes and moments of inertia in atomic units:
                           1         2         3
     Eigenvalues --    26.75435 362.28583 389.04018
           X            0.56305   0.82643   0.00000
           Y            0.82643  -0.56305   0.00000
           Z            0.00000  -0.00000   1.00000
 This molecule is an asymmetric top.
 Rotational symmetry number  1.
 Rotational temperatures (Kelvin)      3.23737     0.23908     0.22263
 Rotational constants (GHZ):          67.45600     4.98154     4.63896
 Zero-point vibrational energy     116968.4 (Joules/Mol)
                                   27.95611 (Kcal/Mol)
 Warning -- explicit consideration of   4 degrees of freedom as
           vibrations may cause significant error
 Vibrational temperatures:    221.22   251.60   597.47   820.56  1016.35
          (Kelvin)           1125.73  1210.43  1243.24  1557.75  1824.64
                             2351.38  2540.78  4288.73  4404.12  4682.10

 Zero-point correction=                           0.044551 (Hartree/Particle)
 Thermal correction to Energy=                    0.049460
 Thermal correction to Enthalpy=                  0.050404
 Thermal correction to Gibbs Free Energy=         0.017466
 Sum of electronic and zero-point Energies=           -153.984883
 Sum of electronic and thermal Energies=              -153.979974
 Sum of electronic and thermal Enthalpies=            -153.979030
 Sum of electronic and thermal Free Energies=         -154.011968

                     E (Thermal)             CV                S
                      KCal/Mol        Cal/Mol-Kelvin    Cal/Mol-Kelvin
 Total                   31.037             15.434             69.325
 Electronic               0.000              0.000              1.377
 Translational            0.889              2.981             37.712
 Rotational               0.889              2.981             22.849
 Vibrational             29.259              9.473              7.386
 Vibration     1          0.619              1.898              2.625
 Vibration     2          0.627              1.873              2.383
 Vibration     3          0.779              1.437              0.908
 Vibration     4          0.926              1.095              0.504

 Optimization completed.
    -- Stationary point found.
 Normal termination of Gaussian 09 at Sun Jun 19 05:50:30 2016.
