 Gaussian 09, Revision E.01,
 Gaussian 09:  EM64L-G09RevE.01 30-Nov-2015

 ---------------------------------------------
 #p b3lyp/6-311++G(3df,2p) freq symmetry=Loose
 ---------------------------------------------

 ---------
 b3lyp opt
 ---------
 Symbolic Z-matrix:
 Charge =  2 Multiplicity = 2

                         Standard orientation:
 ---------------------------------------------------------------------
 Center     Atomic      Atomic             Coordinates (Angstroms)
 Number     Number       Type             X           Y           Z
 ---------------------------------------------------------------------
      1          6           0       -0.000063   -0.095884    0.762347
      2          6           0       -0.000063    1.211828   -0.000000
      3          1           0        0.942026    1.776566   -0.000000
      4          6           0       -0.000063   -0.095884   -0.762347
      5          1           0       -0.942002    1.776720   -0.000000
      6          6           0        0.000095   -1.224717    0.000000
      7          1           0        0.000534   -2.325347    0.000000
 ---------------------------------------------------------------------

 SCF Done:  E(UB3LYP) =  -153.143322515     A.U. after   13 cycles

 The electronic state is 2-A'.
 Alpha  occ. eigenvalues --  -10.89179 -10.89155 -10.80974 -10.77428  -1.57142
 Alpha  occ. eigenvalues --   -1.29235  -1.13146  -1.08324  -1.01905  -0.99458
 Alpha  occ. eigenvalues --   -0.96233  -0.90974  -0.88598
 Alpha virt. eigenvalues --   -0.63981  -0.59000  -0.55218  -0.37987  -0.35343
 Alpha virt. eigenvalues --   -0.34954  -0.30455  -0.30144  -0.29583  -0.26054
 Alpha virt. eigenvalues --   -0.25284  -0.24975  -0.22490  -0.21993  -0.21010

  Beta  occ. eigenvalues --  -10.87950 -10.87935 -10.81104 -10.77535  -1.56091
  Beta  occ. eigenvalues --   -1.29199  -1.08487  -1.07890  -1.01393  -0.99044
  Beta  occ. eigenvalues --   -0.95467  -0.88363
  Beta virt. eigenvalues --   -0.75345  -0.61316  -0.54798  -0.53826  -0.37757
  Beta virt. eigenvalues --   -0.34888  -0.34325  -0.30078  -0.30059  -0.29070
  Beta virt. eigenvalues --   -0.25273  -0.25243  -0.24678  -0.22226  -0.20825

 Mulliken charges and spin densities:
               1          2
     1  C    0.679001   0.624964
     2  C   -0.403995  -0.104216
     3  H    0.308122   0.007259
     4  C    0.679001   0.624964
     5  H    0.308084   0.007251
     6  C    0.029356  -0.184372
     7  H    0.400429   0.024150
 Sum of Mulliken charges =   2.00000   1.00000

 Dipole moment (field-independent basis, Debye):
    X=              0.0005    Y=             -0.5613    Z=             -0.0000  Tot=              0.5613
 Quadrupole moment (field-independent basis, Debye-Ang):
   XX=            -16.5130   YY=              0.0103   ZZ=            -14.7151
   XY=             -0.0022   XZ=              0.0000   YZ=             -0.0000

  Exact polarizability:  21.091  -0.001  38.798  -0.000  -0.000  26.480
 Approx polarizability:  31.141  -0.002  62.280  -0.000   0.000  60.873

                      1                      2                      3
                     A"                     A'                     A'
 Frequencies --    251.7932               425.9706               787.0715
 Red. masses --      5.9290                 2.6184                 1.3231
 Frc consts  --      0.2215                 0.2799                 0.4829
 IR Inten    --      3.7134                 6.7310                59.9950

                      4                      5                      6
                     A"                     A'                     A"
 Frequencies --    904.0019               936.9910               982.5523
 Red. masses --      3.8029                 7.0579                 1.1249
 Frc consts  --      1.8310                 3.6509                 0.6399
 IR Inten    --      4.1685                 0.5279                 0.0002

                      7                      8                      9
                     A"                     A'                     A'
 Frequencies --   1000.2374              1053.4826              1106.7523
 Red. masses --      1.2758                 1.3698                 7.7505
 Frc consts  --      0.7520                 0.8957                 5.5935
 IR Inten    --     47.0239                 1.1005                14.8711

                     10                     11                     12
                     A"                     A'                     A'
 Frequencies --   1164.3055              1421.4034              1581.0849
 Red. masses --      1.4153                 1.1228                 5.8729
 Frc consts  --      1.1304                 1.3366                 8.6499
 IR Inten    --     52.2671                15.9227                33.8609

                     13                     14                     15
                     A'                     A'                     A'
 Frequencies --   2982.3726              3051.0441              3084.5060
 Red. masses --      1.0508                 1.1241                 1.1272
 Frc consts  --      5.5067                 6.1653                 6.3187
 IR Inten    --    319.2157               304.8664               172.4639

 - Thermochemistry -
 -------------------
 Temperature   298.150 Kelvin.  Pressure   1.00000 Atm.
 Atom     1 has atomic number  6 and mass  12.00000

 Molecular mass:    51.02348 amu.
 Principal axes and moments of inertia in atomic units:
                           1         2         3
     Eigenvalues --    56.19721 176.45919 219.88149
           X           -0.00008   0.00000   1.00000
           Y            1.00000   0.00000   0.00008
           Z            0.00000   1.00000   0.00000
 This molecule is an asymmetric top.
 Rotational symmetry number  1.
 Rotational temperatures (Kelvin)      1.54125     0.49084     0.39391
 Rotational constants (GHZ):          32.11443    10.22753     8.20779
 Zero-point vibrational energy     124014.3 (Joules/Mol)
                                   29.64013 (Kcal/Mol)
 Warning -- explicit consideration of   2 degrees of freedom as
           vibrations may cause significant error
 Vibrational temperatures:    362.27   612.88  1132.42  1300.66  1348.12
          (Kelvin)           1413.67  1439.12  1515.72  1592.37  1675.17
                             2045.08  2274.83  4290.96  4389.77  4437.91

 Zero-point correction=                           0.047235 (Hartree/Particle)
 Thermal correction to Energy=                    0.051178
 Thermal correction to Enthalpy=                  0.052123
 Thermal correction to Gibbs Free Energy=         0.021304
 Sum of electronic and zero-point Energies=           -153.096088
 Sum of electronic and thermal Energies=              -153.092144
 Sum of electronic and thermal Enthalpies=            -153.091200
 Sum of electronic and thermal Free Energies=         -153.122018

                     E (Thermal)             CV                S
                      KCal/Mol        Cal/Mol-Kelvin    Cal/Mol-Kelvin
 Total                   32.115             12.508             64.863
 Electronic               0.000              0.000              1.377
 Translational            0.889              2.981             37.712
 Rotational               0.889              2.981             22.305
 Vibrational             30.337              6.547              3.468
 Vibration     1          0.664              1.760              1.718
 Vibration     2          0.788              1.414              0.872

 Optimization completed.
    -- Stationary point found.
 Normal termination of Gaussian 09 at Tue Jul 19 09:35:56 2016.
