 Gaussian 09, Revision E.01,
 Gaussian 09:  EM64L-G09RevE.01 30-Nov-2015

 ---------------------------------------------
 #p b3lyp/6-311++G(3df,2p) freq symmetry=Loose
 ---------------------------------------------

 ---------
 b3lyp opt
 ---------
 Symbolic Z-matrix:
 Charge =  2 Multiplicity = 4

                         Standard orientation:
 ---------------------------------------------------------------------
 Center     Atomic      Atomic             Coordinates (Angstroms)
 Number     Number       Type             X           Y           Z
 ---------------------------------------------------------------------
      1          6           0        0.000000    0.010625   -0.000000
      2          6           0       -1.364833    0.323938   -0.000000
      3          6           0       -0.968754   -0.999225    0.000000
      4          6           0        1.353073    0.478240   -0.000000
      5          1           0        1.600625    1.542530   -0.000000
      6          1           0        2.141229   -0.211997    0.584828
      7          1           0        2.141229   -0.211997   -0.584828
 ---------------------------------------------------------------------

 SCF Done:  E(UB3LYP) =  -153.023679457     A.U. after   14 cycles

 The electronic state is 4-A".
 Alpha  occ. eigenvalues --  -10.81263 -10.81199 -10.78509 -10.78206  -1.48071
 Alpha  occ. eigenvalues --   -1.32138  -1.10803  -1.05486  -0.98270  -0.95598
 Alpha  occ. eigenvalues --   -0.93874  -0.85761  -0.85224  -0.78839
 Alpha virt. eigenvalues --   -0.54327  -0.53997  -0.42316  -0.37444  -0.36414
 Alpha virt. eigenvalues --   -0.33023  -0.30900  -0.28839  -0.27184  -0.26867
 Alpha virt. eigenvalues --   -0.25677  -0.22293  -0.22102  -0.20390  -0.19193

  Beta  occ. eigenvalues --  -10.79038 -10.78985 -10.78367 -10.77261  -1.45281
  Beta  occ. eigenvalues --   -1.28568  -1.08365  -1.00739  -0.94010  -0.91119
  Beta  occ. eigenvalues --   -0.90029
  Beta virt. eigenvalues --   -0.73074  -0.66108  -0.61782  -0.51657  -0.48183
  Beta virt. eigenvalues --   -0.40374  -0.33890  -0.33422  -0.31961  -0.29807
  Beta virt. eigenvalues --   -0.28356  -0.26733  -0.24528  -0.23740  -0.21672

 Mulliken charges and spin densities:
               1          2
     1  C    0.483141  -0.109778
     2  C    0.357696   1.148824
     3  C    0.390367   1.108639
     4  C   -0.160193   0.587367
     5  H    0.328309  -0.001434
     6  H    0.300340   0.133191
     7  H    0.300340   0.133191
 Sum of Mulliken charges =   2.00000   3.00000

 Dipole moment (field-independent basis, Debye):
    X=              4.5937    Y=              0.0401    Z=             -0.0000  Tot=              4.5939
 Quadrupole moment (field-independent basis, Debye-Ang):
   XX=              5.8014   YY=            -13.1180   ZZ=            -17.6995
   XY=              2.3314   XZ=             -0.0000   YZ=             -0.0000

  Exact polarizability:  52.716   4.456  30.670  -0.000  -0.000  21.774
 Approx polarizability:  86.231   5.544  53.978   0.000   0.000  32.568

                      1                      2                      3
                     A"                     A'                     A"
 Frequencies --    270.1573               350.1938               382.6042
 Red. masses --      1.2844                 3.0468                 3.4873
 Frc consts  --      0.0552                 0.2201                 0.3008
 IR Inten    --     31.6523                20.0594                13.3047

                      4                      5                      6
                     A"                     A'                     A"
 Frequencies --    598.8197               789.7779               813.2054
 Red. masses --      1.0814                 2.9466                 1.4977
 Frc consts  --      0.2285                 1.0829                 0.5835
 IR Inten    --      0.7494                32.2414                67.8253

                      7                      8                      9
                     A'                     A'                     A'
 Frequencies --    836.8217               983.1415              1156.7831
 Red. masses --      1.6473                 1.3815                 5.1738
 Frc consts  --      0.6797                 0.7868                 4.0791
 IR Inten    --     96.4868               285.9464               121.9804

                     10                     11                     12
                     A'                     A'                     A'
 Frequencies --   1314.8091              1427.8365              1513.9709
 Red. masses --      4.6460                 1.2940                 9.3665
 Frc consts  --      4.7321                 1.5544                12.6492
 IR Inten    --     12.8626                21.7190               129.4518

                     13                     14                     15
                     A"                     A'                     A'
 Frequencies --   2061.2330              2430.5898              3103.1841
 Red. masses --      1.0298                 1.1086                 1.0947
 Frc consts  --      2.5778                 3.8587                 6.2113
 IR Inten    --    219.5125               330.8688               140.2918

 - Thermochemistry -
 -------------------
 Temperature   298.150 Kelvin.  Pressure   1.00000 Atm.
 Atom     1 has atomic number  6 and mass  12.00000

 Molecular mass:    51.02348 amu.
 Principal axes and moments of inertia in atomic units:
                           1         2         3
     Eigenvalues --    52.07122 257.07699 304.22443
           X            0.95947  -0.28181   0.00000
           Y            0.28181   0.95947   0.00000
           Z            0.00000  -0.00000   1.00000
 This molecule is an asymmetric top.
 Rotational symmetry number  1.
 Rotational temperatures (Kelvin)      1.66337     0.33692     0.28470
 Rotational constants (GHZ):          34.65909     7.02024     5.93227
 Zero-point vibrational energy     107862.1 (Joules/Mol)
                                   25.77965 (Kcal/Mol)
 Warning -- explicit consideration of   4 degrees of freedom as
           vibrations may cause significant error
 Vibrational temperatures:    388.70   503.85   550.48   861.57  1136.31
          (Kelvin)           1170.02  1204.00  1414.52  1664.35  1891.71
                             2054.34  2178.26  2965.65  3497.07  4464.78

 Zero-point correction=                           0.041082 (Hartree/Particle)
 Thermal correction to Energy=                    0.045528
 Thermal correction to Enthalpy=                  0.046472
 Thermal correction to Gibbs Free Energy=         0.013960
 Sum of electronic and zero-point Energies=           -152.982597
 Sum of electronic and thermal Energies=              -152.978151
 Sum of electronic and thermal Enthalpies=            -152.977207
 Sum of electronic and thermal Free Energies=         -153.009720

                     E (Thermal)             CV                S
                      KCal/Mol        Cal/Mol-Kelvin    Cal/Mol-Kelvin
 Total                   28.569             14.646             68.429
 Electronic               0.000              0.000              2.755
 Translational            0.889              2.981             37.712
 Rotational               0.889              2.981             22.925
 Vibrational             26.792              8.685              5.037
 Vibration     1          0.674              1.728              1.595
 Vibration     2          0.727              1.575              1.165
 Vibration     3          0.752              1.507              1.029
 Vibration     4          0.957              1.034              0.452

 Optimization completed.
    -- Stationary point found.
 Normal termination of Gaussian 09 at Tue Jul 19 10:04:31 2016.
