 Gaussian 09, Revision E.01,
 Gaussian 09:  EM64L-G09RevE.01 30-Nov-2015

 ---------------------------------------------
 #p b3lyp/6-311++G(3df,2p) freq symmetry=Loose
 ---------------------------------------------

 ---------
 b3lyp opt
 ---------
 Symbolic Z-matrix:
 Charge =  2 Multiplicity = 2

                         Standard orientation:
 ---------------------------------------------------------------------
 Center     Atomic      Atomic             Coordinates (Angstroms)
 Number     Number       Type             X           Y           Z
 ---------------------------------------------------------------------
      1          6           0       -1.316355    1.079133   -0.000000
      2          1           0       -1.812515    1.359715    0.950234
      3          1           0       -1.812515    1.359715   -0.950234
      4          6           0        0.000000    0.559060   -0.000000
      5          1           0        0.668543    1.479071   -0.000000
      6          6           0        0.576855   -0.644774    0.000000
      7          6           0        1.232248   -1.693170    0.000000
 ---------------------------------------------------------------------

 SCF Done:  E(UB3LYP) =  -153.102804903     A.U. after   22 cycles

 The electronic state is 2-A'.
 Alpha  occ. eigenvalues --  -10.81816 -10.79306 -10.78186 -10.70225  -1.35219
 Alpha  occ. eigenvalues --   -1.27432  -1.16797  -1.03543  -0.97833  -0.97430
 Alpha  occ. eigenvalues --   -0.87918  -0.82839  -0.78699
 Alpha virt. eigenvalues --   -0.65109  -0.64033  -0.47085  -0.40217  -0.34943
 Alpha virt. eigenvalues --   -0.33439  -0.29974  -0.29669  -0.25925  -0.25031
 Alpha virt. eigenvalues --   -0.23743  -0.22550  -0.21489  -0.20203  -0.19316

  Beta  occ. eigenvalues --  -10.81836 -10.78388 -10.76658 -10.70068  -1.35604
  Beta  occ. eigenvalues --   -1.25627  -1.15919  -1.03525  -0.98207  -0.97713
  Beta  occ. eigenvalues --   -0.82029  -0.76776
  Beta virt. eigenvalues --   -0.65543  -0.64019  -0.62315  -0.44493  -0.37528
  Beta virt. eigenvalues --   -0.34923  -0.33516  -0.29856  -0.29688  -0.25995
  Beta virt. eigenvalues --   -0.24824  -0.23778  -0.22540  -0.21503  -0.20022

 Mulliken charges and spin densities:
               1          2
     1  C   -0.036088  -0.011780
     2  H    0.329164  -0.007778
     3  H    0.329164  -0.007778
     4  C   -0.052911  -0.051948
     5  H    0.285451  -0.000554
     6  C    0.795780  -0.027250
     7  C    0.349439   1.107087
 Sum of Mulliken charges =   2.00000   1.00000

 Dipole moment (field-independent basis, Debye):
    X=             -2.3691    Y=              2.6500    Z=             -0.0000  Tot=              3.5546
 Quadrupole moment (field-independent basis, Debye-Ang):
   XX=             -2.2852   YY=              0.8125   ZZ=            -16.5579
   XY=            -14.2021   XZ=              0.0000   YZ=             -0.0000

  Exact polarizability:  44.189 -18.877  47.823  -0.000   0.000  22.293
 Approx polarizability:  74.731 -45.973  98.527   0.000  -0.000  30.609

                      1                      2                      3
                     A'                     A"                     A'
 Frequencies --    136.9885               245.7687               293.3737
 Red. masses --      4.9206                 2.6303                 4.3926
 Frc consts  --      0.0544                 0.0936                 0.2228
 IR Inten    --     13.7092                17.2251                 9.4917

                      4                      5                      6
                     A"                     A"                     A'
 Frequencies --    357.3541               643.2608               825.8420
 Red. masses --      1.5273                 1.2140                 3.4649
 Frc consts  --      0.1149                 0.2960                 1.3923
 IR Inten    --      5.0947                20.5736                28.7920

                      7                      8                      9
                     A"                     A'                     A'
 Frequencies --    980.7638              1033.3611              1186.2721
 Red. masses --      1.6929                 1.3738                 1.4982
 Frc consts  --      0.9594                 0.8643                 1.2422
 IR Inten    --      2.4810                14.9681                 5.3655

                     10                     11                     12
                     A'                     A'                     A'
 Frequencies --   1368.5185              1468.8259              2106.0590
 Red. masses --      1.1297                 5.3479                11.3869
 Frc consts  --      1.2466                 6.7979                29.7575
 IR Inten    --     44.8667                12.2767               472.1392

                     13                     14                     15
                     A'                     A'                     A"
 Frequencies --   2673.8372              2911.3836              3011.7991
 Red. masses --      1.0764                 1.0496                 1.1196
 Frc consts  --      4.5339                 5.2419                 5.9836
 IR Inten    --    307.1712               308.9927               186.2478

 - Thermochemistry -
 -------------------
 Temperature   298.150 Kelvin.  Pressure   1.00000 Atm.
 Atom     1 has atomic number  6 and mass  12.00000

 Molecular mass:    51.02348 amu.
 Principal axes and moments of inertia in atomic units:
                           1         2         3
     Eigenvalues --    26.58958 388.57677 402.16752
           X           -0.66097   0.75041   0.00000
           Y            0.75041   0.66097   0.00000
           Z            0.00000   0.00000   1.00000
 This molecule is an asymmetric top.
 Rotational symmetry number  1.
 Rotational temperatures (Kelvin)      3.25743     0.22290     0.21537
 Rotational constants (GHZ):          67.87400     4.64449     4.48754
 Zero-point vibrational energy     115101.1 (Joules/Mol)
                                   27.50983 (Kcal/Mol)
 Warning -- explicit consideration of   4 degrees of freedom as
           vibrations may cause significant error
 Vibrational temperatures:    197.10   353.61   422.10   514.15   925.51
          (Kelvin)           1188.20  1411.10  1486.77  1706.78  1968.99
                             2113.31  3030.15  3847.05  4188.83  4333.30

 Zero-point correction=                           0.043840 (Hartree/Particle)
 Thermal correction to Energy=                    0.048926
 Thermal correction to Enthalpy=                  0.049870
 Thermal correction to Gibbs Free Energy=         0.016583
 Sum of electronic and zero-point Energies=           -153.058965
 Sum of electronic and thermal Energies=              -153.053879
 Sum of electronic and thermal Enthalpies=            -153.052935
 Sum of electronic and thermal Free Energies=         -153.086222

                     E (Thermal)             CV                S
                      KCal/Mol        Cal/Mol-Kelvin    Cal/Mol-Kelvin
 Total                   30.701             15.610             70.059
 Electronic               0.000              0.000              1.377
 Translational            0.889              2.981             37.712
 Rotational               0.889              2.981             22.945
 Vibrational             28.924              9.648              8.024
 Vibration     1          0.614              1.916              2.846
 Vibration     2          0.660              1.770              1.761
 Vibration     3          0.688              1.686              1.454
 Vibration     4          0.733              1.560              1.134

 Optimization completed.
    -- Stationary point found.
 Normal termination of Gaussian 09 at Tue Jul 19 10:06:40 2016.
