 Gaussian 09, Revision E.01,
 Gaussian 09:  EM64L-G09RevE.01 30-Nov-2015

 ---------------------------------------------
 #p b3lyp/6-311++G(3df,2p) freq symmetry=Loose
 ---------------------------------------------

 ---------
 b3lyp opt
 ---------
 Symbolic Z-matrix:
 Charge =  2 Multiplicity = 4

                         Standard orientation:
 ---------------------------------------------------------------------
 Center     Atomic      Atomic             Coordinates (Angstroms)
 Number     Number       Type             X           Y           Z
 ---------------------------------------------------------------------
      1          6           0       -0.050249    1.733554   -0.000000
      2          1           0       -1.127345    2.056370   -0.000000
      3          1           0        0.456105    2.204612    0.896278
      4          1           0        0.456105    2.204612   -0.896278
      5          6           0        0.000000    0.371121   -0.000000
      6          6           0        0.026353   -0.933045    0.000000
      7          6           0        0.059751   -2.249228    0.000000
 ---------------------------------------------------------------------

 SCF Done:  E(UB3LYP) =  -153.035834181     A.U. after   17 cycles

 The electronic state is 4-A'.
 Alpha  occ. eigenvalues --  -10.86682 -10.80999 -10.80842 -10.67880  -1.37976
 Alpha  occ. eigenvalues --   -1.29919  -1.21212  -0.98496  -0.94880  -0.93998
 Alpha  occ. eigenvalues --   -0.92446  -0.88655  -0.85771  -0.74944
 Alpha virt. eigenvalues --   -0.66016  -0.48598  -0.44709  -0.35411  -0.33281
 Alpha virt. eigenvalues --   -0.28090  -0.27879  -0.27014  -0.25716  -0.25229
 Alpha virt. eigenvalues --   -0.23840  -0.21746  -0.21615  -0.20673  -0.17651

  Beta  occ. eigenvalues --  -10.82798 -10.80245 -10.79961 -10.67778  -1.33893
  Beta  occ. eigenvalues --   -1.26296  -1.17983  -0.96999  -0.92192  -0.88829
  Beta  occ. eigenvalues --   -0.83887
  Beta virt. eigenvalues --   -0.74486  -0.68179  -0.62279  -0.58246  -0.41804
  Beta virt. eigenvalues --   -0.38298  -0.35041  -0.31199  -0.27772  -0.27132
  Beta virt. eigenvalues --   -0.25367  -0.24811  -0.24634  -0.23371  -0.21320

 Mulliken charges and spin densities:
               1          2
     1  C   -0.144369   0.037474
     2  H    0.296945  -0.020918
     3  H    0.303851   0.100592
     4  H    0.303851   0.100592
     5  C    0.198933   0.505781
     6  C    0.593170   0.510636
     7  C    0.447618   1.765842
 Sum of Mulliken charges =   2.00000   3.00000

 Dipole moment (field-independent basis, Debye):
    X=              0.0098    Y=             -0.3685    Z=             -0.0000  Tot=              0.3686
 Quadrupole moment (field-independent basis, Debye-Ang):
   XX=            -17.0044   YY=             17.4795   ZZ=            -17.0247
   XY=             -0.8091   XZ=             -0.0000   YZ=              0.0000

  Exact polarizability:  23.386  -0.942  83.593   0.000   0.000  22.891
 Approx polarizability:  33.004  -3.339 173.526  -0.000   0.000  32.198

                      1                      2                      3
                     A"                     A'                     A"
 Frequencies --    186.8659               205.6053               398.3576
 Red. masses --      3.6522                 4.4388                10.1090
 Frc consts  --      0.0751                 0.1106                 0.9452
 IR Inten    --     14.3499                12.3572                 4.2139

                      4                      5                      6
                     A'                     A"                     A"
 Frequencies --    428.6898               561.2065               681.1097
 Red. masses --      2.6674                 1.0842                 1.3627
 Frc consts  --      0.2888                 0.2012                 0.3725
 IR Inten    --      2.8561               149.4733                26.1394

                      7                      8                      9
                     A'                     A'                     A'
 Frequencies --    792.1004               816.7757              1047.9077
 Red. masses --      2.0768                 4.5866                 1.0975
 Frc consts  --      0.7677                 1.8028                 0.7100
 IR Inten    --     96.4523                25.4016               166.9602

                     10                     11                     12
                     A'                     A'                     A'
 Frequencies --   1226.5190              1466.3795              1847.0900
 Red. masses --      1.1917                10.1315                 8.6003
 Frc consts  --      1.0563                12.8356                17.2878
 IR Inten    --    203.4054                 3.3232               124.1708

                     13                     14                     15
                     A"                     A'                     A'
 Frequencies --   2388.0504              2659.6362              2769.6987
 Red. masses --      1.0713                 1.0561                 1.0749
 Frc consts  --      3.5994                 4.4016                 4.8583
 IR Inten    --    273.9916              1088.6553               357.1500

 - Thermochemistry -
 -------------------
 Temperature   298.150 Kelvin.  Pressure   1.00000 Atm.
 Atom     1 has atomic number  6 and mass  12.00000

 Molecular mass:    51.02348 amu.
 Principal axes and moments of inertia in atomic units:
                           1         2         3
     Eigenvalues --    11.83098 442.19980 442.46623
           X           -0.02686   0.99964   0.00000
           Y            0.99964   0.02686   0.00000
           Z           -0.00000   0.00000   1.00000
 This molecule is an asymmetric top.
 Rotational symmetry number  1.
 Rotational temperatures (Kelvin)      7.32094     0.19587     0.19575
 Rotational constants (GHZ):         152.54373     4.08128     4.07882
 Zero-point vibrational energy     104529.6 (Joules/Mol)
                                   24.98319 (Kcal/Mol)
 Warning -- explicit consideration of   5 degrees of freedom as
           vibrations may cause significant error
 Vibrational temperatures:    268.86   295.82   573.15   616.79   807.45
          (Kelvin)            979.96  1139.65  1175.16  1507.70  1764.69
                             2109.79  2657.55  3435.87  3826.62  3984.97

 Zero-point correction=                           0.039813 (Hartree/Particle)
 Thermal correction to Energy=                    0.044883
 Thermal correction to Enthalpy=                  0.045827
 Thermal correction to Gibbs Free Energy=         0.012381
 Sum of electronic and zero-point Energies=           -152.996021
 Sum of electronic and thermal Energies=              -152.990951
 Sum of electronic and thermal Enthalpies=            -152.990007
 Sum of electronic and thermal Free Energies=         -153.023453

                     E (Thermal)             CV                S
                      KCal/Mol        Cal/Mol-Kelvin    Cal/Mol-Kelvin
 Total                   28.164             16.427             70.393
 Electronic               0.000              0.000              2.755
 Translational            0.889              2.981             37.712
 Rotational               0.889              2.981             22.364
 Vibrational             26.387             10.465              7.562
 Vibration     1          0.632              1.858              2.259
 Vibration     2          0.640              1.832              2.082
 Vibration     3          0.765              1.474              0.969
 Vibration     4          0.790              1.408              0.863
 Vibration     5          0.917              1.115              0.521

 Optimization completed.
    -- Stationary point found.
 Normal termination of Gaussian 09 at Tue Jul 19 10:35:26 2016.
