 Gaussian 09, Revision E.01,
 Gaussian 09:  EM64L-G09RevE.01 30-Nov-2015

 ---------------------------------------------
 #p b3lyp/6-311++G(3df,2p) freq symmetry=Loose
 ---------------------------------------------

 ---------
 b3lyp opt
 ---------
 Symbolic Z-matrix:
 Charge =  1 Multiplicity = 1

                         Standard orientation:
 ---------------------------------------------------------------------
 Center     Atomic      Atomic             Coordinates (Angstroms)
 Number     Number       Type             X           Y           Z
 ---------------------------------------------------------------------
      1          6           0       -0.000000    0.000000   -1.737820
      2          1           0        0.000000    1.034271   -2.112389
      3          1           0        0.895705   -0.517136   -2.112389
      4          1           0       -0.895705   -0.517136   -2.112389
      5          6           0       -0.000000    0.000000   -0.335534
      6          6           0       -0.000000    0.000000    0.905820
      7          6           0       -0.000000    0.000000    2.223729
 ---------------------------------------------------------------------

 SCF Done:  E(RB3LYP) =  -153.761661897     A.U. after   11 cycles

 The electronic state is 1-A1.
 Alpha  occ. eigenvalues --  -10.55948 -10.54383 -10.45319 -10.45077  -1.10656
 Alpha  occ. eigenvalues --   -1.03213  -0.94596  -0.75196  -0.70429  -0.70429
 Alpha  occ. eigenvalues --   -0.59615  -0.59615  -0.56202
 Alpha virt. eigenvalues --   -0.39326  -0.39326  -0.17970  -0.16412  -0.16412
 Alpha virt. eigenvalues --   -0.12783  -0.11630  -0.11630  -0.08431  -0.08020
 Alpha virt. eigenvalues --   -0.08020  -0.06273  -0.06273  -0.05507  -0.03452

 Mulliken charges:
               1
     1  C   -0.247933
     2  H    0.230604
     3  H    0.230604
     4  H    0.230604
     5  C   -0.038317
     6  C    0.905500
     7  C   -0.311062
 Sum of Mulliken charges =   1.00000

 Dipole moment (field-independent basis, Debye):
    X=             -0.0000    Y=             -0.0000    Z=             -3.0901  Tot=              3.0901
 Quadrupole moment (field-independent basis, Debye-Ang):
   XX=            -19.9456   YY=            -19.9456   ZZ=             -9.2633
   XY=             -0.0000   XZ=              0.0000   YZ=              0.0000

  Exact polarizability:  28.130   0.000  28.130  -0.000  -0.000  78.292
 Approx polarizability:  40.980  -0.000  40.980   0.000  -0.000 178.471

                      1                      2                      3
                      E                      E                      E
 Frequencies --    118.6967               118.7034               417.4051
 Red. masses --      6.6036                 6.6036                 3.0307
 Frc consts  --      0.0548                 0.0548                 0.3111
 IR Inten    --      0.3614                 0.3613                 1.5380

                      4                      5                      6
                      E                     A1                      E
 Frequencies --    417.4063               815.6988               964.9864
 Red. masses --      3.0307                 4.6297                 1.6471
 Frc consts  --      0.3111                 1.8149                 0.9037
 IR Inten    --      1.5383                38.1065                19.5324

                      7                      8                      9
                      E                     A1                      E
 Frequencies --    964.9881              1350.5721              1359.5065
 Red. masses --      1.6471                 1.2170                 1.0369
 Frc consts  --      0.9037                 1.3079                 1.1292
 IR Inten    --     19.5320                70.1239                21.7054

                     10                     11                     12
                      E                     A1                     A1
 Frequencies --   1359.5067              1470.8673              2245.1699
 Red. masses --      1.0369                10.9820                11.8541
 Frc consts  --      1.1292                13.9984                35.2060
 IR Inten    --     21.7047                10.7154              1628.2781

                     13                     14                     15
                     A1                      E                      E
 Frequencies --   2955.3109              3019.3691              3019.3699
 Red. masses --      1.0336                 1.0976                 1.0976
 Frc consts  --      5.3188                 5.8958                 5.8958
 IR Inten    --    194.8367                52.1014                52.1059

 - Thermochemistry -
 -------------------
 Temperature   298.150 Kelvin.  Pressure   1.00000 Atm.
 Atom     1 has atomic number  6 and mass  12.00000

 Molecular mass:    51.02348 amu.
 Principal axes and moments of inertia in atomic units:
                           1         2         3
     Eigenvalues --    11.54976 432.49385 432.49385
           X            0.00000   0.84890  -0.52855
           Y            0.00000   0.52855   0.84890
           Z            1.00000  -0.00000  -0.00000
 This molecule is a prolate symmetric top.
 Rotational symmetry number  3.
 Rotational temperatures (Kelvin)      7.49919     0.20027     0.20027
 Rotational constants (GHZ):         156.25793     4.17287     4.17287
 Zero-point vibrational energy     123200.7 (Joules/Mol)
                                   29.44569 (Kcal/Mol)
 Warning -- explicit consideration of   4 degrees of freedom as
           vibrations may cause significant error
 Vibrational temperatures:    170.78   170.79   600.55   600.55  1173.61
          (Kelvin)           1388.40  1388.40  1943.17  1956.02  1956.02
                             2116.25  3230.29  4252.03  4344.19  4344.19

 Zero-point correction=                           0.046925 (Hartree/Particle)
 Thermal correction to Energy=                    0.051932
 Thermal correction to Enthalpy=                  0.052877
 Thermal correction to Gibbs Free Energy=         0.021348
 Sum of electronic and zero-point Energies=           -153.714737
 Sum of electronic and thermal Energies=              -153.709729
 Sum of electronic and thermal Enthalpies=            -153.708785
 Sum of electronic and thermal Free Energies=         -153.740314

                     E (Thermal)             CV                S
                      KCal/Mol        Cal/Mol-Kelvin    Cal/Mol-Kelvin
 Total                   32.588             14.610             66.358
 Electronic               0.000              0.000              0.000
 Translational            0.889              2.981             37.712
 Rotational               0.889              2.981             20.112
 Vibrational             30.811              8.648              8.533
 Vibration     1          0.609              1.934              3.121
 Vibration     2          0.609              1.934              3.121
 Vibration     3          0.780              1.432              0.901
 Vibration     4          0.780              1.432              0.901

 Optimization completed.
    -- Stationary point found.
 Normal termination of Gaussian 09 at Sun Jun 19 06:01:30 2016.
