 Gaussian 09, Revision E.01,
 Gaussian 09:  EM64L-G09RevE.01 30-Nov-2015

 ---------------------------------------------
 #p b3lyp/6-311++G(3df,2p) freq symmetry=Loose
 ---------------------------------------------

 ---------
 b3lyp opt
 ---------
 Symbolic Z-matrix:
 Charge =  1 Multiplicity = 1

                         Standard orientation:
 ---------------------------------------------------------------------
 Center     Atomic      Atomic             Coordinates (Angstroms)
 Number     Number       Type             X           Y           Z
 ---------------------------------------------------------------------
      1          6           0        0.636561   -0.985168    0.000000
      2          1           0        1.652510   -1.345927    0.000000
      3          6           0       -0.630542   -0.988629    0.000000
      4          1           0       -1.645261   -1.352755    0.000000
      5          6           0        0.000000    0.372760    0.000000
      6          6           0       -0.005470    1.604726    0.000000
      7          1           0       -0.010547    2.676550    0.000000
 ---------------------------------------------------------------------

 SCF Done:  E(RB3LYP) =  -153.800354784     A.U. after   11 cycles

 The electronic state is 1-A'.
 Alpha  occ. eigenvalues --  -10.49188 -10.49050 -10.47455 -10.47019  -1.17518
 Alpha  occ. eigenvalues --   -1.00080  -0.84084  -0.80122  -0.77616  -0.68430
 Alpha  occ. eigenvalues --   -0.64537  -0.60262  -0.50099
 Alpha virt. eigenvalues --   -0.34718  -0.25718  -0.19164  -0.14859  -0.13598
 Alpha virt. eigenvalues --   -0.12814  -0.12555  -0.11016  -0.09549  -0.09318
 Alpha virt. eigenvalues --   -0.05525  -0.05044  -0.04981  -0.03504  -0.03364

 Mulliken charges:
               1
     1  C    0.045969
     2  H    0.336093
     3  C    0.042597
     4  H    0.336189
     5  C   -0.261609
     6  C    0.117114
     7  H    0.383648
 Sum of Mulliken charges =   1.00000

 Dipole moment (field-independent basis, Debye):
    X=             -0.0049    Y=              0.1718    Z=              0.0000  Tot=              0.1719
 Quadrupole moment (field-independent basis, Debye-Ang):
   XX=            -13.7681   YY=             -6.1365   ZZ=            -22.8008
   XY=             -0.0355   XZ=              0.0000   YZ=              0.0000

  Exact polarizability:  32.259  -0.086  54.786  -0.002  -0.002  23.210
 Approx polarizability:  52.999  -0.164 100.964  -0.000  -0.000  32.472

                      1                      2                      3
                     A'                     A"                     A"
 Frequencies --    194.7872               386.4149               467.0594
 Red. masses --      2.7131                 6.8541                 1.1439
 Frc consts  --      0.0607                 0.6030                 0.1470
 IR Inten    --     23.9273                 0.0004               101.9985

                      4                      5                      6
                     A'                     A"                     A"
 Frequencies --    623.4061               738.1206               774.0093
 Red. masses --      7.9548                 1.1824                 1.5091
 Frc consts  --      1.8215                 0.3796                 0.5327
 IR Inten    --     27.9932                64.3769                 0.0001

                      7                      8                      9
                     A'                     A'                     A'
 Frequencies --    789.6629               922.5123               950.2426
 Red. masses --      6.9691                 1.0913                 1.3049
 Frc consts  --      2.5604                 0.5472                 0.6942
 IR Inten    --     23.7358                 2.9429                 0.2754

                     10                     11                     12
                     A'                     A'                     A'
 Frequencies --   1005.5316              1675.8267              1970.9650
 Red. masses --      1.3763                 5.1206                 5.2331
 Frc consts  --      0.8199                 8.4728                11.9775
 IR Inten    --      7.3742                52.3166                51.8388

                     13                     14                     15
                     A'                     A'                     A'
 Frequencies --   3241.6941              3308.2543              3364.6069
 Red. masses --      1.0861                 1.1762                 1.1409
 Frc consts  --      6.7246                 7.5848                 7.6100
 IR Inten    --    192.7420                69.5863               168.6397

 - Thermochemistry -
 -------------------
 Temperature   298.150 Kelvin.  Pressure   1.00000 Atm.
 Atom     1 has atomic number  6 and mass  12.00000

 Molecular mass:    51.02348 amu.
 Principal axes and moments of inertia in atomic units:
                           1         2         3
     Eigenvalues --    53.97166 238.67205 292.64372
           X           -0.00343   0.99999   0.00000
           Y            0.99999   0.00343   0.00000
           Z           -0.00000   0.00000   1.00000
 This molecule is an asymmetric top.
 Rotational symmetry number  1.
 Rotational temperatures (Kelvin)      1.60480     0.36290     0.29597
 Rotational constants (GHZ):          33.43868     7.56159     6.16703
 Zero-point vibrational energy     122097.4 (Joules/Mol)
                                   29.18198 (Kcal/Mol)
 Warning -- explicit consideration of   3 degrees of freedom as
           vibrations may cause significant error
 Vibrational temperatures:    280.26   555.96   671.99   896.94  1061.99
          (Kelvin)           1113.63  1136.15  1327.29  1367.19  1446.73
                             2411.14  2835.78  4664.07  4759.83  4840.91

 Zero-point correction=                           0.046504 (Hartree/Particle)
 Thermal correction to Energy=                    0.051025
 Thermal correction to Enthalpy=                  0.051969
 Thermal correction to Gibbs Free Energy=         0.020628
 Sum of electronic and zero-point Energies=           -153.753850
 Sum of electronic and thermal Energies=              -153.749330
 Sum of electronic and thermal Enthalpies=            -153.748385
 Sum of electronic and thermal Free Energies=         -153.779727

                     E (Thermal)             CV                S
                      KCal/Mol        Cal/Mol-Kelvin    Cal/Mol-Kelvin
 Total                   32.019             15.064             65.963
 Electronic               0.000              0.000              0.000
 Translational            0.889              2.981             37.712
 Rotational               0.889              2.981             22.849
 Vibrational             30.241              9.102              5.403
 Vibration     1          0.635              1.847              2.182
 Vibration     2          0.755              1.499              1.014
 Vibration     3          0.824              1.323              0.746

 Normal termination of Gaussian 09 at Sun Jun 19 06:09:02 2016.
