 Gaussian 09, Revision E.01,
 Gaussian 09:  EM64L-G09RevE.01 30-Nov-2015

 ---------------------------------------------
 #p b3lyp/6-311++G(3df,2p) freq symmetry=Loose
 ---------------------------------------------

 ---------
 b3lyp opt
 ---------
 Symbolic Z-matrix:
 Charge =  1 Multiplicity = 3

                         Standard orientation:
 ---------------------------------------------------------------------
 Center     Atomic      Atomic             Coordinates (Angstroms)
 Number     Number       Type             X           Y           Z
 ---------------------------------------------------------------------
      1          6           0        0.007472   -1.055306   -0.000000
      2          6           0        1.048334    0.026483    0.000000
      3          6           0        0.000000    0.905336    0.000000
      4          1           0       -0.078175    1.989212    0.000000
      5          6           0       -1.043402   -0.182337   -0.000000
      6          1           0       -2.122017   -0.222007   -0.000000
      7          1           0        2.125769    0.067735    0.000000
 ---------------------------------------------------------------------

 SCF Done:  E(UB3LYP) =  -153.749457924     A.U. after   15 cycles

 The electronic state is 3-A".
 Alpha  occ. eigenvalues --  -10.52038 -10.50088 -10.48770 -10.48764  -1.19580
 Alpha  occ. eigenvalues --   -0.95237  -0.89673  -0.79301  -0.73526  -0.69278
 Alpha  occ. eigenvalues --   -0.66753  -0.66302  -0.52832  -0.48213
 Alpha virt. eigenvalues --   -0.36723  -0.20311  -0.15767  -0.14663  -0.13419
 Alpha virt. eigenvalues --   -0.12390  -0.10918  -0.10205  -0.08425  -0.07771
 Alpha virt. eigenvalues --   -0.05722  -0.04847  -0.04730  -0.02829  -0.01873

  Beta  occ. eigenvalues --  -10.50157 -10.49707 -10.48078 -10.48056  -1.17098
  Beta  occ. eigenvalues --   -0.92441  -0.87523  -0.78260  -0.70204  -0.67580
  Beta  occ. eigenvalues --   -0.64861  -0.62291
  Beta virt. eigenvalues --   -0.37603  -0.36185  -0.33295  -0.15564  -0.15345
  Beta virt. eigenvalues --   -0.14087  -0.13002  -0.11664  -0.10559  -0.09616
  Beta virt. eigenvalues --   -0.08356  -0.06985  -0.05188  -0.04434  -0.04327

 Mulliken charges and spin densities:
               1          2
     1  C    0.398311   1.072621
     2  C   -0.329183   0.401326
     3  C    0.354580   0.146288
     4  H    0.274645   0.038273
     5  C   -0.272801   0.361050
     6  H    0.288767  -0.007878
     7  H    0.285681  -0.011682
 Sum of Mulliken charges =   1.00000   2.00000

 Dipole moment (field-independent basis, Debye):
    X=             -0.1285    Y=              1.1306    Z=              0.0000  Tot=              1.1379
 Quadrupole moment (field-independent basis, Debye-Ang):
   XX=            -11.4337   YY=            -16.2576   ZZ=            -21.6110
   XY=              0.2441   XZ=              0.0000   YZ=              0.0000

  Exact polarizability:  42.002   0.268  39.265   0.000  -0.000  23.024
 Approx polarizability:  67.173  -5.857  66.803   0.000   0.000  34.401

                      1                      2                      3
                     A"                     A"                     A'
 Frequencies --    329.7516               658.2216               758.0019
 Red. masses --      2.6280                 1.1241                 7.2015
 Frc consts  --      0.1684                 0.2869                 2.4379
 IR Inten    --      0.2544                64.6058                 3.3403

                      4                      5                      6
                     A'                     A"                     A"
 Frequencies --    817.3600               847.8697               926.9917
 Red. masses --      2.5581                 1.3262                 1.6405
 Frc consts  --      1.0069                 0.5617                 0.8306
 IR Inten    --      0.7377                 0.0382                 0.0149

                      7                      8                      9
                     A'                     A'                     A'
 Frequencies --   1026.3561              1112.4756              1150.2242
 Red. masses --      1.2130                 2.0622                 2.0461
 Frc consts  --      0.7528                 1.5037                 1.5950
 IR Inten    --      1.6020                 2.8703                13.9791

                     10                     11                     12
                     A'                     A'                     A'
 Frequencies --   1227.1399              1449.2606              1459.6166
 Red. masses --      1.4640                 5.5493                 6.5176
 Frc consts  --      1.2989                 6.8673                 8.1811
 IR Inten    --     44.9300                58.9725                10.9792

                     13                     14                     15
                     A'                     A'                     A'
 Frequencies --   3152.1187              3245.7163              3260.4125
 Red. masses --      1.0931                 1.1026                 1.1058
 Frc consts  --      6.3989                 6.8435                 6.9261
 IR Inten    --     47.1034                45.0094                46.9241

 - Thermochemistry -
 -------------------
 Temperature   298.150 Kelvin.  Pressure   1.00000 Atm.
 Atom     1 has atomic number  6 and mass  12.00000

 Molecular mass:    51.02348 amu.
 Principal axes and moments of inertia in atomic units:
                           1         2         3
     Eigenvalues --    94.87687 129.87082 224.74768
           X            0.94674  -0.32200   0.00000
           Y            0.32200   0.94674   0.00000
           Z           -0.00000   0.00000   1.00000
 This molecule is an asymmetric top.
 Rotational symmetry number  1.
 Rotational temperatures (Kelvin)      0.91291     0.66692     0.38538
 Rotational constants (GHZ):          19.02193    13.89643     8.03008
 Zero-point vibrational energy     128129.1 (Joules/Mol)
                                   30.62360 (Kcal/Mol)
 Warning -- explicit consideration of   1 degrees of freedom as
           vibrations may cause significant error
 Vibrational temperatures:    474.44   947.03  1090.59  1176.00  1219.89
          (Kelvin)           1333.73  1476.70  1600.60  1654.91  1765.58
                             2085.16  2100.06  4535.19  4669.86  4691.00

 Zero-point correction=                           0.048802 (Hartree/Particle)
 Thermal correction to Energy=                    0.052533
 Thermal correction to Enthalpy=                  0.053477
 Thermal correction to Gibbs Free Energy=         0.022568
 Sum of electronic and zero-point Energies=           -153.700656
 Sum of electronic and thermal Energies=              -153.696925
 Sum of electronic and thermal Enthalpies=            -153.695981
 Sum of electronic and thermal Free Energies=         -153.726890

                     E (Thermal)             CV                S
                      KCal/Mol        Cal/Mol-Kelvin    Cal/Mol-Kelvin
 Total                   32.965             12.095             65.053
 Electronic               0.000              0.000              2.183
 Translational            0.889              2.981             37.712
 Rotational               0.889              2.981             22.542
 Vibrational             31.187              6.134              2.616
 Vibration     1          0.713              1.616              1.261

 Optimization completed.
    -- Stationary point found.
 Normal termination of Gaussian 09 at Sun Jun 19 06:10:28 2016.
