 Gaussian 09, Revision E.01,
 Gaussian 09:  EM64L-G09RevE.01 30-Nov-2015

 ---------------------------------------------
 #p b3lyp/6-311++G(3df,2p) freq symmetry=Loose
 ---------------------------------------------

 ---------
 b3lyp opt
 ---------
 Symbolic Z-matrix:
 Charge =  2 Multiplicity = 4

                         Standard orientation:
 ---------------------------------------------------------------------
 Center     Atomic      Atomic             Coordinates (Angstroms)
 Number     Number       Type             X           Y           Z
 ---------------------------------------------------------------------
      1          6           0        1.602284    0.077658   -0.000323
      2          1           0        2.031233    1.092551    0.001150
      3          1           0        2.306869   -0.779226    0.000265
      4          6           0        0.286032   -0.192035   -0.000006
      5          6           0       -1.027261   -0.515833    0.000379
      6          1           0       -1.666197   -1.423940   -0.000742
      7          6           0       -1.306372    0.815312   -0.000162
 ---------------------------------------------------------------------

 SCF Done:  E(UB3LYP) =  -153.079669031     A.U. after   16 cycles

 The electronic state is 4-A.
 Alpha  occ. eigenvalues --  -10.86446 -10.81638 -10.78488 -10.75064  -1.43980
 Alpha  occ. eigenvalues --   -1.29877  -1.12384  -1.06519  -1.00215  -0.95324
 Alpha  occ. eigenvalues --   -0.92247  -0.92177  -0.79925  -0.79510
 Alpha virt. eigenvalues --   -0.59339  -0.55921  -0.46712  -0.36152  -0.32419
 Alpha virt. eigenvalues --   -0.30343  -0.29694  -0.26763  -0.26721  -0.24702
 Alpha virt. eigenvalues --   -0.23687  -0.21826  -0.21525  -0.20617  -0.20210

  Beta  occ. eigenvalues --  -10.82725 -10.80892 -10.78257 -10.74334  -1.40596
  Beta  occ. eigenvalues --   -1.26456  -1.06745  -1.03459  -0.98365  -0.93131
  Beta  occ. eigenvalues --   -0.88135
  Beta virt. eigenvalues --   -0.69526  -0.67462  -0.66381  -0.52044  -0.47604
  Beta virt. eigenvalues --   -0.43288  -0.34762  -0.31477  -0.29478  -0.28893
  Beta virt. eigenvalues --   -0.26274  -0.25598  -0.23628  -0.22846  -0.21265

 Mulliken charges and spin densities:
               1          2
     1  C   -0.092971   0.276347
     2  H    0.319262   0.016741
     3  H    0.317526   0.027896
     4  C    0.501123   0.408408
     5  C    0.348419   0.181449
     6  H    0.356659   0.096581
     7  C    0.249983   1.992577
 Sum of Mulliken charges =   2.00000   3.00000

 Dipole moment (field-independent basis, Debye):
    X=              0.4703    Y=              0.0123    Z=             -0.0001  Tot=              0.4705
 Quadrupole moment (field-independent basis, Debye-Ang):
   XX=              5.9964   YY=            -10.3514   ZZ=            -19.5229
   XY=              0.9461   XZ=              0.0042   YZ=              0.0021

  Exact polarizability:  59.692  -1.884  30.322  -0.001  -0.001  19.796
 Approx polarizability: 111.587 -13.535  54.017  -0.008  -0.007  28.036

                      1                      2                      3
                      A                      A                      A
 Frequencies --    212.0304               325.0872               347.8095
 Red. masses --      7.5915                 2.7214                 3.9190
 Frc consts  --      0.2011                 0.1694                 0.2793
 IR Inten    --      9.9972                14.1626                18.0054

                      4                      5                      6
                      A                      A                      A
 Frequencies --    501.9812               723.2464               860.9214
 Red. masses --      1.1105                 1.3974                 1.5222
 Frc consts  --      0.1649                 0.4307                 0.6647
 IR Inten    --      0.3813                30.4001                 4.0806

                      7                      8                      9
                      A                      A                      A
 Frequencies --    918.8915               947.9677              1070.2766
 Red. masses --      2.5308                 1.3444                 1.4719
 Frc consts  --      1.2590                 0.7118                 0.9934
 IR Inten    --      0.6332                28.9980                59.8396

                     10                     11                     12
                      A                      A                      A
 Frequencies --   1304.5773              1328.9417              1713.4818
 Red. masses --      1.6444                 2.5162                 8.8545
 Frc consts  --      1.6489                 2.6182                15.3170
 IR Inten    --     12.3365                91.9987                14.5934

                     13                     14                     15
                      A                      A                      A
 Frequencies --   2894.8919              2922.7659              3019.0253
 Red. masses --      1.0737                 1.0895                 1.1088
 Frc consts  --      5.3013                 5.4834                 5.9543
 IR Inten    --    591.2374               188.7878               212.1796

 - Thermochemistry -
 -------------------
 Temperature   298.150 Kelvin.  Pressure   1.00000 Atm.
 Atom     1 has atomic number  6 and mass  12.00000

 Molecular mass:    51.02348 amu.
 Principal axes and moments of inertia in atomic units:
                           1         2         3
     Eigenvalues --    54.99398 275.80458 330.79852
           X            0.99903   0.04395   0.00006
           Y           -0.04395   0.99903   0.00014
           Z           -0.00005  -0.00015   1.00000
 This molecule is an asymmetric top.
 Rotational symmetry number  1.
 Rotational temperatures (Kelvin)      1.57497     0.31404     0.26183
 Rotational constants (GHZ):          32.81707     6.54355     5.45571
 Zero-point vibrational energy     114194.9 (Joules/Mol)
                                   27.29323 (Kcal/Mol)
 Warning -- explicit consideration of   4 degrees of freedom as
           vibrations may cause significant error
 Vibrational temperatures:    305.06   467.73   500.42   722.24  1040.59
          (Kelvin)           1238.67  1322.08  1363.91  1539.89  1876.99
                             1912.05  2465.32  4165.10  4205.20  4343.70

 Zero-point correction=                           0.043495 (Hartree/Particle)
 Thermal correction to Energy=                    0.048158
 Thermal correction to Enthalpy=                  0.049102
 Thermal correction to Gibbs Free Energy=         0.016055
 Sum of electronic and zero-point Energies=           -153.036174
 Sum of electronic and thermal Energies=              -153.031511
 Sum of electronic and thermal Enthalpies=            -153.030567
 Sum of electronic and thermal Free Energies=         -153.063614

                     E (Thermal)             CV                S
                      KCal/Mol        Cal/Mol-Kelvin    Cal/Mol-Kelvin
 Total                   30.219             15.111             69.553
 Electronic               0.000              0.000              2.755
 Translational            0.889              2.981             37.712
 Rotational               0.889              2.981             23.133
 Vibrational             28.442              9.149              5.954
 Vibration     1          0.643              1.823              2.026
 Vibration     2          0.709              1.625              1.284
 Vibration     3          0.725              1.580              1.176
 Vibration     4          0.857              1.246              0.653

 Normal termination of Gaussian 09 at Sun Jun 19 06:39:52 2016.
