 Gaussian 09, Revision E.01,
 Gaussian 09:  EM64L-G09RevE.01 30-Nov-2015

 ---------------------------------------------
 #p b3lyp/6-311++G(3df,2p) freq symmetry=Loose
 ---------------------------------------------

 ---------
 b3lyp opt
 ---------
 Symbolic Z-matrix:
 Charge =  2 Multiplicity = 4

                         Standard orientation:
 ---------------------------------------------------------------------
 Center     Atomic      Atomic             Coordinates (Angstroms)
 Number     Number       Type             X           Y           Z
 ---------------------------------------------------------------------
      1          6           0        0.955719    0.032421    0.038427
      2          6           0       -0.009888   -1.066685   -0.143314
      3          6           0       -1.168183   -0.229857    0.108965
      4          1           0        1.513583    0.033102    1.043125
      5          1           0        1.831456    0.189105   -0.655045
      6          6           0       -0.264922    0.900892   -0.019304
      7          1           0       -0.421390    1.957164   -0.296722
 ---------------------------------------------------------------------

 SCF Done:  E(UB3LYP) =  -153.037585065     A.U. after   15 cycles

 The electronic state is 4-A.
 Alpha  occ. eigenvalues --  -10.85762 -10.83831 -10.82806 -10.75533  -1.49071
 Alpha  occ. eigenvalues --   -1.23001  -1.19358  -1.03130  -1.02101  -0.98086
 Alpha  occ. eigenvalues --   -0.97338  -0.86568  -0.83866  -0.82421
 Alpha virt. eigenvalues --   -0.65964  -0.56450  -0.38506  -0.36506  -0.35295
 Alpha virt. eigenvalues --   -0.33342  -0.30179  -0.29086  -0.26804  -0.25336
 Alpha virt. eigenvalues --   -0.24924  -0.24342  -0.23897  -0.21890  -0.20457

  Beta  occ. eigenvalues --  -10.83773 -10.82354 -10.81101 -10.75125  -1.45548
  Beta  occ. eigenvalues --   -1.19119  -1.16303  -0.98362  -0.97987  -0.94948
  Beta  occ. eigenvalues --   -0.94224
  Beta virt. eigenvalues --   -0.73929  -0.66072  -0.63436  -0.61764  -0.48551
  Beta virt. eigenvalues --   -0.36748  -0.35391  -0.33631  -0.32186  -0.29368
  Beta virt. eigenvalues --   -0.27879  -0.24621  -0.24096  -0.23608  -0.23049

 Mulliken charges and spin densities:
               1          2
     1  C   -0.145690   0.094826
     2  C    0.511191   0.999175
     3  C    0.389171   1.442325
     4  H    0.314876   0.138409
     5  H    0.268545   0.105285
     6  C    0.318349   0.187607
     7  H    0.343558   0.032374
 Sum of Mulliken charges =   2.00000   3.00000

 Dipole moment (field-independent basis, Debye):
    X=              1.2196    Y=              1.2324    Z=              0.2897  Tot=              1.7579
 Quadrupole moment (field-independent basis, Debye-Ang):
   XX=             -7.4642   YY=             -9.3049   ZZ=            -15.9948
   XY=             -0.3984   XZ=              0.5265   YZ=             -0.7586

  Exact polarizability:  39.131   0.260  34.391   0.364  -0.259  21.809
 Approx polarizability:  69.858   0.186  62.667   0.555   0.797  33.688

                      1                      2                      3
                      A                      A                      A
 Frequencies --    218.6775               561.2494               737.3978
 Red. masses --      2.1360                 1.3937                 1.3330
 Frc consts  --      0.0602                 0.2587                 0.4271
 IR Inten    --     14.8724                28.1464                 4.9561

                      4                      5                      6
                      A                      A                      A
 Frequencies --    808.8502               826.2685               958.9028
 Red. masses --      2.3053                 4.5378                 1.5821
 Frc consts  --      0.8886                 1.8253                 0.8571
 IR Inten    --     12.3167                17.6824                88.5564

                      7                      8                      9
                      A                      A                      A
 Frequencies --   1009.9337              1025.0839              1048.0174
 Red. masses --      1.7604                 1.6884                 1.9639
 Frc consts  --      1.0579                 1.0453                 1.2709
 IR Inten    --     17.5711               100.2904               124.2161

                     10                     11                     12
                      A                      A                      A
 Frequencies --   1151.5909              1175.7640              1252.5213
 Red. masses --      2.6233                 2.4130                 3.4930
 Frc consts  --      2.0497                 1.9653                 3.2287
 IR Inten    --     92.0235                33.8114                15.2887

                     13                     14                     15
                      A                      A                      A
 Frequencies --   2489.4098              2704.2724              3016.0169
 Red. masses --      1.0753                 1.0740                 1.0994
 Frc consts  --      3.9263                 4.6274                 5.8921
 IR Inten    --    406.2304               484.7030               239.3455

 - Thermochemistry -
 -------------------
 Temperature   298.150 Kelvin.  Pressure   1.00000 Atm.
 Atom     1 has atomic number  6 and mass  12.00000

 Molecular mass:    51.02348 amu.
 Principal axes and moments of inertia in atomic units:
                           1         2         3
     Eigenvalues --   106.60482 128.23355 220.52834
           X            0.99873  -0.04775   0.01609
           Y            0.04816   0.99851  -0.02575
           Z           -0.01484   0.02650   0.99954
 This molecule is an asymmetric top.
 Rotational symmetry number  1.
 Rotational temperatures (Kelvin)      0.81248     0.67544     0.39276
 Rotational constants (GHZ):          16.92927    14.07386     8.18372
 Zero-point vibrational energy     113549.3 (Joules/Mol)
                                   27.13893 (Kcal/Mol)
 Warning -- explicit consideration of   2 degrees of freedom as
           vibrations may cause significant error
 Vibrational temperatures:    314.63   807.51  1060.95  1163.75  1188.81
          (Kelvin)           1379.65  1453.07  1474.87  1507.86  1656.88
                             1691.66  1802.10  3581.70  3890.84  4339.37

 Zero-point correction=                           0.043249 (Hartree/Particle)
 Thermal correction to Energy=                    0.047236
 Thermal correction to Enthalpy=                  0.048181
 Thermal correction to Gibbs Free Energy=         0.016476
 Sum of electronic and zero-point Energies=           -152.994336
 Sum of electronic and thermal Energies=              -152.990349
 Sum of electronic and thermal Enthalpies=            -152.989404
 Sum of electronic and thermal Free Energies=         -153.021109

                     E (Thermal)             CV                S
                      KCal/Mol        Cal/Mol-Kelvin    Cal/Mol-Kelvin
 Total                   29.641             12.998             66.728
 Electronic               0.000              0.000              2.755
 Translational            0.889              2.981             37.712
 Rotational               0.889              2.981             22.626
 Vibrational             27.864              7.036              3.635
 Vibration     1          0.646              1.813              1.970
 Vibration     2          0.917              1.115              0.521

 Optimization completed.
    -- Stationary point found.
 Normal termination of Gaussian 09 at Sun Jun 19 06:32:47 2016.
