 Gaussian 09, Revision E.01,
 Gaussian 09:  EM64L-G09RevE.01 30-Nov-2015

 ---------------------------------------------
 #p b3lyp/6-311++G(3df,2p) freq symmetry=Loose
 ---------------------------------------------

 ---------
 b3lyp opt
 ---------
 Symbolic Z-matrix:
 Charge =  2 Multiplicity = 4

                         Standard orientation:
 ---------------------------------------------------------------------
 Center     Atomic      Atomic             Coordinates (Angstroms)
 Number     Number       Type             X           Y           Z
 ---------------------------------------------------------------------
      1          6           0       -0.546775   -0.710481   -0.000000
      2          1           0       -1.234539   -0.902296    0.870966
      3          1           0       -1.234539   -0.902296   -0.870966
      4          6           0        0.400040   -1.865214   -0.000000
      5          6           0       -0.000000    0.613801    0.000000
      6          6           0        0.426089    1.792632    0.000000
      7          1           0        0.792952    2.820162    0.000000
 ---------------------------------------------------------------------

 SCF Done:  E(UB3LYP) =  -153.037365835     A.U. after   16 cycles

 The electronic state is 4-A".
 Alpha  occ. eigenvalues --  -10.84916 -10.76522 -10.76289 -10.74764  -1.35537
 Alpha  occ. eigenvalues --   -1.28803  -1.12538  -1.02952  -0.99601  -0.95795
 Alpha  occ. eigenvalues --   -0.89507  -0.83247  -0.80720  -0.76056
 Alpha virt. eigenvalues --   -0.63241  -0.50422  -0.48799  -0.36045  -0.32652
 Alpha virt. eigenvalues --   -0.30442  -0.29439  -0.28096  -0.26544  -0.25088
 Alpha virt. eigenvalues --   -0.23574  -0.22186  -0.21205  -0.20200  -0.20170

  Beta  occ. eigenvalues --  -10.81580 -10.75570 -10.75407 -10.74474  -1.32453
  Beta  occ. eigenvalues --   -1.24390  -1.07623  -1.00625  -0.97765  -0.93920
  Beta  occ. eigenvalues --   -0.79928
  Beta virt. eigenvalues --   -0.69459  -0.68196  -0.58461  -0.55236  -0.46600
  Beta virt. eigenvalues --   -0.44514  -0.34980  -0.31089  -0.29741  -0.28754
  Beta virt. eigenvalues --   -0.27411  -0.25694  -0.23991  -0.22925  -0.20447

 Mulliken charges and spin densities:
               1          2
     1  C   -0.395645   0.228910
     2  H    0.317506   0.034515
     3  H    0.317506   0.034515
     4  C    0.340810   1.754211
     5  C    0.233214   0.466751
     6  C    0.731182   0.497044
     7  H    0.455426  -0.015945
 Sum of Mulliken charges =   2.00000   3.00000

 Dipole moment (field-independent basis, Debye):
    X=             -0.0974    Y=              0.0377    Z=             -0.0000  Tot=              0.1045
 Quadrupole moment (field-independent basis, Debye-Ang):
   XX=            -14.3149   YY=             11.1822   ZZ=            -16.0957
   XY=              5.1920   XZ=              0.0000   YZ=              0.0000

  Exact polarizability:  28.888   2.002  73.792   0.000   0.000  23.226
 Approx polarizability:  43.698   1.866 124.481   0.000  -0.000  34.648

                      1                      2                      3
                     A'                     A"                     A"
 Frequencies --    216.0981               298.3569               459.4690
 Red. masses --      5.0143                 2.1487                 1.7483
 Frc consts  --      0.1380                 0.1127                 0.2175
 IR Inten    --      9.5174                29.6529                18.6250

                      4                      5                      6
                     A'                     A'                     A"
 Frequencies --    539.0805               733.5278               746.8825
 Red. masses --      7.5999                 1.3458                 1.3137
 Frc consts  --      1.3013                 0.4266                 0.4318
 IR Inten    --      9.2405                43.2679                13.2763

                      7                      8                      9
                     A'                     A'                     A"
 Frequencies --    748.6386               885.9957               976.9991
 Red. masses --      4.8457                 3.8741                 1.2124
 Frc consts  --      1.6001                 1.7918                 0.6819
 IR Inten    --     55.0017                 5.8276                 2.3205

                     10                     11                     12
                     A'                     A'                     A'
 Frequencies --   1122.9110              1235.9536              1953.0392
 Red. masses --      1.1020                 1.3448                 6.0150
 Frc consts  --      0.8187                 1.2104                13.5180
 IR Inten    --     66.5340                26.1774               395.1003

                     13                     14                     15
                     A"                     A'                     A'
 Frequencies --   2731.2358              2754.4032              3185.6084
 Red. masses --      1.0816                 1.0606                 1.1607
 Frc consts  --      4.7536                 4.7407                 6.9400
 IR Inten    --    240.5213               319.3424               321.9368

 - Thermochemistry -
 -------------------
 Temperature   298.150 Kelvin.  Pressure   1.00000 Atm.
 Atom     1 has atomic number  6 and mass  12.00000

 Molecular mass:    51.02348 amu.
 Principal axes and moments of inertia in atomic units:
                           1         2         3
     Eigenvalues --    42.44577 367.94764 399.47285
           X            0.10375   0.99460   0.00000
           Y            0.99460  -0.10375   0.00000
           Z           -0.00000  -0.00000   1.00000
 This molecule is an asymmetric top.
 Rotational symmetry number  1.
 Rotational temperatures (Kelvin)      2.04058     0.23540     0.21682
 Rotational constants (GHZ):          42.51876     4.90489     4.51781
 Zero-point vibrational energy     111182.1 (Joules/Mol)
                                   26.57316 (Kcal/Mol)
 Warning -- explicit consideration of   4 degrees of freedom as
           vibrations may cause significant error
 Vibrational temperatures:    310.92   429.27   661.07   775.62  1055.38
          (Kelvin)           1074.60  1077.12  1274.75  1405.68  1615.62
                             1778.26  2809.98  3929.63  3962.97  4583.37

 Zero-point correction=                           0.042347 (Hartree/Particle)
 Thermal correction to Energy=                    0.047015
 Thermal correction to Enthalpy=                  0.047959
 Thermal correction to Gibbs Free Energy=         0.014847
 Sum of electronic and zero-point Energies=           -152.995019
 Sum of electronic and thermal Energies=              -152.990351
 Sum of electronic and thermal Enthalpies=            -152.989406
 Sum of electronic and thermal Free Energies=         -153.022519

                     E (Thermal)             CV                S
                      KCal/Mol        Cal/Mol-Kelvin    Cal/Mol-Kelvin
 Total                   29.503             15.588             69.691
 Electronic               0.000              0.000              2.755
 Translational            0.889              2.981             37.712
 Rotational               0.889              2.981             23.349
 Vibrational             27.725              9.626              5.874
 Vibration     1          0.645              1.817              1.992
 Vibration     2          0.691              1.677              1.426
 Vibration     3          0.817              1.340              0.768
 Vibration     4          0.894              1.164              0.567

 Optimization completed.
    -- Stationary point found.
 Normal termination of Gaussian 09 at Tue Jul 19 10:36:55 2016.
