 Gaussian 09, Revision E.01,
 Gaussian 09:  EM64L-G09RevE.01 30-Nov-2015

 ---------------------------------------------
 #p b3lyp/6-311++G(3df,2p) freq symmetry=Loose
 ---------------------------------------------

 ---------
 b3lyp opt
 ---------
 Symbolic Z-matrix:
 Charge =  1 Multiplicity = 3

                         Standard orientation:
 ---------------------------------------------------------------------
 Center     Atomic      Atomic             Coordinates (Angstroms)
 Number     Number       Type             X           Y           Z
 ---------------------------------------------------------------------
      1          6           0        1.229478    1.215172    0.000000
      2          1           0        1.640334    2.217011    0.000000
      3          6           0        0.000000    0.625166    0.000000
      4          1           0       -0.896395    1.246792    0.000000
      5          6           0       -0.137424   -0.777780   -0.000000
      6          1           0        0.729531   -1.450509   -0.000000
      7          6           0       -1.337632   -1.398107   -0.000000
 ---------------------------------------------------------------------

 SCF Done:  E(UB3LYP) =  -153.680278140     A.U. after   18 cycles

 The electronic state is 3-A".
 Alpha  occ. eigenvalues --  -10.53912 -10.50396 -10.49213 -10.46698  -1.11398
 Alpha  occ. eigenvalues --   -1.02637  -0.86637  -0.80578  -0.73345  -0.70271
 Alpha  occ. eigenvalues --   -0.63090  -0.56050  -0.53713  -0.52098
 Alpha virt. eigenvalues --   -0.36743  -0.32547  -0.21257  -0.15496  -0.14807
 Alpha virt. eigenvalues --   -0.12400  -0.10455  -0.09891  -0.08942  -0.06680
 Alpha virt. eigenvalues --   -0.06283  -0.05400  -0.04284  -0.04103  -0.02807

  Beta  occ. eigenvalues --  -10.53330 -10.49129 -10.48110 -10.46477  -1.09770
  Beta  occ. eigenvalues --   -0.99115  -0.83654  -0.79576  -0.71667  -0.68873
  Beta  occ. eigenvalues --   -0.59542  -0.54950
  Beta virt. eigenvalues --   -0.43043  -0.36026  -0.34007  -0.27101  -0.18835
  Beta virt. eigenvalues --   -0.15172  -0.14527  -0.11922  -0.10014  -0.09471
  Beta virt. eigenvalues --   -0.08643  -0.05874  -0.05712  -0.05106  -0.03679

 Mulliken charges and spin densities:
               1          2
     1  C   -0.098183   1.389755
     2  H    0.289983   0.007083
     3  C    0.282729   0.051073
     4  H    0.223899   0.050852
     5  C    0.249858   0.159798
     6  H    0.218987  -0.007778
     7  C   -0.167272   0.349216
 Sum of Mulliken charges =   1.00000   2.00000

 Dipole moment (field-independent basis, Debye):
    X=              1.5697    Y=              1.5058    Z=              0.0000  Tot=              2.1752
 Quadrupole moment (field-independent basis, Debye-Ang):
   XX=            -17.5933   YY=            -10.4877   ZZ=            -22.3231
   XY=              2.4858   XZ=              0.0000   YZ=              0.0000

  Exact polarizability:  50.061  19.730  58.368  -0.000  -0.000  26.767
 Approx polarizability:  82.635  35.379  91.547   0.000   0.000  37.649

                      1                      2                      3
                     A"                     A'                     A'
 Frequencies --    185.8290               187.6633               420.6406
 Red. masses --      4.6620                 5.6705                 3.1002
 Frc consts  --      0.0949                 0.1177                 0.3232
 IR Inten    --      2.7551                10.8811                 5.0975

                      4                      5                      6
                     A"                     A"                     A'
 Frequencies --    667.0835               780.1174               805.7723
 Red. masses --      1.2836                 1.3746                 1.3154
 Frc consts  --      0.3365                 0.4929                 0.5032
 IR Inten    --     40.5255                20.4145                23.7751

                      7                      8                      9
                     A"                     A'                     A'
 Frequencies --    962.6772               995.4688              1176.0035
 Red. masses --      1.3410                 1.5064                 2.8688
 Frc consts  --      0.7322                 0.8795                 2.3376
 IR Inten    --     13.5681                 0.8822                 1.4383

                     10                     11                     12
                     A'                     A'                     A'
 Frequencies --   1270.0879              1394.0014              1592.1126
 Red. masses --      1.3607                 4.4781                 5.9515
 Frc consts  --      1.2932                 5.1271                 8.8884
 IR Inten    --      2.1309               250.5524                75.8630

                     13                     14                     15
                     A'                     A'                     A'
 Frequencies --   3042.1413              3088.1117              3215.2779
 Red. masses --      1.0835                 1.0867                 1.0990
 Frc consts  --      5.9080                 6.1056                 6.6942
 IR Inten    --     71.4730                28.7650                66.5927

 - Thermochemistry -
 -------------------
 Temperature   298.150 Kelvin.  Pressure   1.00000 Atm.
 Atom     1 has atomic number  6 and mass  12.00000

 Molecular mass:    51.02348 amu.
 Principal axes and moments of inertia in atomic units:
                           1         2         3
     Eigenvalues --    31.38696 345.50722 376.89419
           X            0.63137   0.77548   0.00000
           Y            0.77548  -0.63137   0.00000
           Z            0.00000   0.00000   1.00000
 This molecule is an asymmetric top.
 Rotational symmetry number  1.
 Rotational temperatures (Kelvin)      2.75955     0.25069     0.22981
 Rotational constants (GHZ):          57.49970     5.22345     4.78846
 Zero-point vibrational energy     118328.5 (Joules/Mol)
                                   28.28120 (Kcal/Mol)
 Warning -- explicit consideration of   3 degrees of freedom as
           vibrations may cause significant error
 Vibrational temperatures:    267.37   270.01   605.21   959.78  1122.41
          (Kelvin)           1159.33  1385.08  1432.26  1692.00  1827.37
                             2005.65  2290.69  4376.96  4443.10  4626.06

 Zero-point correction=                           0.045069 (Hartree/Particle)
 Thermal correction to Energy=                    0.049765
 Thermal correction to Enthalpy=                  0.050709
 Thermal correction to Gibbs Free Energy=         0.017775
 Sum of electronic and zero-point Energies=           -153.635209
 Sum of electronic and thermal Energies=              -153.630513
 Sum of electronic and thermal Enthalpies=            -153.629569
 Sum of electronic and thermal Free Energies=         -153.662503

                     E (Thermal)             CV                S
                      KCal/Mol        Cal/Mol-Kelvin    Cal/Mol-Kelvin
 Total                   31.228             14.671             69.315
 Electronic               0.000              0.000              2.183
 Translational            0.889              2.981             37.712
 Rotational               0.889              2.981             22.929
 Vibrational             29.450              8.709              6.491
 Vibration     1          0.632              1.859              2.269
 Vibration     2          0.632              1.857              2.251
 Vibration     3          0.783              1.425              0.890

 Optimization completed.
    -- Stationary point found.
 Normal termination of Gaussian 09 at Sun Jun 19 06:17:04 2016.
