 Gaussian 09, Revision E.01,
 Gaussian 09:  EM64L-G09RevE.01 30-Nov-2015

 ---------------------------------------------
 #p b3lyp/6-311++G(3df,2p) freq symmetry=Loose
 ---------------------------------------------

 ---------
 b3lyp opt
 ---------
 Symbolic Z-matrix:
 Charge =  0 Multiplicity = 4

                         Standard orientation:
 ---------------------------------------------------------------------
 Center     Atomic      Atomic             Coordinates (Angstroms)
 Number     Number       Type             X           Y           Z
 ---------------------------------------------------------------------
      1          6           0        1.443182    0.890307    0.000000
      2          1           0        1.979755    1.031934    0.929600
      3          1           0        1.979755    1.031934   -0.929600
      4          6           0        0.000000    0.643263    0.000000
      5          1           0       -0.677131    1.500006    0.000000
      6          6           0       -0.571097   -0.582196   -0.000000
      7          6           0       -1.419148   -1.545353   -0.000000
 ---------------------------------------------------------------------

 SCF Done:  E(UB3LYP) =  -153.985665117     A.U. after   19 cycles

 The electronic state is 4-A".
 Alpha  occ. eigenvalues --  -10.23522 -10.23158 -10.22662 -10.21740  -0.84744
 Alpha  occ. eigenvalues --   -0.76967  -0.66835  -0.52754  -0.47348  -0.47158
 Alpha  occ. eigenvalues --   -0.36081  -0.35860  -0.31372  -0.25215  -0.22469
 Alpha virt. eigenvalues --   -0.03184   0.00136   0.01602   0.02295   0.03483
 Alpha virt. eigenvalues --    0.03629   0.06655   0.07033   0.07577   0.08538
 Alpha virt. eigenvalues --    0.09622   0.09755   0.11734   0.12428   0.12557

  Beta  occ. eigenvalues --  -10.22784 -10.21786 -10.21650 -10.20288  -0.81436
  Beta  occ. eigenvalues --   -0.72324  -0.63083  -0.50290  -0.45135  -0.45076
  Beta  occ. eigenvalues --   -0.32492  -0.29350
  Beta virt. eigenvalues --   -0.19606  -0.10465  -0.09575  -0.01255   0.00952
  Beta virt. eigenvalues --    0.02384   0.03180   0.04443   0.05112   0.06776
  Beta virt. eigenvalues --    0.07702   0.08405   0.09701   0.10062   0.11331

 Mulliken charges and spin densities:
               1          2
     1  C   -0.428491   1.041757
     2  H    0.172684   0.003460
     3  H    0.172684   0.003460
     4  C   -0.282310   0.514168
     5  H    0.161486   0.046571
     6  C    0.698350   0.171260
     7  C   -0.494404   1.219324
 Sum of Mulliken charges =  -0.00000   3.00000

 Dipole moment (field-independent basis, Debye):
    X=              1.9610    Y=              1.9818    Z=             -0.0000  Tot=              2.7880
 Quadrupole moment (field-independent basis, Debye-Ang):
   XX=            -26.4671   YY=            -25.0496   ZZ=            -24.7907
   XY=             -2.6259   XZ=             -0.0000   YZ=             -0.0000

  Exact polarizability:  66.513  32.658  76.492  -0.000  -0.000  35.944
 Approx polarizability:  90.560  42.654 101.151  -0.000  -0.000  48.286

                      1                      2                      3
                     A'                     A"                     A"
 Frequencies --    221.9629               267.3593               437.2816
 Red. masses --      4.1519                 1.7759                 2.0772
 Frc consts  --      0.1205                 0.0748                 0.2340
 IR Inten    --      0.1098                 0.7038                 0.0271

                      4                      5                      6
                     A'                     A'                     A"
 Frequencies --    453.6946               542.5171               589.7444
 Red. masses --      1.4459                 5.2770                 1.3651
 Frc consts  --      0.1754                 0.9151                 0.2797
 IR Inten    --     78.4567                59.8542                11.5680

                      7                      8                      9
                     A'                     A"                     A'
 Frequencies --    939.1514               970.0599              1123.2752
 Red. masses --      6.9491                 1.3476                 2.1945
 Frc consts  --      3.6112                 0.7472                 1.6314
 IR Inten    --    118.5141                 3.3946               228.0196

                     10                     11                     12
                     A'                     A'                     A'
 Frequencies --   1175.6429              1409.5022              1458.4890
 Red. masses --      1.8033                 1.9291                 2.0668
 Frc consts  --      1.4685                 2.2581                 2.5904
 IR Inten    --    604.3925               227.5166               247.6200

                     13                     14                     15
                     A'                     A'                     A"
 Frequencies --   3045.5129              3112.3130              3210.1402
 Red. masses --      1.0796                 1.0473                 1.1184
 Frc consts  --      5.8999                 5.9771                 6.7907
 IR Inten    --     18.4425                 9.3725                 1.8614

 - Thermochemistry -
 -------------------
 Temperature   298.150 Kelvin.  Pressure   1.00000 Atm.
 Atom     1 has atomic number  6 and mass  12.00000

 Molecular mass:    51.02348 amu.
 Principal axes and moments of inertia in atomic units:
                           1         2         3
     Eigenvalues --    32.84905 381.69458 402.10321
           X            0.74193  -0.67048   0.00000
           Y            0.67048   0.74193   0.00000
           Z            0.00000  -0.00000   1.00000
 This molecule is an asymmetric top.
 Rotational symmetry number  1.
 Rotational temperatures (Kelvin)      2.63672     0.22692     0.21540
 Rotational constants (GHZ):          54.94044     4.72823     4.48825
 Zero-point vibrational energy     113385.9 (Joules/Mol)
                                   27.09989 (Kcal/Mol)
 Warning -- explicit consideration of   6 degrees of freedom as
           vibrations may cause significant error
 Vibrational temperatures:    319.35   384.67   629.15   652.76   780.56
          (Kelvin)            848.51  1351.23  1395.70  1616.14  1691.49
                             2027.96  2098.44  4381.81  4477.92  4618.67

 Zero-point correction=                           0.043186 (Hartree/Particle)
 Thermal correction to Energy=                    0.048046
 Thermal correction to Enthalpy=                  0.048991
 Thermal correction to Gibbs Free Energy=         0.015652
 Sum of electronic and zero-point Energies=           -153.942479
 Sum of electronic and thermal Energies=              -153.937619
 Sum of electronic and thermal Enthalpies=            -153.936674
 Sum of electronic and thermal Free Energies=         -153.970013

                     E (Thermal)             CV                S
                      KCal/Mol        Cal/Mol-Kelvin    Cal/Mol-Kelvin
 Total                   30.150             15.985             70.167
 Electronic               0.000              0.000              2.755
 Translational            0.889              2.981             37.712
 Rotational               0.889              2.981             23.137
 Vibrational             28.372             10.023              6.562
 Vibration     1          0.648              1.808              1.943
 Vibration     2          0.672              1.733              1.613
 Vibration     3          0.798              1.389              0.835
 Vibration     4          0.812              1.353              0.785
 Vibration     5          0.898              1.156              0.560
 Vibration     6          0.947              1.054              0.468

 Normal termination of Gaussian 09 at Tue Jul 19 10:20:40 2016.
