 Gaussian 09, Revision E.01,
 Gaussian 09:  EM64L-G09RevE.01 30-Nov-2015

 ---------------------------------------------
 #p b3lyp/6-311++G(3df,2p) freq symmetry=Loose
 ---------------------------------------------

 ---------
 b3lyp opt
 ---------
 Symbolic Z-matrix:
 Charge =  1 Multiplicity = 3

                         Standard orientation:
 ---------------------------------------------------------------------
 Center     Atomic      Atomic             Coordinates (Angstroms)
 Number     Number       Type             X           Y           Z
 ---------------------------------------------------------------------
      1          6           0        0.755865    0.463113   -0.006622
      2          1           0        1.064070    1.172372   -0.790303
      3          1           0        1.127126    0.858565    0.971723
      4          6           0        1.760295   -0.670616   -0.024678
      5          6           0       -0.615538    0.127293    0.005718
      6          6           0       -1.793579   -0.184866   -0.003472
      7          1           0       -2.833456   -0.440479   -0.007098
 ---------------------------------------------------------------------

 SCF Done:  E(UB3LYP) =  -153.651880077     A.U. after   24 cycles

 The electronic state is 3-A.
 Alpha  occ. eigenvalues --  -10.55589 -10.48854 -10.46281 -10.45935  -1.09467
 Alpha  occ. eigenvalues --   -1.01341  -0.86089  -0.78065  -0.74516  -0.72102
 Alpha  occ. eigenvalues --   -0.61804  -0.55244  -0.54334  -0.49601
 Alpha virt. eigenvalues --   -0.37140  -0.23591  -0.22105  -0.16741  -0.12584
 Alpha virt. eigenvalues --   -0.12100  -0.11021  -0.10520  -0.08476  -0.07289
 Alpha virt. eigenvalues --   -0.06829  -0.05075  -0.04432  -0.04065  -0.01939

  Beta  occ. eigenvalues --  -10.53243 -10.48691 -10.45788 -10.45583  -1.07658
  Beta  occ. eigenvalues --   -0.98810  -0.82674  -0.76380  -0.72939  -0.71590
  Beta  occ. eigenvalues --   -0.54196  -0.53675
  Beta virt. eigenvalues --   -0.44895  -0.34368  -0.31130  -0.21747  -0.20689
  Beta virt. eigenvalues --   -0.16242  -0.12336  -0.11978  -0.10570  -0.09927
  Beta virt. eigenvalues --   -0.08023  -0.07157  -0.06235  -0.04476  -0.03997

 Mulliken charges and spin densities:
               1          2
     1  C   -0.511817   0.120864
     2  H    0.252300   0.036083
     3  H    0.267892   0.014215
     4  C   -0.019385   1.421802
     5  C    0.095389   0.144171
     6  C    0.533571   0.272581
     7  H    0.382051  -0.009716
 Sum of Mulliken charges =   1.00000   2.00000

 Dipole moment (field-independent basis, Debye):
    X=             -0.2507    Y=              0.6983    Z=              0.1479  Tot=              0.7565
 Quadrupole moment (field-independent basis, Debye-Ang):
   XX=             -5.8576   YY=            -19.5803   ZZ=            -20.1713
   XY=              2.8533   XZ=              0.4120   YZ=              0.3502

  Exact polarizability: 109.265 -10.594  35.076   0.231   0.002  28.450
 Approx polarizability: 226.006 -31.699  57.419  -0.903   1.771  41.979

                      1                      2                      3
                      A                      A                      A
 Frequencies --    210.3435               288.3727               384.6979
 Red. masses --      4.7058                 1.9754                 1.9899
 Frc consts  --      0.1227                 0.0968                 0.1735
 IR Inten    --      4.4057                22.4729                 1.1563

                      4                      5                      6
                      A                      A                      A
 Frequencies --    536.4720               703.7681               766.3064
 Red. masses --      5.5949                 1.2486                 1.3708
 Frc consts  --      0.9487                 0.3643                 0.4743
 IR Inten    --      9.6824                43.3609                15.3276

                      7                      8                      9
                      A                      A                      A
 Frequencies --    808.4510               997.2410              1064.2586
 Red. masses --      6.3924                 2.9516                 1.3177
 Frc consts  --      2.4616                 1.7295                 0.8793
 IR Inten    --     11.4627                 2.1638                 9.4507

                     10                     11                     12
                      A                      A                      A
 Frequencies --   1139.4401              1311.6944              2107.4132
 Red. masses --      1.1862                 1.2166                 6.1681
 Frc consts  --      0.9074                 1.2333                16.1399
 IR Inten    --     43.2914                52.9960               599.4463

                     13                     14                     15
                      A                      A                      A
 Frequencies --   2833.5784              2979.5299              3380.1100
 Red. masses --      1.0703                 1.0814                 1.1572
 Frc consts  --      5.0632                 5.6564                 7.7897
 IR Inten    --     96.0974                66.7987                94.8159

 - Thermochemistry -
 -------------------
 Temperature   298.150 Kelvin.  Pressure   1.00000 Atm.
 Atom     1 has atomic number  6 and mass  12.00000

 Molecular mass:    51.02348 amu.
 Principal axes and moments of inertia in atomic units:
                           1         2         3
     Eigenvalues --    43.93751 355.02367 387.62243
           X            0.99923   0.03927   0.00252
           Y           -0.03925   0.99920  -0.00804
           Z           -0.00284   0.00793   0.99996
 This molecule is an asymmetric top.
 Rotational symmetry number  1.
 Rotational temperatures (Kelvin)      1.97130     0.24397     0.22345
 Rotational constants (GHZ):          41.07519     5.08344     4.65593
 Zero-point vibrational energy     116705.7 (Joules/Mol)
                                   27.89334 (Kcal/Mol)
 Warning -- explicit consideration of   4 degrees of freedom as
           vibrations may cause significant error
 Vibrational temperatures:    302.64   414.90   553.49   771.86  1012.56
          (Kelvin)           1102.54  1163.18  1434.81  1531.23  1639.40
                             1887.23  3032.09  4076.88  4286.87  4863.22

 Zero-point correction=                           0.044451 (Hartree/Particle)
 Thermal correction to Energy=                    0.049160
 Thermal correction to Enthalpy=                  0.050104
 Thermal correction to Gibbs Free Energy=         0.017170
 Sum of electronic and zero-point Energies=           -153.607429
 Sum of electronic and thermal Energies=              -153.602720
 Sum of electronic and thermal Enthalpies=            -153.601776
 Sum of electronic and thermal Free Energies=         -153.634710

                     E (Thermal)             CV                S
                      KCal/Mol        Cal/Mol-Kelvin    Cal/Mol-Kelvin
 Total                   30.849             15.412             69.317
 Electronic               0.000              0.000              2.183
 Translational            0.889              2.981             37.712
 Rotational               0.889              2.981             23.318
 Vibrational             29.071              9.451              6.103
 Vibration     1          0.643              1.825              2.041
 Vibration     2          0.685              1.695              1.483
 Vibration     3          0.754              1.503              1.021
 Vibration     4          0.891              1.169              0.573

 Optimization completed.
    -- Stationary point found.
 Normal termination of Gaussian 09 at Sun Jun 19 06:25:00 2016.
