 Gaussian 09, Revision E.01,
 Gaussian 09:  EM64L-G09RevE.01 30-Nov-2015

 ------------------------------------------------------
 #p b3lyp/6-311++G(3df,2p) freq IOp(2/17=3) IOp(2/18=3)
 ------------------------------------------------------

 ---------
 b3lyp opt
 ---------
 Symbolic Z-matrix:
 Charge =  1 Multiplicity = 1

                         Standard orientation:
 ---------------------------------------------------------------------
 Center     Atomic      Atomic             Coordinates (Angstroms)
 Number     Number       Type             X           Y           Z
 ---------------------------------------------------------------------
      1          6           0        0.000000   -0.000000   -1.166319
      2          1           0       -0.917856    0.000000   -1.747800
      3          1           0        0.917856   -0.000000   -1.747800
      4          6           0       -0.000000    0.779791    0.089624
      5          6           0        0.000000    0.000000    1.191441
      6          1           0        0.000000    0.000000    2.269165
      7          6           0       -0.000000   -0.779791    0.089624
 ---------------------------------------------------------------------

 SCF Done:  E(RB3LYP) =  -153.801229961     A.U. after   10 cycles

 The electronic state is 1-A1.
 Alpha  occ. eigenvalues --  -10.53761 -10.53742 -10.51434 -10.49844  -1.27060
 Alpha  occ. eigenvalues --   -1.01191  -0.83040  -0.81882  -0.75193  -0.73112
 Alpha  occ. eigenvalues --   -0.68065  -0.61408  -0.55948
 Alpha virt. eigenvalues --   -0.33536  -0.28993  -0.27330  -0.16585  -0.13723
 Alpha virt. eigenvalues --   -0.13395  -0.12485  -0.11953  -0.08756  -0.07893
 Alpha virt. eigenvalues --   -0.07342  -0.04967  -0.04455  -0.03295  -0.02412

 Mulliken charges:
               1
     1  C   -0.392892
     2  H    0.245453
     3  H    0.245453
     4  C    0.215983
     5  C    0.143202
     6  H    0.326817
     7  C    0.215983
 Sum of Mulliken charges =   1.00000

 Dipole moment (field-independent basis, Debye):
    X=              0.0000    Y=              0.0000    Z=              0.0842  Tot=              0.0842
 Quadrupole moment (field-independent basis, Debye-Ang):
   XX=            -19.3441   YY=            -22.1852   ZZ=             -8.6343
   XY=             -0.0000   XZ=             -0.0000   YZ=             -0.0000

  Exact polarizability:  23.933  -0.000  34.111  -0.000   0.000  41.329
 Approx polarizability:  36.021   0.000  78.858   0.000   0.000  63.874

                      1                      2                      3
                     B1                     B2                     B1
 Frequencies --    454.4071               585.6031               823.0843
 Red. masses --      2.6368                 5.3486                 1.2757
 Frc consts  --      0.3208                 1.0807                 0.5092
 IR Inten    --      5.9006                77.9675                20.3882

                      4                      5                      6
                     A1                     A2                     B2
 Frequencies --    865.5680              1022.6396              1047.1901
 Red. masses --      9.1244                 1.1142                 1.3719
 Frc consts  --      4.0277                 0.6865                 0.8864
 IR Inten    --      2.6760                 0.0000                 1.9307

                      7                      8                      9
                     B1                     B2                     B2
 Frequencies --   1051.6985              1125.5995              1173.9459
 Red. masses --      1.4424                 1.6756                 2.4377
 Frc consts  --      0.9400                 1.2508                 1.9793
 IR Inten    --      0.9818                17.5714                 1.5771

                     10                     11                     12
                     A1                     A1                     A1
 Frequencies --   1187.3064              1462.8588              1654.5613
 Red. masses --      5.1898                 1.1405                 6.3550
 Frc consts  --      4.3105                 1.4380                10.2501
 IR Inten    --      9.3215                10.0954                35.3574

                     13                     14                     15
                     A1                     B1                     A1
 Frequencies --   3102.8832              3185.1101              3283.5118
 Red. masses --      1.0556                 1.1186                 1.1247
 Frc consts  --      5.9881                 6.6862                 7.1445
 IR Inten    --     42.7802                45.1200                92.7241

 - Thermochemistry -
 -------------------
 Temperature   298.150 Kelvin.  Pressure   1.00000 Atm.
 Atom     1 has atomic number  6 and mass  12.00000

 Molecular mass:    51.02348 amu.
 Principal axes and moments of inertia in atomic units:
                           1         2         3
     Eigenvalues --    58.17942 166.29265 212.34398
           X            0.00000  -0.00000   1.00000
           Y            0.00000   1.00000   0.00000
           Z            1.00000  -0.00000  -0.00000
 This molecule is an asymmetric top.
 Rotational symmetry number  2.
 Rotational temperatures (Kelvin)      1.48874     0.52085     0.40789
 Rotational constants (GHZ):          31.02027    10.85280     8.49914
 Zero-point vibrational energy     131744.5 (Joules/Mol)
                                   31.48770 (Kcal/Mol)
 Warning -- explicit consideration of   2 degrees of freedom as
           vibrations may cause significant error
 Vibrational temperatures:    653.79   842.55  1184.23  1245.36  1471.35
          (Kelvin)           1506.67  1513.16  1619.48  1689.04  1708.27
                             2104.72  2380.54  4464.35  4582.66  4724.24

 Zero-point correction=                           0.050179 (Hartree/Particle)
 Thermal correction to Energy=                    0.053735
 Thermal correction to Enthalpy=                  0.054679
 Thermal correction to Gibbs Free Energy=         0.025890
 Sum of electronic and zero-point Energies=           -153.751051
 Sum of electronic and thermal Energies=              -153.747495
 Sum of electronic and thermal Enthalpies=            -153.746551
 Sum of electronic and thermal Free Energies=         -153.775340

                     E (Thermal)             CV                S
                      KCal/Mol        Cal/Mol-Kelvin    Cal/Mol-Kelvin
 Total                   33.719             11.366             60.592
 Electronic               0.000              0.000              0.000
 Translational            0.889              2.981             37.712
 Rotational               0.889              2.981             20.868
 Vibrational             31.942              5.405              2.011
 Vibration     1          0.813              1.351              0.783
 Vibration     2          0.943              1.063              0.475

 Optimization completed.
    -- Stationary point found.
 Normal termination of Gaussian 09 at Thu Jan 31 05:18:51 2019.
