 Gaussian 09, Revision E.01,
 Gaussian 09:  EM64L-G09RevE.01 30-Nov-2015

 ---------------------------------------------
 #p b3lyp/6-311++G(3df,2p) freq symmetry=Loose
 ---------------------------------------------

 ---------
 b3lyp opt
 ---------
 Symbolic Z-matrix:
 Charge =  0 Multiplicity = 2

                         Standard orientation:
 ---------------------------------------------------------------------
 Center     Atomic      Atomic             Coordinates (Angstroms)
 Number     Number       Type             X           Y           Z
 ---------------------------------------------------------------------
      1          6           0       -0.369172    1.826533   -0.000000
      2          1           0       -0.707595    2.832781   -0.000000
      3          6           0       -0.000000    0.683318   -0.000000
      4          6           0        0.489213   -0.651411    0.000000
      5          1           0        1.577824   -0.759840    0.000000
      6          6           0       -0.251120   -1.737028    0.000000
      7          1           0       -0.083756   -2.801413    0.000000
 ---------------------------------------------------------------------

 SCF Done:  E(UB3LYP) =  -154.104003975     A.U. after   17 cycles

 The electronic state is 2-A'.
 Alpha  occ. eigenvalues --  -10.21838 -10.21377 -10.18849 -10.17689  -0.82313
 Alpha  occ. eigenvalues --   -0.74785  -0.62879  -0.53694  -0.49874  -0.48169
 Alpha  occ. eigenvalues --   -0.35555  -0.29372  -0.26653  -0.26347
 Alpha virt. eigenvalues --   -0.05040  -0.00745   0.00794   0.01885   0.02859
 Alpha virt. eigenvalues --    0.05360   0.05424   0.06826   0.07341   0.08718
 Alpha virt. eigenvalues --    0.09743   0.10522   0.11080   0.12108   0.12291

  Beta  occ. eigenvalues --  -10.21529 -10.20227 -10.18718 -10.17758  -0.81368
  Beta  occ. eigenvalues --   -0.74097  -0.61091  -0.53286  -0.48475  -0.47001
  Beta  occ. eigenvalues --   -0.35418  -0.29213  -0.26001
  Beta virt. eigenvalues --   -0.10090  -0.04051  -0.00543   0.00822   0.02006
  Beta virt. eigenvalues --    0.02957   0.05522   0.05913   0.06807   0.07356
  Beta virt. eigenvalues --    0.09476   0.09809   0.10480   0.11118   0.12375

 Mulliken charges and spin densities:
               1          2
     1  C    0.436031  -0.209463
     2  H    0.312364   0.000920
     3  C   -0.421795  -0.023821
     4  C   -0.278681   0.031209
     5  H    0.138593   0.077730
     6  C   -0.392839   1.101823
     7  H    0.206326   0.021601
 Sum of Mulliken charges =  -0.00000   1.00000

 Dipole moment (field-independent basis, Debye):
    X=              0.6991    Y=             -0.4493    Z=              0.0000  Tot=              0.8310
 Quadrupole moment (field-independent basis, Debye-Ang):
   XX=            -23.6825   YY=            -16.8235   ZZ=            -26.1928
   XY=             -2.4188   XZ=             -0.0000   YZ=              0.0000

  Exact polarizability:  39.185  -2.186  78.044  -0.001  -0.000  32.541
 Approx polarizability:  56.880  -2.645 127.620   0.000  -0.000  44.364

                      1                      2                      3
                     A'                     A"                     A'
 Frequencies --    223.7128               331.9281               532.8216
 Red. masses --      3.5229                 2.4952                 3.4523
 Frc consts  --      0.1039                 0.1620                 0.5775
 IR Inten    --      7.4774                27.7847                 3.1406

                      4                      5                      6
                     A"                     A"                     A'
 Frequencies --    658.1919               673.6093               683.2016
 Red. masses --      1.2804                 1.3959                 1.2602
 Frc consts  --      0.3268                 0.3732                 0.3466
 IR Inten    --     46.0413                32.7230                44.5826

                      7                      8                      9
                     A'                     A"                     A'
 Frequencies --    799.1611               839.7815              1009.4601
 Red. masses --      1.6736                 1.5668                 2.9823
 Frc consts  --      0.6297                 0.6510                 1.7905
 IR Inten    --     21.0768                 0.0558                 7.6190

                     10                     11                     12
                     A'                     A'                     A'
 Frequencies --   1262.1851              1638.2259              2203.5815
 Red. masses --      1.2475                 7.0881                 6.0818
 Frc consts  --      1.1709                11.2080                17.3997
 IR Inten    --      1.9275                 3.7839                 1.0035

                     13                     14                     15
                     A'                     A'                     A'
 Frequencies --   3022.0596              3246.1366              3463.0311
 Red. masses --      1.0805                 1.1024                 1.1587
 Frc consts  --      5.8139                 6.8445                 8.1873
 IR Inten    --      3.5995                 2.7672                73.3834

 - Thermochemistry -
 -------------------
 Temperature   298.150 Kelvin.  Pressure   1.00000 Atm.
 Atom     1 has atomic number  6 and mass  12.00000

 Molecular mass:    51.02348 amu.
 Principal axes and moments of inertia in atomic units:
                           1         2         3
     Eigenvalues --    26.07754 373.08990 399.16744
           X           -0.09993   0.99499   0.00000
           Y            0.99499   0.09993   0.00000
           Z            0.00000   0.00000   1.00000
 This molecule is an asymmetric top.
 Rotational symmetry number  1.
 Rotational temperatures (Kelvin)      3.32139     0.23215     0.21699
 Rotational constants (GHZ):          69.20672     4.83728     4.52126
 Zero-point vibrational energy     123138.1 (Joules/Mol)
                                   29.43072 (Kcal/Mol)
 Warning -- explicit consideration of   3 degrees of freedom as
           vibrations may cause significant error
 Vibrational temperatures:    321.87   477.57   766.61   946.99   969.17
          (Kelvin)            982.97  1149.81  1208.26  1452.39  1816.00
                             2357.04  3170.46  4348.06  4670.46  4982.52

 Zero-point correction=                           0.046901 (Hartree/Particle)
 Thermal correction to Energy=                    0.051412
 Thermal correction to Enthalpy=                  0.052357
 Thermal correction to Gibbs Free Energy=         0.020395
 Sum of electronic and zero-point Energies=           -154.057103
 Sum of electronic and thermal Energies=              -154.052592
 Sum of electronic and thermal Enthalpies=            -154.051647
 Sum of electronic and thermal Free Energies=         -154.083609

                     E (Thermal)             CV                S
                      KCal/Mol        Cal/Mol-Kelvin    Cal/Mol-Kelvin
 Total                   32.262             15.035             67.268
 Electronic               0.000              0.000              1.377
 Translational            0.889              2.981             37.712
 Rotational               0.889              2.981             22.878
 Vibrational             30.484              9.073              5.300
 Vibration     1          0.649              1.805              1.929
 Vibration     2          0.714              1.612              1.251
 Vibration     3          0.888              1.177              0.581

 Optimization completed.
    -- Stationary point found.
 Normal termination of Gaussian 09 at Sun Jun 19 05:50:27 2016.
