 Gaussian 09, Revision E.01,
 Gaussian 09:  EM64L-G09RevE.01 30-Nov-2015

 ---------------------------------------------
 #p b3lyp/6-311++G(3df,2p) freq symmetry=Loose
 ---------------------------------------------

 ---------
 b3lyp opt
 ---------
 Symbolic Z-matrix:
 Charge =  0 Multiplicity = 2

                         Standard orientation:
 ---------------------------------------------------------------------
 Center     Atomic      Atomic             Coordinates (Angstroms)
 Number     Number       Type             X           Y           Z
 ---------------------------------------------------------------------
      1          6           0       -0.164704   -0.036987   -0.004711
      2          6           0        1.053324   -0.822217   -0.066611
      3          6           0        1.069440    0.543079    0.036331
      4          1           0        1.623260    1.457644    0.175142
      5          6           0       -1.533359    0.046714    0.002393
      6          1           0       -2.128242   -0.743611    0.438903
      7          1           0       -2.043217    0.902434   -0.418461
 ---------------------------------------------------------------------

 SCF Done:  E(UB3LYP) =  -154.079093941     A.U. after   16 cycles

 The electronic state is 2-A.
 Alpha  occ. eigenvalues --  -10.23700 -10.22771 -10.21206 -10.20422  -0.93277
 Alpha  occ. eigenvalues --   -0.76381  -0.59568  -0.53957  -0.48503  -0.44037
 Alpha  occ. eigenvalues --   -0.39900  -0.34975  -0.26742  -0.23652
 Alpha virt. eigenvalues --   -0.03032  -0.00798  -0.00618   0.00805   0.02634
 Alpha virt. eigenvalues --    0.05126   0.05531   0.05910   0.08056   0.08605
 Alpha virt. eigenvalues --    0.09881   0.10516   0.11583   0.12802   0.13073

  Beta  occ. eigenvalues --  -10.23670 -10.22513 -10.20317 -10.20084  -0.92484
  Beta  occ. eigenvalues --   -0.74176  -0.58915  -0.52918  -0.47585  -0.43092
  Beta  occ. eigenvalues --   -0.38217  -0.34300  -0.24073
  Beta virt. eigenvalues --   -0.14045  -0.02021  -0.00598   0.00331   0.00945
  Beta virt. eigenvalues --    0.02776   0.05282   0.05671   0.06603   0.08389
  Beta virt. eigenvalues --    0.08714   0.09986   0.10671   0.11893   0.13007

 Mulliken charges and spin densities:
               1          2
     1  C    0.247450  -0.021619
     2  C   -0.468178   0.218673
     3  C    0.211836   0.179388
     4  H    0.245222   0.006257
     5  C   -0.591612   0.638290
     6  H    0.177468  -0.008906
     7  H    0.177813  -0.012082
 Sum of Mulliken charges =  -0.00000   1.00000

 Dipole moment (field-independent basis, Debye):
    X=             -1.4988    Y=              2.7426    Z=              0.3623  Tot=              3.1464
 Quadrupole moment (field-independent basis, Debye-Ang):
   XX=            -22.6386   YY=            -25.3791   ZZ=            -24.6272
   XY=              4.4877   XZ=              0.5677   YZ=             -1.0088

  Exact polarizability:  81.879  -9.194  46.989   0.152   0.306  32.066
 Approx polarizability: 125.789 -13.498  70.074   0.125   0.649  46.443

                      1                      2                      3
                      A                      A                      A
 Frequencies --    331.1381               420.2473               487.6670
 Red. masses --      2.7736                 3.2745                 1.1323
 Frc consts  --      0.1792                 0.3407                 0.1587
 IR Inten    --      0.4885                 2.0136                 0.7547

                      4                      5                      6
                      A                      A                      A
 Frequencies --    726.5720               801.5240               834.7796
 Red. masses --      1.3965                 2.5790                 1.8345
 Frc consts  --      0.4343                 0.9762                 0.7532
 IR Inten    --     36.3855                56.3712                19.0912

                      7                      8                      9
                      A                      A                      A
 Frequencies --    913.3927               990.3596              1042.3645
 Red. masses --      1.6975                 2.7183                 1.9106
 Frc consts  --      0.8344                 1.5708                 1.2231
 IR Inten    --     33.3049               189.0254                75.7059

                     10                     11                     12
                      A                      A                      A
 Frequencies --   1149.7431              1454.0837              1631.2179
 Red. masses --      3.4619                 1.1796                 7.6877
 Frc consts  --      2.6963                 1.4695                12.0523
 IR Inten    --     10.6832                 2.0661                42.9969

                     13                     14                     15
                      A                      A                      A
 Frequencies --   3135.9793              3228.6983              3230.7431
 Red. masses --      1.0511                 1.1101                 1.1164
 Frc consts  --      6.0905                 6.8180                 6.8657
 IR Inten    --      0.6299                 0.7056                 1.3892

 - Thermochemistry -
 -------------------
 Temperature   298.150 Kelvin.  Pressure   1.00000 Atm.
 Atom     1 has atomic number  6 and mass  12.00000

 Molecular mass:    51.02348 amu.
 Principal axes and moments of inertia in atomic units:
                           1         2         3
     Eigenvalues --    55.54765 240.74734 293.03221
           X            0.99924   0.03886   0.00203
           Y           -0.03878   0.99881  -0.02957
           Z           -0.00317   0.02947   0.99956
 This molecule is an asymmetric top.
 Rotational symmetry number  1.
 Rotational temperatures (Kelvin)      1.55927     0.35977     0.29558
 Rotational constants (GHZ):          32.48996     7.49641     6.15885
 Zero-point vibrational energy     121890.6 (Joules/Mol)
                                   29.13254 (Kcal/Mol)
 Warning -- explicit consideration of   3 degrees of freedom as
           vibrations may cause significant error
 Vibrational temperatures:    476.43   604.64   701.64  1045.37  1153.21
          (Kelvin)           1201.06  1314.17  1424.90  1499.73  1654.22
                             2092.10  2346.96  4511.97  4645.37  4648.31

 Zero-point correction=                           0.046426 (Hartree/Particle)
 Thermal correction to Energy=                    0.050564
 Thermal correction to Enthalpy=                  0.051508
 Thermal correction to Gibbs Free Energy=         0.020218
 Sum of electronic and zero-point Energies=           -154.032668
 Sum of electronic and thermal Energies=              -154.028530
 Sum of electronic and thermal Enthalpies=            -154.027586
 Sum of electronic and thermal Free Energies=         -154.058876

                     E (Thermal)             CV                S
                      KCal/Mol        Cal/Mol-Kelvin    Cal/Mol-Kelvin
 Total                   31.729             13.879             65.856
 Electronic               0.000              0.000              1.377
 Translational            0.889              2.981             37.712
 Rotational               0.889              2.981             22.887
 Vibrational             29.952              7.918              3.879
 Vibration     1          0.714              1.613              1.255
 Vibration     2          0.783              1.426              0.891
 Vibration     3          0.844              1.277              0.690

 Optimization completed.
    -- Stationary point found.
 Normal termination of Gaussian 09 at Sun Jun 19 05:51:23 2016.
