 Gaussian 09, Revision E.01,
 Gaussian 09:  EM64L-G09RevE.01 30-Nov-2015

 ---------------------------------------------
 #p b3lyp/6-311++G(3df,2p) freq symmetry=Loose
 ---------------------------------------------

 ---------
 b3lyp opt
 ---------
 Symbolic Z-matrix:
 Charge =  1 Multiplicity = 3

                         Standard orientation:
 ---------------------------------------------------------------------
 Center     Atomic      Atomic             Coordinates (Angstroms)
 Number     Number       Type             X           Y           Z
 ---------------------------------------------------------------------
      1          6           0        0.452794    1.045734   -0.000000
      2          1           0        0.000000    2.031869   -0.000000
      3          1           0        1.538350    1.033961    0.000000
      4          6           0       -0.186215   -0.037114    0.838201
      5          6           0       -0.245503   -1.122739    0.000000
      6          1           0       -0.547522   -2.158464    0.000000
      7          6           0       -0.186215   -0.037114   -0.838201
 ---------------------------------------------------------------------

 SCF Done:  E(UB3LYP) =  -153.704607510     A.U. after   15 cycles

 The electronic state is 3-A".
 Alpha  occ. eigenvalues --  -10.54768 -10.54764 -10.49364 -10.47297  -1.23546
 Alpha  occ. eigenvalues --   -0.97644  -0.86054  -0.81219  -0.74103  -0.69617
 Alpha  occ. eigenvalues --   -0.67546  -0.63227  -0.59473  -0.48709
 Alpha virt. eigenvalues --   -0.30668  -0.28407  -0.15401  -0.14409  -0.13313
 Alpha virt. eigenvalues --   -0.12208  -0.11331  -0.08736  -0.07472  -0.06945
 Alpha virt. eigenvalues --   -0.05279  -0.04815  -0.03907  -0.03241  -0.01842

  Beta  occ. eigenvalues --  -10.52751 -10.52748 -10.49545 -10.47210  -1.21530
  Beta  occ. eigenvalues --   -0.97227  -0.80897  -0.79689  -0.72101  -0.68876
  Beta  occ. eigenvalues --   -0.65740  -0.58392
  Beta virt. eigenvalues --   -0.45120  -0.32475  -0.26669  -0.24844  -0.15119
  Beta virt. eigenvalues --   -0.13617  -0.13223  -0.12064  -0.10843  -0.08470
  Beta virt. eigenvalues --   -0.07412  -0.06314  -0.04382  -0.04336  -0.02909

 Mulliken charges and spin densities:
               1          2
     1  C   -0.389021  -0.041636
     2  H    0.191678   0.012543
     3  H    0.255016   0.003604
     4  C    0.285999   1.154152
     5  C    0.069346  -0.297179
     6  H    0.300983   0.014364
     7  C    0.285999   1.154152
 Sum of Mulliken charges =   1.00000   2.00000

 Dipole moment (field-independent basis, Debye):
    X=              0.3384    Y=             -0.5515    Z=             -0.0000  Tot=              0.6470
 Quadrupole moment (field-independent basis, Debye-Ang):
   XX=            -19.5271   YY=            -11.3314   ZZ=            -19.1125
   XY=              2.7032   XZ=             -0.0000   YZ=             -0.0000

  Exact polarizability:  27.073   4.048  40.132   0.000   0.000  32.493
 Approx polarizability:  38.120   5.016  61.320  -0.000   0.000  64.321

                      1                      2                      3
                     A'                     A"                     A'
 Frequencies --    477.0299               628.7964               831.9871
 Red. masses --      2.2687                 4.6698                 2.2958
 Frc consts  --      0.3042                 1.0879                 0.9363
 IR Inten    --     15.0016                 3.6950                19.8401

                      4                      5                      6
                     A'                     A"                     A"
 Frequencies --    890.2033               923.4036              1029.3554
 Red. masses --      2.4471                 1.9530                 1.3295
 Frc consts  --      1.1425                 0.9811                 0.8300
 IR Inten    --     28.0187                17.6471                 1.0093

                      7                      8                      9
                     A'                     A"                     A'
 Frequencies --   1043.4294              1080.3341              1111.5674
 Red. masses --      1.5200                 1.2854                 5.0515
 Frc consts  --      0.9751                 0.8839                 3.6774
 IR Inten    --      6.8221                 1.9810                 0.2944

                     10                     11                     12
                     A"                     A'                     A'
 Frequencies --   1207.4456              1465.0356              1511.3509
 Red. masses --      1.7143                 1.5143                 2.6531
 Frc consts  --      1.4726                 1.9150                 3.5706
 IR Inten    --     50.2358                 4.4071                 4.7207

                     13                     14                     15
                     A'                     A'                     A'
 Frequencies --   3105.1744              3192.1314              3253.8935
 Red. masses --      1.0530                 1.1188                 1.1107
 Frc consts  --      5.9819                 6.7170                 6.9286
 IR Inten    --     29.2040                26.1793               107.4110

 - Thermochemistry -
 -------------------
 Temperature   298.150 Kelvin.  Pressure   1.00000 Atm.
 Atom     1 has atomic number  6 and mass  12.00000

 Molecular mass:    51.02348 amu.
 Principal axes and moments of inertia in atomic units:
                           1         2         3
     Eigenvalues --    69.77131 160.28382 210.94267
           X            0.31841   0.00000   0.94795
           Y            0.94795   0.00000  -0.31841
           Z           -0.00000   1.00000  -0.00000
 This molecule is an asymmetric top.
 Rotational symmetry number  1.
 Rotational temperatures (Kelvin)      1.24140     0.54038     0.41060
 Rotational constants (GHZ):          25.86652    11.25966     8.55560
 Zero-point vibrational energy     130100.7 (Joules/Mol)
                                   31.09481 (Kcal/Mol)
 Warning -- explicit consideration of   1 degrees of freedom as
           vibrations may cause significant error
 Vibrational temperatures:    686.34   904.70  1197.04  1280.80  1328.57
          (Kelvin)           1481.01  1501.26  1554.36  1599.30  1737.24
                             2107.86  2174.49  4467.65  4592.76  4681.62

 Zero-point correction=                           0.049553 (Hartree/Particle)
 Thermal correction to Energy=                    0.053088
 Thermal correction to Enthalpy=                  0.054032
 Thermal correction to Gibbs Free Energy=         0.023525
 Sum of electronic and zero-point Energies=           -153.655055
 Sum of electronic and thermal Energies=              -153.651519
 Sum of electronic and thermal Enthalpies=            -153.650575
 Sum of electronic and thermal Free Energies=         -153.681082

                     E (Thermal)             CV                S
                      KCal/Mol        Cal/Mol-Kelvin    Cal/Mol-Kelvin
 Total                   33.313             11.418             64.208
 Electronic               0.000              0.000              2.183
 Translational            0.889              2.981             37.712
 Rotational               0.889              2.981             22.383
 Vibrational             31.536              5.457              1.930
 Vibration     1          0.834              1.301              0.718

 Optimization completed.
    -- Stationary point found.
 Normal termination of Gaussian 09 at Sun Jun 19 06:10:34 2016.
