 Gaussian 09, Revision E.01,
 Gaussian 09:  EM64L-G09RevE.01 30-Nov-2015

 ------------------------------------------------------
 #p b3lyp/6-311++G(3df,2p) freq IOp(2/17=3) IOp(2/18=3)
 ------------------------------------------------------

 ---------
 b3lyp opt
 ---------
 Symbolic Z-matrix:
 Charge =  1 Multiplicity = 1

                         Standard orientation:
 ---------------------------------------------------------------------
 Center     Atomic      Atomic             Coordinates (Angstroms)
 Number     Number       Type             X           Y           Z
 ---------------------------------------------------------------------
      1          6           0        0.019837   -1.036810    0.000000
      2          1           0        0.320587   -1.496625   -0.935416
      3          1           0        0.320587   -1.496625    0.935416
      4          6           0       -1.067348   -0.071847    0.000000
      5          1           0       -2.149270   -0.003955    0.000000
      6          6           0       -0.000000    0.703096    0.000000
      7          6           0        1.298830    0.905079    0.000000
 ---------------------------------------------------------------------

 SCF Done:  E(RB3LYP) =  -153.720679684     A.U. after   12 cycles

 The electronic state is 1-A'.
 Alpha  occ. eigenvalues --  -10.54542 -10.52548 -10.51324 -10.48126  -1.18815
 Alpha  occ. eigenvalues --   -0.99524  -0.90562  -0.81290  -0.74300  -0.70913
 Alpha  occ. eigenvalues --   -0.59294  -0.58653  -0.55571
 Alpha virt. eigenvalues --   -0.40750  -0.32546  -0.22576  -0.18814  -0.16823
 Alpha virt. eigenvalues --   -0.15584  -0.12867  -0.11886  -0.09501  -0.07672
 Alpha virt. eigenvalues --   -0.07030  -0.06918  -0.05640  -0.05514  -0.03335

 Mulliken charges:
               1
     1  C   -0.449871
     2  H    0.241737
     3  H    0.241737
     4  C    0.160172
     5  H    0.333354
     6  C    0.419119
     7  C    0.053752
 Sum of Mulliken charges =   1.00000

 Dipole moment (field-independent basis, Debye):
    X=             -2.7350    Y=             -1.8165    Z=             -0.0000  Tot=              3.2833
 Quadrupole moment (field-independent basis, Debye-Ang):
   XX=            -16.6331   YY=            -16.5318   ZZ=            -19.5873
   XY=             -0.7079   XZ=             -0.0000   YZ=              0.0000

  Exact polarizability:  45.090   8.248  42.998  -0.000   0.000  26.891
 Approx polarizability:  94.321  32.142  86.361   0.000   0.000  40.013

                      1                      2                      3
                     A"                     A'                     A'
 Frequencies --    142.3733               152.2285               572.9348
 Red. masses --      4.2514                 7.1921                 8.6757
 Frc consts  --      0.0508                 0.0982                 1.6779
 IR Inten    --      0.2752                 2.0937                54.4662

                      4                      5                      6
                     A"                     A"                     A'
 Frequencies --    661.3170               934.6706               938.7799
 Red. masses --      1.0563                 1.2030                 1.5528
 Frc consts  --      0.2722                 0.6192                 0.8063
 IR Inten    --      3.9475                 5.0841                19.7913

                      7                      8                      9
                     A"                     A'                     A'
 Frequencies --   1040.5803              1067.4933              1153.7880
 Red. masses --      1.4172                 1.2781                 2.4514
 Frc consts  --      0.9041                 0.8581                 1.9227
 IR Inten    --      0.0138                20.9197                 3.9750

                     10                     11                     12
                     A'                     A'                     A'
 Frequencies --   1252.9953              1448.6137              1885.1496
 Red. masses --      5.3942                 1.0975                 9.2032
 Frc consts  --      4.9897                 1.3570                19.2700
 IR Inten    --     24.5447                 7.7323               563.1711

                     13                     14                     15
                     A'                     A'                     A"
 Frequencies --   3098.6657              3205.7741              3217.7910
 Red. masses --      1.0472                 1.1149                 1.1240
 Frc consts  --      5.9245                 6.7506                 6.8568
 IR Inten    --     31.7094                62.5978                37.8514

 - Thermochemistry -
 -------------------
 Temperature   298.150 Kelvin.  Pressure   1.00000 Atm.
 Atom     1 has atomic number  6 and mass  12.00000

 Molecular mass:    51.02348 amu.
 Principal axes and moments of inertia in atomic units:
                           1         2         3
     Eigenvalues --    84.42446 184.58583 256.41373
           X            0.77532  -0.63157   0.00000
           Y            0.63157   0.77532   0.00000
           Z            0.00000   0.00000   1.00000
 This molecule is an asymmetric top.
 Rotational symmetry number  1.
 Rotational temperatures (Kelvin)      1.02593     0.46923     0.33779
 Rotational constants (GHZ):          21.37699     9.77725     7.03840
 Zero-point vibrational energy     124251.1 (Joules/Mol)
                                   29.69672 (Kcal/Mol)
 Warning -- explicit consideration of   3 degrees of freedom as
           vibrations may cause significant error
 Vibrational temperatures:    204.84   219.02   824.32   951.49  1344.78
          (Kelvin)           1350.69  1497.16  1535.88  1660.04  1802.78
                             2084.23  2712.31  4458.28  4612.39  4629.68

 Zero-point correction=                           0.047325 (Hartree/Particle)
 Thermal correction to Energy=                    0.051953
 Thermal correction to Enthalpy=                  0.052897
 Thermal correction to Gibbs Free Energy=         0.020882
 Sum of electronic and zero-point Energies=           -153.673355
 Sum of electronic and thermal Energies=              -153.668727
 Sum of electronic and thermal Enthalpies=            -153.667783
 Sum of electronic and thermal Free Energies=         -153.699798

                     E (Thermal)             CV                S
                      KCal/Mol        Cal/Mol-Kelvin    Cal/Mol-Kelvin
 Total                   32.601             13.833             67.381
 Electronic               0.000              0.000              0.000
 Translational            0.889              2.981             37.712
 Rotational               0.889              2.981             22.906
 Vibrational             30.823              7.871              6.762
 Vibration     1          0.616              1.911              2.772
 Vibration     2          0.619              1.900              2.644
 Vibration     3          0.929              1.090              0.499

 Optimization completed.
    -- Stationary point found.
 Normal termination of Gaussian 09 at Thu Jan 31 05:20:18 2019.
