 Gaussian 09, Revision E.01,
 Gaussian 09:  EM64L-G09RevE.01 30-Nov-2015

 ---------------------------------------------
 #p b3lyp/6-311++G(3df,2p) freq symmetry=Loose
 ---------------------------------------------

 ---------
 b3lyp opt
 ---------
 Symbolic Z-matrix:
 Charge =  0 Multiplicity = 4

                         Standard orientation:
 ---------------------------------------------------------------------
 Center     Atomic      Atomic             Coordinates (Angstroms)
 Number     Number       Type             X           Y           Z
 ---------------------------------------------------------------------
      1          6           0        0.793150   -0.605988   -0.538642
      2          6           0       -0.274522   -0.288779    0.429661
      3          1           0       -0.315063   -0.791508    1.391723
      4          6           0        1.107519    0.470823    0.081189
      5          1           0        1.670504    1.356862    0.302431
      6          6           0       -1.546096    0.227384   -0.080046
      7          1           0       -1.835747    0.614010   -1.047126
 ---------------------------------------------------------------------

 SCF Done:  E(UB3LYP) =  -153.949781683     A.U. after   16 cycles

 The electronic state is 4-A.
 Alpha  occ. eigenvalues --  -10.24144 -10.22349 -10.21616 -10.21413  -0.90709
 Alpha  occ. eigenvalues --   -0.72620  -0.59716  -0.56699  -0.46032  -0.44449
 Alpha  occ. eigenvalues --   -0.41355  -0.30713  -0.29962  -0.26244  -0.19637
 Alpha virt. eigenvalues --   -0.01804   0.00039   0.01186   0.01539   0.03901
 Alpha virt. eigenvalues --    0.05563   0.07309   0.07684   0.07999   0.09071
 Alpha virt. eigenvalues --    0.10833   0.11224   0.11538   0.11940   0.12995

  Beta  occ. eigenvalues --  -10.23792 -10.21052 -10.20880 -10.18858  -0.88792
  Beta  occ. eigenvalues --   -0.67832  -0.57392  -0.54633  -0.44242  -0.39921
  Beta  occ. eigenvalues --   -0.37368  -0.28324
  Beta virt. eigenvalues --   -0.15205  -0.09495  -0.05455  -0.00234   0.00672
  Beta virt. eigenvalues --    0.01426   0.01974   0.04514   0.06516   0.07800
  Beta virt. eigenvalues --    0.08268   0.09070   0.09685   0.11318   0.11827

 Mulliken charges and spin densities:
               1          2
     1  C   -0.362479   0.885408
     2  C    0.219532   0.020414
     3  H    0.158063  -0.003812
     4  C    0.089632   0.103386
     5  H    0.264862   0.009212
     6  C   -0.569348   1.986043
     7  H    0.199737  -0.000650
 Sum of Mulliken charges =  -0.00000   3.00000

 Dipole moment (field-independent basis, Debye):
    X=              0.4515    Y=              0.9495    Z=              0.6430  Tot=              1.2324
 Quadrupole moment (field-independent basis, Debye-Ang):
   XX=            -25.1545   YY=            -23.8942   ZZ=            -24.1217
   XY=              1.7895   XZ=              1.8085   YZ=             -1.0900

  Exact polarizability:  58.269   0.543  42.277  -1.519   2.481  41.614
 Approx polarizability:  79.734   3.026  66.848  -3.332   9.657  62.045

                      1                      2                      3
                      A                      A                      A
 Frequencies --    147.9360               369.8386               384.9523
 Red. masses --      1.1341                 2.9102                 3.7564
 Frc consts  --      0.0146                 0.2345                 0.3280
 IR Inten    --     19.5503                 3.5879                15.4470

                      4                      5                      6
                      A                      A                      A
 Frequencies --    571.9005               653.8992               848.9084
 Red. masses --      2.9281                 1.5937                 1.2856
 Frc consts  --      0.5643                 0.4015                 0.5459
 IR Inten    --     46.9411                49.7804                68.5414

                      7                      8                      9
                      A                      A                      A
 Frequencies --    876.7315               916.0872              1027.8229
 Red. masses --      1.8863                 1.2961                 3.4316
 Frc consts  --      0.8543                 0.6408                 2.1359
 IR Inten    --     10.6264                15.7501                 3.6639

                     10                     11                     12
                      A                      A                      A
 Frequencies --   1161.4682              1341.7976              1718.2159
 Red. masses --      4.1621                 1.2652                 6.9668
 Frc consts  --      3.3081                 1.3421                12.1181
 IR Inten    --      8.6193                 5.4174                16.6232

                     13                     14                     15
                      A                      A                      A
 Frequencies --   3099.2650              3206.6976              3293.4721
 Red. masses --      1.0842                 1.0907                 1.1174
 Frc consts  --      6.1358                 6.6079                 7.1411
 IR Inten    --     13.0504                 2.0534                 9.9986

 - Thermochemistry -
 -------------------
 Temperature   298.150 Kelvin.  Pressure   1.00000 Atm.
 Atom     1 has atomic number  6 and mass  12.00000

 Molecular mass:    51.02348 amu.
 Principal axes and moments of inertia in atomic units:
                           1         2         3
     Eigenvalues --    72.85106 238.15177 250.96775
           X            0.99871   0.04341   0.02626
           Y           -0.03034   0.92583  -0.37672
           Z           -0.04067   0.37543   0.92596
 This molecule is an asymmetric top.
 Rotational symmetry number  1.
 Rotational temperatures (Kelvin)      1.18892     0.36369     0.34512
 Rotational constants (GHZ):          24.77303     7.57811     7.19113
 Zero-point vibrational energy     117347.6 (Joules/Mol)
                                   28.04676 (Kcal/Mol)
 Warning -- explicit consideration of   4 degrees of freedom as
           vibrations may cause significant error
 Vibrational temperatures:    212.85   532.11   553.86   822.84   940.81
          (Kelvin)           1221.39  1261.42  1318.04  1478.81  1671.09
                             1930.54  2472.13  4459.15  4613.72  4738.57

 Zero-point correction=                           0.044695 (Hartree/Particle)
 Thermal correction to Energy=                    0.049387
 Thermal correction to Enthalpy=                  0.050331
 Thermal correction to Gibbs Free Energy=         0.017196
 Sum of electronic and zero-point Energies=           -153.905086
 Sum of electronic and thermal Energies=              -153.900395
 Sum of electronic and thermal Enthalpies=            -153.899451
 Sum of electronic and thermal Free Energies=         -153.932586

                     E (Thermal)             CV                S
                      KCal/Mol        Cal/Mol-Kelvin    Cal/Mol-Kelvin
 Total                   30.991             15.242             69.739
 Electronic               0.000              0.000              2.755
 Translational            0.889              2.981             37.712
 Rotational               0.889              2.981             22.992
 Vibrational             29.213              9.281              6.280
 Vibration     1          0.617              1.905              2.699
 Vibration     2          0.742              1.534              1.080
 Vibration     3          0.754              1.502              1.020
 Vibration     4          0.928              1.092              0.501

 Optimization completed.
    -- Stationary point found.
 Normal termination of Gaussian 09 at Sun Jun 19 05:58:49 2016.
