 Gaussian 09, Revision E.01,
 Gaussian 09:  EM64L-G09RevE.01 30-Nov-2015

 ---------------------------------------------
 #p b3lyp/6-311++G(3df,2p) freq symmetry=Loose
 ---------------------------------------------

 ---------
 b3lyp opt
 ---------
 Symbolic Z-matrix:
 Charge =  3 Multiplicity = 3

                         Standard orientation:
 ---------------------------------------------------------------------
 Center     Atomic      Atomic             Coordinates (Angstroms)
 Number     Number       Type             X           Y           Z
 ---------------------------------------------------------------------
      1          6           0        0.000064    1.900199   -0.000000
      2          1           0        0.933697    2.610573   -0.000000
      3          1           0       -0.933542    2.610603    0.000000
      4          6           0        0.000000    0.590684    0.000000
      5          6           0       -0.000280   -0.753785    0.000000
      6          6           0        0.000088   -2.072548   -0.000000
      7          1           0        0.000613   -3.208483   -0.000000
 ---------------------------------------------------------------------

 SCF Done:  E(UB3LYP) =  -152.308353231     A.U. after   17 cycles

 The electronic state is 3-A".
 Alpha  occ. eigenvalues --  -11.10930 -11.07940 -11.07551 -11.01598  -1.62871
 Alpha  occ. eigenvalues --   -1.56211  -1.45799  -1.27400  -1.25230  -1.18418
 Alpha  occ. eigenvalues --   -1.15123  -1.12206  -1.05154
 Alpha virt. eigenvalues --   -0.90760  -0.83676  -0.72458  -0.66463  -0.62829
 Alpha virt. eigenvalues --   -0.54438  -0.52282  -0.48150  -0.47386  -0.43092
 Alpha virt. eigenvalues --   -0.42404  -0.41657  -0.40346  -0.38685  -0.38650

  Beta  occ. eigenvalues --  -11.09608 -11.07297 -11.06996 -11.00905  -1.59367
  Beta  occ. eigenvalues --   -1.52422  -1.43588  -1.25813  -1.23748  -1.15212
  Beta  occ. eigenvalues --   -1.10809
  Beta virt. eigenvalues --   -1.00290  -0.94089  -0.86925  -0.78244  -0.67197
  Beta virt. eigenvalues --   -0.62451  -0.59640  -0.53475  -0.51397  -0.47122
  Beta virt. eigenvalues --   -0.46018  -0.42512  -0.41934  -0.41039  -0.39940

 Mulliken charges and spin densities:
               1          2
     1  C   -0.031174   0.289575
     2  H    0.416864   0.039349
     3  H    0.416927   0.039337
     4  C    0.713465   0.470670
     5  C    0.315559   0.637163
     6  C    0.643912   0.547730
     7  H    0.524446  -0.023823
 Sum of Mulliken charges =   3.00000   2.00000

 Dipole moment (field-independent basis, Debye):
    X=              0.0007    Y=             -0.1434    Z=             -0.0000  Tot=              0.1434
 Quadrupole moment (field-independent basis, Debye-Ang):
   XX=            -12.9041   YY=             49.6766   ZZ=            -17.7807
   XY=             -0.0022   XZ=              0.0000   YZ=              0.0000

  Exact polarizability:  20.087  -0.000  88.093   0.000  -0.000  17.170
 Approx polarizability:  29.060   0.001 189.322  -0.000  -0.000  23.215

                      1                      2                      3
                     A'                     A"                     A'
 Frequencies --    202.1597               211.7826               391.1966
 Red. masses --      2.5600                 3.4537                 1.8109
 Frc consts  --      0.0616                 0.0913                 0.1633
 IR Inten    --     47.4441                52.5108                17.4078

                      4                      5                      6
                     A"                     A"                     A'
 Frequencies --    455.7599               657.7434               667.1108
 Red. masses --      5.5597                 1.3165                 2.9057
 Frc consts  --      0.6804                 0.3356                 0.7619
 IR Inten    --      0.3781                30.5447                40.0880

                      7                      8                      9
                     A'                     A'                     A"
 Frequencies --    796.1338               798.6985               830.0676
 Red. masses --      5.9138                 1.4234                 1.4317
 Frc consts  --      2.2085                 0.5350                 0.5812
 IR Inten    --    229.4583                 9.4802                74.1281

                     10                     11                     12
                     A'                     A'                     A'
 Frequencies --    906.3676              1502.4416              1814.3667
 Red. masses --      1.0839                 6.1081                 8.0496
 Frc consts  --      0.5246                 8.1236                15.6125
 IR Inten    --    497.8265               655.8339                58.5864

                     13                     14                     15
                     A'                     A'                     A'
 Frequencies --   2254.6655              2335.0388              2757.1063
 Red. masses --      1.0867                 1.0733                 1.1607
 Frc consts  --      3.2547                 3.4480                 5.1984
 IR Inten    --    770.9648              2069.5596               701.9799

 - Thermochemistry -
 -------------------
 Temperature   298.150 Kelvin.  Pressure   1.00000 Atm.
 Atom     1 has atomic number  6 and mass  12.00000

 Molecular mass:    51.02348 amu.
 Principal axes and moments of inertia in atomic units:
                           1         2         3
     Eigenvalues --     6.27412 463.92947 470.20359
           X            0.00000   1.00000   0.00000
           Y            1.00000  -0.00000   0.00000
           Z           -0.00000   0.00000   1.00000
 This molecule is an asymmetric top.
 Rotational symmetry number  1.
 Rotational temperatures (Kelvin)     13.80493     0.18670     0.18420
 Rotational constants (GHZ):         287.64834     3.89012     3.83821
 Zero-point vibrational energy      99174.2 (Joules/Mol)
                                   23.70321 (Kcal/Mol)
 Warning -- explicit consideration of   4 degrees of freedom as
           vibrations may cause significant error
 Vibrational temperatures:    290.86   304.71   562.84   655.74   946.34
          (Kelvin)            959.82  1145.46  1149.15  1194.28  1304.06
                             2161.68  2610.47  3243.96  3359.60  3966.86

 Zero-point correction=                           0.037773 (Hartree/Particle)
 Thermal correction to Energy=                    0.042828
 Thermal correction to Enthalpy=                  0.043772
 Thermal correction to Gibbs Free Energy=         0.010933
 Sum of electronic and zero-point Energies=           -152.270580
 Sum of electronic and thermal Energies=              -152.265525
 Sum of electronic and thermal Enthalpies=            -152.264581
 Sum of electronic and thermal Free Energies=         -152.297420

                     E (Thermal)             CV                S
                      KCal/Mol        Cal/Mol-Kelvin    Cal/Mol-Kelvin
 Total                   26.875             16.775             69.116
 Electronic               0.000              0.000              2.183
 Translational            0.889              2.981             37.712
 Rotational               0.889              2.981             21.842
 Vibrational             25.098             10.813              7.378
 Vibration     1          0.639              1.837              2.113
 Vibration     2          0.643              1.823              2.028
 Vibration     3          0.759              1.489              0.996
 Vibration     4          0.814              1.348              0.779

 Optimization completed.
    -- Stationary point found.
 Normal termination of Gaussian 09 at Sun Jun 19 06:58:32 2016.
