 Gaussian 09, Revision E.01,
 Gaussian 09:  EM64L-G09RevE.01 30-Nov-2015

 ---------------------------------------------
 #p b3lyp/6-311++G(3df,2p) freq symmetry=Loose
 ---------------------------------------------

 ---------
 b3lyp opt
 ---------
 Symbolic Z-matrix:
 Charge =  2 Multiplicity = 2

                         Standard orientation:
 ---------------------------------------------------------------------
 Center     Atomic      Atomic             Coordinates (Angstroms)
 Number     Number       Type             X           Y           Z
 ---------------------------------------------------------------------
      1          6           0        1.759322    0.087315   -0.038036
      2          1           0        2.849946    0.225694   -0.069890
      3          6           0        0.529267   -0.254845    0.029543
      4          1           0        0.656467   -1.387091    0.101676
      5          6           0       -0.751917    0.376894    0.067867
      6          1           0       -0.852210    1.480013   -0.019172
      7          6           0       -1.979039   -0.262467   -0.061475
 ---------------------------------------------------------------------

 SCF Done:  E(UB3LYP) =  -153.099855152     A.U. after   25 cycles

 The electronic state is 2-A.
 Alpha  occ. eigenvalues --  -10.82794 -10.81690 -10.74919 -10.74736  -1.37138
 Alpha  occ. eigenvalues --   -1.29752  -1.12151  -1.05667  -1.01466  -0.93892
 Alpha  occ. eigenvalues --   -0.88494  -0.81372  -0.78955
 Alpha virt. eigenvalues --   -0.63622  -0.60404  -0.56828  -0.44657  -0.36263
 Alpha virt. eigenvalues --   -0.35177  -0.32197  -0.28220  -0.28000  -0.26754
 Alpha virt. eigenvalues --   -0.23769  -0.23324  -0.22459  -0.21147  -0.20015

  Beta  occ. eigenvalues --  -10.82212 -10.80997 -10.74930 -10.74279  -1.36155
  Beta  occ. eigenvalues --   -1.27414  -1.11021  -1.04992  -1.01215  -0.93496
  Beta  occ. eigenvalues --   -0.85480  -0.78590
  Beta virt. eigenvalues --   -0.68698  -0.62843  -0.59514  -0.52930  -0.41926
  Beta virt. eigenvalues --   -0.36297  -0.34656  -0.31978  -0.28004  -0.27708
  Beta virt. eigenvalues --   -0.26478  -0.23472  -0.22899  -0.21952  -0.20887

 Mulliken charges and spin densities:
               1          2
     1  C    0.292017   0.323068
     2  H    0.460582  -0.008282
     3  C    0.244288  -0.098035
     4  H    0.261424  -0.002712
     5  C    0.294897   0.421089
     6  H    0.267549  -0.011211
     7  C    0.179241   0.376082
 Sum of Mulliken charges =   2.00000   1.00000

 Dipole moment (field-independent basis, Debye):
    X=              3.4037    Y=              0.4193    Z=              0.2403  Tot=              3.4379
 Quadrupole moment (field-independent basis, Debye-Ang):
   XX=              9.6872   YY=            -12.1689   ZZ=            -20.2865
   XY=             -1.3887   XZ=             -1.0685   YZ=             -0.4875

  Exact polarizability:  83.446   5.601  29.719  -3.726  -0.708  22.339
 Approx polarizability: 128.495  12.455  47.721  -1.009   0.127  30.999

                      1                      2                      3
                      A                      A                      A
 Frequencies --    164.4688               170.3879               276.3011
 Red. masses --      3.3740                 2.8897                 4.5398
 Frc consts  --      0.0538                 0.0494                 0.2042
 IR Inten    --      3.7201                17.2441                14.3621

                      4                      5                      6
                      A                      A                      A
 Frequencies --    589.5305               662.4087               699.6499
 Red. masses --      1.8040                 1.1454                 1.5776
 Frc consts  --      0.3694                 0.2961                 0.4550
 IR Inten    --    134.3953                89.6567                21.4365

                      7                      8                      9
                      A                      A                      A
 Frequencies --    825.5079               905.0544              1042.5922
 Red. masses --      2.1937                 1.5068                 1.3528
 Frc consts  --      0.8808                 0.7272                 0.8664
 IR Inten    --     24.5827                 5.5869                10.8833

                     10                     11                     12
                      A                      A                      A
 Frequencies --   1096.4967              1351.1598              1697.2053
 Red. masses --      1.7637                 3.3442                 5.4798
 Frc consts  --      1.2494                 3.5972                 9.3000
 IR Inten    --     21.9538                17.1452               471.8764

                     13                     14                     15
                      A                      A                      A
 Frequencies --   2656.0693              2915.0758              3095.6251
 Red. masses --      1.0714                 1.0816                 1.1369
 Frc consts  --      4.4533                 5.4150                 6.4188
 IR Inten    --    241.5153               193.9379               392.9069

 - Thermochemistry -
 -------------------
 Temperature   298.150 Kelvin.  Pressure   1.00000 Atm.
 Atom     1 has atomic number  6 and mass  12.00000

 Molecular mass:    51.02348 amu.
 Principal axes and moments of inertia in atomic units:
                           1         2         3
     Eigenvalues --    27.56396 370.20167 396.76870
           X            0.99988  -0.01566  -0.00075
           Y            0.01564   0.99958  -0.02446
           Z            0.00114   0.02445   0.99970
 This molecule is an asymmetric top.
 Rotational symmetry number  1.
 Rotational temperatures (Kelvin)      3.14229     0.23396     0.21830
 Rotational constants (GHZ):          65.47468     4.87502     4.54860
 Zero-point vibrational energy     108546.4 (Joules/Mol)
                                   25.94320 (Kcal/Mol)
 Warning -- explicit consideration of   4 degrees of freedom as
           vibrations may cause significant error
 Vibrational temperatures:    236.63   245.15   397.54   848.20   953.06
          (Kelvin)           1006.64  1187.72  1302.17  1500.06  1577.61
                             1944.02  2441.90  3821.49  4194.14  4453.91

 Zero-point correction=                           0.041343 (Hartree/Particle)
 Thermal correction to Energy=                    0.046453
 Thermal correction to Enthalpy=                  0.047397
 Thermal correction to Gibbs Free Energy=         0.014082
 Sum of electronic and zero-point Energies=           -153.058512
 Sum of electronic and thermal Energies=              -153.053402
 Sum of electronic and thermal Enthalpies=            -153.052458
 Sum of electronic and thermal Free Energies=         -153.085773

                     E (Thermal)             CV                S
                      KCal/Mol        Cal/Mol-Kelvin    Cal/Mol-Kelvin
 Total                   29.150             16.113             70.117
 Electronic               0.000              0.000              1.377
 Translational            0.889              2.981             37.712
 Rotational               0.889              2.981             22.919
 Vibrational             27.372             10.151              8.107
 Vibration     1          0.623              1.886              2.498
 Vibration     2          0.625              1.879              2.431
 Vibration     3          0.678              1.717              1.556
 Vibration     4          0.947              1.054              0.468

 Normal termination of Gaussian 09 at Sun Jun 19 06:33:00 2016.
