 Gaussian 09, Revision E.01,
 Gaussian 09:  EM64L-G09RevE.01 30-Nov-2015

 ---------------------------------------------
 #p b3lyp/6-311++G(3df,2p) freq symmetry=Loose
 ---------------------------------------------

 ---------
 b3lyp opt
 ---------
 Symbolic Z-matrix:
 Charge =  3 Multiplicity = 3

                         Standard orientation:
 ---------------------------------------------------------------------
 Center     Atomic      Atomic             Coordinates (Angstroms)
 Number     Number       Type             X           Y           Z
 ---------------------------------------------------------------------
      1          6           0       -0.285070    1.945286    0.000000
      2          1           0       -0.540962    3.047116    0.000000
      3          6           0       -0.000000    0.666433    0.000000
      4          6           0        0.397180   -0.647613    0.000000
      5          1           0        1.556829   -0.862030    0.000000
      6          6           0       -0.188252   -1.842210    0.000000
      7          1           0       -0.559015   -2.916458    0.000000
 ---------------------------------------------------------------------

 SCF Done:  E(UB3LYP) =  -152.315180898     A.U. after   15 cycles

 The electronic state is 3-A".
 Alpha  occ. eigenvalues --  -11.11551 -11.08807 -11.07710 -11.01952  -1.63090
 Alpha  occ. eigenvalues --   -1.57184  -1.42531  -1.28329  -1.25635  -1.23197
 Alpha  occ. eigenvalues --   -1.14552  -1.09951  -1.06164
 Alpha virt. eigenvalues --   -0.88605  -0.84060  -0.79331  -0.67663  -0.61290
 Alpha virt. eigenvalues --   -0.55915  -0.53194  -0.50736  -0.46296  -0.44119
 Alpha virt. eigenvalues --   -0.43020  -0.41693  -0.40697  -0.38477  -0.37681

  Beta  occ. eigenvalues --  -11.10625 -11.07305 -11.06634 -11.02008  -1.60428
  Beta  occ. eigenvalues --   -1.52073  -1.40580  -1.27077  -1.24215  -1.21635
  Beta  occ. eigenvalues --   -1.10215
  Beta virt. eigenvalues --   -0.95378  -0.94610  -0.87051  -0.78525  -0.72229
  Beta virt. eigenvalues --   -0.63895  -0.59002  -0.54224  -0.52339  -0.50213
  Beta virt. eigenvalues --   -0.45389  -0.43549  -0.42649  -0.41006  -0.39982

 Mulliken charges and spin densities:
               1          2
     1  C    0.622214   0.777595
     2  H    0.520146  -0.025129
     3  C    0.397757   0.771256
     4  C    0.185898  -0.024703
     5  H    0.341877   0.022709
     6  C    0.421456   0.487115
     7  H    0.510652  -0.008843
 Sum of Mulliken charges =   3.00000   2.00000

 Dipole moment (field-independent basis, Debye):
    X=             -0.3567    Y=             -0.6176    Z=              0.0000  Tot=              0.7132
 Quadrupole moment (field-independent basis, Debye-Ang):
   XX=            -10.0060   YY=             41.3586   ZZ=            -17.8927
   XY=             -3.0998   XZ=              0.0000   YZ=              0.0000

  Exact polarizability:  23.419  -3.741  72.994   0.000  -0.000  17.334
 Approx polarizability:  37.208  -4.669 133.607  -0.000  -0.000  23.625

                      1                      2                      3
                     A'                     A"                     A'
 Frequencies --    214.7277               298.4338               425.0771
 Red. masses --      3.0928                 2.6537                 2.9915
 Frc consts  --      0.0840                 0.1392                 0.3185
 IR Inten    --     33.2718                59.9285                 1.8799

                      4                      5                      6
                     A"                     A'                     A"
 Frequencies --    604.3163               701.8260               709.3453
 Red. masses --      1.4277                 1.3153                 1.7256
 Frc consts  --      0.3072                 0.3817                 0.5116
 IR Inten    --     73.3712                25.0535                 1.4128

                      7                      8                      9
                     A"                     A'                     A'
 Frequencies --    725.2184               835.5887               906.1317
 Red. masses --      1.3381                 2.1222                 1.8759
 Frc consts  --      0.4147                 0.8730                 0.9075
 IR Inten    --     24.8613                26.0453                11.0846

                     10                     11                     12
                     A'                     A'                     A'
 Frequencies --   1015.5378              1462.1568              1851.7372
 Red. masses --      1.5560                 4.6251                 6.5007
 Frc consts  --      0.9455                 5.8258                13.1332
 IR Inten    --     12.2323               842.6701                66.4901

                     13                     14                     15
                     A'                     A'                     A'
 Frequencies --   2293.9635              2744.8499              2804.8214
 Red. masses --      1.0701                 1.1425                 1.1696
 Frc consts  --      3.3178                 5.0718                 5.4212
 IR Inten    --    764.6533               904.8834               520.9942

 - Thermochemistry -
 -------------------
 Temperature   298.150 Kelvin.  Pressure   1.00000 Atm.
 Atom     1 has atomic number  6 and mass  12.00000

 Molecular mass:    51.02348 amu.
 Principal axes and moments of inertia in atomic units:
                           1         2         3
     Eigenvalues --    21.07183 412.83886 433.91069
           X           -0.06342   0.99799   0.00000
           Y            0.99799   0.06342   0.00000
           Z           -0.00000   0.00000   1.00000
 This molecule is an asymmetric top.
 Rotational symmetry number  1.
 Rotational temperatures (Kelvin)      4.11041     0.20980     0.19961
 Rotational constants (GHZ):          85.64710     4.37154     4.15925
 Zero-point vibrational energy     105233.9 (Joules/Mol)
                                   25.15150 (Kcal/Mol)
 Warning -- explicit consideration of   4 degrees of freedom as
           vibrations may cause significant error
 Vibrational temperatures:    308.94   429.38   611.59   869.48  1009.77
          (Kelvin)           1020.59  1043.43  1202.22  1303.72  1461.13
                             2103.71  2664.23  3300.50  3949.22  4035.51

 Zero-point correction=                           0.040081 (Hartree/Particle)
 Thermal correction to Energy=                    0.044805
 Thermal correction to Enthalpy=                  0.045749
 Thermal correction to Gibbs Free Energy=         0.013065
 Sum of electronic and zero-point Energies=           -152.275099
 Sum of electronic and thermal Energies=              -152.270376
 Sum of electronic and thermal Enthalpies=            -152.269432
 Sum of electronic and thermal Free Energies=         -152.302116

                     E (Thermal)             CV                S
                      KCal/Mol        Cal/Mol-Kelvin    Cal/Mol-Kelvin
 Total                   28.115             15.871             68.789
 Electronic               0.000              0.000              2.183
 Translational            0.889              2.981             37.712
 Rotational               0.889              2.981             22.850
 Vibrational             26.338              9.910              6.044
 Vibration     1          0.645              1.819              2.003
 Vibration     2          0.692              1.677              1.426
 Vibration     3          0.787              1.416              0.875
 Vibration     4          0.963              1.023              0.442

 Optimization completed.
    -- Stationary point found.
 Normal termination of Gaussian 09 at Sun Jun 19 06:58:34 2016.
