 Gaussian 09, Revision E.01,
 Gaussian 09:  EM64L-G09RevE.01 30-Nov-2015

 ---------------------------------------------
 #p b3lyp/6-311++G(3df,2p) freq symmetry=Loose
 ---------------------------------------------

 ---------
 b3lyp opt
 ---------
 Symbolic Z-matrix:
 Charge =  2 Multiplicity = 2

                         Standard orientation:
 ---------------------------------------------------------------------
 Center     Atomic      Atomic             Coordinates (Angstroms)
 Number     Number       Type             X           Y           Z
 ---------------------------------------------------------------------
      1          6           0        1.019030   -0.778934    0.000410
      2          6           0       -0.179008   -0.132938   -0.000154
      3          6           0        1.144854    0.525045   -0.000087
      4          1           0        1.560314    1.540722   -0.001504
      5          6           0       -1.546420    0.074107    0.000013
      6          1           0       -2.096191    0.165535   -0.951925
      7          1           0       -2.094861    0.170062    0.952338
 ---------------------------------------------------------------------

 SCF Done:  E(UB3LYP) =  -153.181674046     A.U. after   14 cycles

 The electronic state is 2-A.
 Alpha  occ. eigenvalues --  -10.81124 -10.81030 -10.79879 -10.79465  -1.49097
 Alpha  occ. eigenvalues --   -1.30055  -1.09952  -1.05244  -0.98371  -0.97990
 Alpha  occ. eigenvalues --   -0.94699  -0.89727  -0.82044
 Alpha virt. eigenvalues --   -0.64606  -0.57128  -0.52174  -0.36868  -0.34359
 Alpha virt. eigenvalues --   -0.33034  -0.29243  -0.29080  -0.28989  -0.26104
 Alpha virt. eigenvalues --   -0.25377  -0.25182  -0.22325  -0.21154  -0.20476

  Beta  occ. eigenvalues --  -10.81052 -10.79869 -10.79349 -10.79063  -1.48553
  Beta  occ. eigenvalues --   -1.28611  -1.09595  -1.04430  -0.98080  -0.95015
  Beta  occ. eigenvalues --   -0.93357  -0.89078
  Beta virt. eigenvalues --   -0.68265  -0.59683  -0.57280  -0.49702  -0.36463
  Beta virt. eigenvalues --   -0.33796  -0.32866  -0.29007  -0.28655  -0.27896
  Beta virt. eigenvalues --   -0.25849  -0.25297  -0.24286  -0.21863  -0.20922

 Mulliken charges and spin densities:
               1          2
     1  C    0.500145   0.796241
     2  C    0.437000  -0.003348
     3  C    0.238329  -0.045152
     4  H    0.384614  -0.004317
     5  C   -0.212604   0.270642
     6  H    0.326328  -0.007028
     7  H    0.326187  -0.007039
 Sum of Mulliken charges =   2.00000   1.00000

 Dipole moment (field-independent basis, Debye):
    X=             -1.7453    Y=              1.5078    Z=             -0.0010  Tot=              2.3064
 Quadrupole moment (field-independent basis, Debye-Ang):
   XX=              3.9873   YY=            -12.8007   ZZ=            -16.3291
   XY=              1.6410   XZ=             -0.0013   YZ=              0.0014

  Exact polarizability:  54.601  -2.070  26.863   0.000   0.002  21.062
 Approx polarizability:  99.672  -8.576  47.250   0.007   0.003  30.323

                      1                      2                      3
                      A                      A                      A
 Frequencies --    289.1800               391.3355               414.7733
 Red. masses --      3.4381                 2.2780                 1.2260
 Frc consts  --      0.1694                 0.2055                 0.1243
 IR Inten    --     14.4770                 9.7243                 0.4988

                      4                      5                      6
                      A                      A                      A
 Frequencies --    677.8975               866.4668               905.4097
 Red. masses --      8.6612                 1.2775                 2.0503
 Frc consts  --      2.3451                 0.5651                 0.9903
 IR Inten    --    113.4798                25.2725                37.7467

                      7                      8                      9
                      A                      A                      A
 Frequencies --    977.0811               984.3453              1104.9532
 Red. masses --      1.6009                 1.8080                 1.4239
 Frc consts  --      0.9005                 1.0321                 1.0243
 IR Inten    --      4.7340                52.6230                18.7487

                     10                     11                     12
                      A                      A                      A
 Frequencies --   1372.8540              1420.8233              1751.4587
 Red. masses --      1.1592                 7.3327                 7.6802
 Frc consts  --      1.2872                 8.7216                13.8811
 IR Inten    --     48.7284                19.1548                31.6739

                     13                     14                     15
                      A                      A                      A
 Frequencies --   2956.8434              3059.3218              3101.5378
 Red. masses --      1.0507                 1.1220                 1.1338
 Frc consts  --      5.4125                 6.1873                 6.4258
 IR Inten    --    303.2205               190.5132               291.0475

 - Thermochemistry -
 -------------------
 Temperature   298.150 Kelvin.  Pressure   1.00000 Atm.
 Atom     1 has atomic number  6 and mass  12.00000

 Molecular mass:    51.02348 amu.
 Principal axes and moments of inertia in atomic units:
                           1         2         3
     Eigenvalues --    53.67148 251.10064 291.72130
           X            0.99958   0.02881  -0.00002
           Y           -0.02881   0.99958   0.00017
           Z            0.00003  -0.00017   1.00000
 This molecule is an asymmetric top.
 Rotational symmetry number  1.
 Rotational temperatures (Kelvin)      1.61378     0.34494     0.29691
 Rotational constants (GHZ):          33.62570     7.18732     6.18653
 Zero-point vibrational energy     121267.1 (Joules/Mol)
                                   28.98354 (Kcal/Mol)
 Warning -- explicit consideration of   3 degrees of freedom as
           vibrations may cause significant error
 Vibrational temperatures:    416.06   563.04   596.77   975.34  1246.65
          (Kelvin)           1302.68  1405.80  1416.25  1589.78  1975.23
                             2044.25  2519.96  4254.23  4401.68  4462.42

 Zero-point correction=                           0.046188 (Hartree/Particle)
 Thermal correction to Energy=                    0.050424
 Thermal correction to Enthalpy=                  0.051369
 Thermal correction to Gibbs Free Energy=         0.019869
 Sum of electronic and zero-point Energies=           -153.135486
 Sum of electronic and thermal Energies=              -153.131250
 Sum of electronic and thermal Enthalpies=            -153.130305
 Sum of electronic and thermal Free Energies=         -153.161805

                     E (Thermal)             CV                S
                      KCal/Mol        Cal/Mol-Kelvin    Cal/Mol-Kelvin
 Total                   31.642             13.814             66.297
 Electronic               0.000              0.000              1.377
 Translational            0.889              2.981             37.712
 Rotational               0.889              2.981             22.890
 Vibrational             29.864              7.852              4.317
 Vibration     1          0.686              1.694              1.479
 Vibration     2          0.759              1.489              0.995
 Vibration     3          0.778              1.438              0.910

 Normal termination of Gaussian 09 at Sun Jun 19 06:32:23 2016.
