 Gaussian 09, Revision E.01,
 Gaussian 09:  EM64L-G09RevE.01 30-Nov-2015

 ---------------------------------------------
 #p b3lyp/6-311++G(3df,2p) freq symmetry=Loose
 ---------------------------------------------

 ---------
 b3lyp opt
 ---------
 Symbolic Z-matrix:
 Charge =  2 Multiplicity = 2

                         Standard orientation:
 ---------------------------------------------------------------------
 Center     Atomic      Atomic             Coordinates (Angstroms)
 Number     Number       Type             X           Y           Z
 ---------------------------------------------------------------------
      1          6           0        0.657968   -0.964654    0.000000
      2          1           0        1.682199   -1.356851    0.000000
      3          6           0       -0.656327   -0.965665    0.000000
      4          1           0       -1.680285   -1.358544    0.000000
      5          6           0        0.000000    0.317120    0.000000
      6          6           0       -0.001480    1.613659    0.000000
      7          1           0       -0.002876    2.712634    0.000000
 ---------------------------------------------------------------------

 SCF Done:  E(UB3LYP) =  -153.208803795     A.U. after   14 cycles

 The electronic state is 2-A".
 Alpha  occ. eigenvalues --  -10.83339 -10.77954 -10.77856 -10.77848  -1.47206
 Alpha  occ. eigenvalues --   -1.30880  -1.09450  -1.07133  -1.03527  -0.93802
 Alpha  occ. eigenvalues --   -0.93665  -0.88755  -0.80450
 Alpha virt. eigenvalues --   -0.64738  -0.52677  -0.48910  -0.37109  -0.33752
 Alpha virt. eigenvalues --   -0.33711  -0.30752  -0.30021  -0.29449  -0.27029
 Alpha virt. eigenvalues --   -0.23829  -0.23744  -0.21842  -0.21680  -0.20376

  Beta  occ. eigenvalues --  -10.82054 -10.77959 -10.77676 -10.77584  -1.46581
  Beta  occ. eigenvalues --   -1.27685  -1.09097  -1.05926  -1.03184  -0.93410
  Beta  occ. eigenvalues --   -0.90531  -0.88509
  Beta virt. eigenvalues --   -0.67928  -0.63178  -0.50584  -0.45028  -0.35918
  Beta virt. eigenvalues --   -0.33521  -0.33430  -0.30610  -0.29850  -0.29290
  Beta virt. eigenvalues --   -0.26456  -0.23592  -0.23427  -0.21213  -0.21118

 Mulliken charges and spin densities:
               1          2
     1  C    0.204550   0.188696
     2  H    0.394582  -0.007191
     3  C    0.203552   0.188678
     4  H    0.394588  -0.007186
     5  C    0.057125   0.006619
     6  C    0.277702   0.649778
     7  H    0.467901  -0.019395
 Sum of Mulliken charges =   2.00000   1.00000

 Dipole moment (field-independent basis, Debye):
    X=             -0.0029    Y=              1.7549    Z=              0.0000  Tot=              1.7549
 Quadrupole moment (field-independent basis, Debye-Ang):
   XX=             -9.0719   YY=              6.6239   ZZ=            -19.1391
   XY=             -0.0179   XZ=              0.0000   YZ=              0.0000

  Exact polarizability:  27.992  -0.022  50.786  -0.000  -0.000  18.604
 Approx polarizability:  44.086  -0.047 100.621  -0.000  -0.000  26.760

                      1                      2                      3
                     A'                     A"                     A"
 Frequencies --    223.1498               379.9732               472.3063
 Red. masses --      2.5699                 2.4962                 1.5977
 Frc consts  --      0.0754                 0.2123                 0.2100
 IR Inten    --     32.3727                42.7168                15.3105

                      4                      5                      6
                     A'                     A"                     A"
 Frequencies --    766.9681               807.4084               817.0641
 Red. masses --      4.1007                 1.1990                 1.4929
 Frc consts  --      1.4212                 0.4605                 0.5872
 IR Inten    --     72.4878                62.2958                 0.0007

                      7                      8                      9
                     A'                     A'                     A'
 Frequencies --    853.8203               921.8358               950.0107
 Red. masses --      2.9469                 1.4054                 1.4648
 Frc consts  --      1.2658                 0.7036                 0.7789
 IR Inten    --      8.3009                 1.4013                 8.7683

                     10                     11                     12
                     A'                     A'                     A'
 Frequencies --   1018.6646              1423.4104              1714.4955
 Red. masses --      1.4898                 5.5048                 5.0746
 Frc consts  --      0.9108                 6.5713                 8.7888
 IR Inten    --      0.4510               128.5190               291.2506

                     13                     14                     15
                     A'                     A'                     A'
 Frequencies --   3066.6737              3094.3835              3126.1188
 Red. masses --      1.0916                 1.1296                 1.1655
 Frc consts  --      6.0484                 6.3727                 6.7110
 IR Inten    --    434.4215               406.5577               129.5086

 - Thermochemistry -
 -------------------
 Temperature   298.150 Kelvin.  Pressure   1.00000 Atm.
 Atom     1 has atomic number  6 and mass  12.00000

 Molecular mass:    51.02348 amu.
 Principal axes and moments of inertia in atomic units:
                           1         2         3
     Eigenvalues --    57.35709 235.48273 292.83982
           X           -0.00095   1.00000   0.00000
           Y            1.00000   0.00095   0.00000
           Z           -0.00000   0.00000   1.00000
 This molecule is an asymmetric top.
 Rotational symmetry number  1.
 Rotational temperatures (Kelvin)      1.51008     0.36781     0.29577
 Rotational constants (GHZ):          31.46501     7.66401     6.16290
 Zero-point vibrational energy     117451.1 (Joules/Mol)
                                   28.07148 (Kcal/Mol)
 Warning -- explicit consideration of   3 degrees of freedom as
           vibrations may cause significant error
 Vibrational temperatures:    321.06   546.70   679.54  1103.49  1161.68
          (Kelvin)           1175.57  1228.46  1326.31  1366.85  1465.63
                             2047.97  2466.77  4412.25  4452.12  4497.78

 Zero-point correction=                           0.044735 (Hartree/Particle)
 Thermal correction to Energy=                    0.049107
 Thermal correction to Enthalpy=                  0.050052
 Thermal correction to Gibbs Free Energy=         0.018294
 Sum of electronic and zero-point Energies=           -153.164069
 Sum of electronic and thermal Energies=              -153.159696
 Sum of electronic and thermal Enthalpies=            -153.158752
 Sum of electronic and thermal Free Energies=         -153.190509

                     E (Thermal)             CV                S
                      KCal/Mol        Cal/Mol-Kelvin    Cal/Mol-Kelvin
 Total                   30.815             14.522             66.839
 Electronic               0.000              0.000              1.377
 Translational            0.889              2.981             37.712
 Rotational               0.889              2.981             22.896
 Vibrational             29.038              8.561              4.853
 Vibration     1          0.649              1.806              1.933
 Vibration     2          0.750              1.513              1.039
 Vibration     3          0.829              1.311              0.731

 Optimization completed.
    -- Stationary point found.
 Normal termination of Gaussian 09 at Sun Jun 19 06:30:59 2016.
