 Gaussian 09, Revision E.01,
 Gaussian 09:  EM64L-G09RevE.01 30-Nov-2015

 ---------------------------------------------
 #p b3lyp/6-311++G(3df,2p) freq symmetry=Loose
 ---------------------------------------------

 ---------
 b3lyp opt
 ---------
 Symbolic Z-matrix:
 Charge =  3 Multiplicity = 3

                         Standard orientation:
 ---------------------------------------------------------------------
 Center     Atomic      Atomic             Coordinates (Angstroms)
 Number     Number       Type             X           Y           Z
 ---------------------------------------------------------------------
      1          6           0        1.696955    0.113181   -0.001191
      2          1           0        2.190821    1.126275   -0.004314
      3          1           0        2.392186   -0.791234    0.549415
      4          1           0        2.371433   -0.809570   -0.544044
      5          6           0        0.344615   -0.009734    0.000707
      6          6           0       -0.951557   -0.014877    0.000017
      7          6           0       -2.249085   -0.009482    0.000291
 ---------------------------------------------------------------------

 SCF Done:  E(UB3LYP) =  -152.212974210     A.U. after   18 cycles

 The electronic state is 3-A.
 Alpha  occ. eigenvalues --  -11.15470 -11.07248 -11.03232 -11.02492  -1.61430
 Alpha  occ. eigenvalues --   -1.56587  -1.46442  -1.31900  -1.20679  -1.17546
 Alpha  occ. eigenvalues --   -1.14855  -1.10784  -1.07907
 Alpha virt. eigenvalues --   -0.91003  -0.88551  -0.69702  -0.68550  -0.62812
 Alpha virt. eigenvalues --   -0.56428  -0.53957  -0.50959  -0.47626  -0.45809
 Alpha virt. eigenvalues --   -0.42700  -0.42490  -0.41054  -0.38240  -0.36920

  Beta  occ. eigenvalues --  -11.11888 -11.07890 -11.02645 -11.01718  -1.60418
  Beta  occ. eigenvalues --   -1.52867  -1.44499  -1.31070  -1.20650  -1.11865
  Beta  occ. eigenvalues --   -1.09210
  Beta virt. eigenvalues --   -0.95597  -0.91329  -0.88595  -0.83031  -0.66956
  Beta virt. eigenvalues --   -0.63712  -0.61660  -0.53657  -0.53358  -0.50923
  Beta virt. eigenvalues --   -0.47283  -0.45334  -0.42204  -0.42009  -0.41141

 Mulliken charges and spin densities:
               1          2
     1  C    0.096492   0.377692
     2  H    0.393486  -0.021601
     3  H    0.354551   0.044921
     4  H    0.352029   0.043824
     5  C    0.292537  -0.171651
     6  C    0.841501   0.257823
     7  C    0.669405   1.468992
 Sum of Mulliken charges =   3.00000   2.00000

 Dipole moment (field-independent basis, Debye):
    X=              3.0814    Y=             -1.4317    Z=              0.0090  Tot=              3.3977
 Quadrupole moment (field-independent basis, Debye-Ang):
   XX=             42.9464   YY=            -12.3606   ZZ=            -15.9406
   XY=             -3.7876   XZ=              0.0468   YZ=              0.0029

  Exact polarizability:  80.825  -1.348  21.017   0.017   0.008  18.458
 Approx polarizability: 192.644  -1.676  29.133   0.022   0.021  25.853

                      1                      2                      3
                      A                      A                      A
 Frequencies --    215.2464               215.8012               298.3062
 Red. masses --      4.0444                 3.1889                 1.2397
 Frc consts  --      0.1104                 0.0875                 0.0650
 IR Inten    --     47.0225                40.9557                 3.6057

                      4                      5                      6
                      A                      A                      A
 Frequencies --    432.3597               523.9041               773.4286
 Red. masses --      3.0892                 4.6907                 1.5026
 Frc consts  --      0.3402                 0.7586                 0.5296
 IR Inten    --     14.1489                 7.4261               127.1754

                      7                      8                      9
                      A                      A                      A
 Frequencies --    795.0649               846.4375              1080.7988
 Red. masses --      2.1664                 3.1669                 1.2367
 Frc consts  --      0.8068                 1.3368                 0.8512
 IR Inten    --     32.5843                 7.4774               607.9575

                     10                     11                     12
                      A                      A                      A
 Frequencies --   1315.3042              1401.8739              1596.3737
 Red. masses --      1.1291                 6.3676                 1.0256
 Frc consts  --      1.1509                 7.3730                 1.5399
 IR Inten    --     22.5013                58.8456               330.5040

                     13                     14                     15
                      A                      A                      A
 Frequencies --   1960.1459              2088.4659              2740.3704
 Red. masses --     10.8440                 1.0981                 1.0874
 Frc consts  --     24.5480                 2.8218                 4.8112
 IR Inten    --    480.2340               924.8619               621.0120

 - Thermochemistry -
 -------------------
 Temperature   298.150 Kelvin.  Pressure   1.00000 Atm.
 Atom     1 has atomic number  6 and mass  12.00000

 Molecular mass:    51.02348 amu.
 Principal axes and moments of inertia in atomic units:
                           1         2         3
     Eigenvalues --    11.82180 441.04485 448.56309
           X            0.99993  -0.01163   0.00012
           Y            0.01163   0.99993   0.00033
           Z           -0.00012  -0.00032   1.00000
 This molecule is an asymmetric top.
 Rotational symmetry number  1.
 Rotational temperatures (Kelvin)      7.32662     0.19638     0.19309
 Rotational constants (GHZ):         152.66213     4.09197     4.02338
 Zero-point vibrational energy      97399.2 (Joules/Mol)
                                   23.27898 (Kcal/Mol)
 Warning -- explicit consideration of   5 degrees of freedom as
           vibrations may cause significant error
 Vibrational temperatures:    309.69   310.49   429.20   622.07   753.78
          (Kelvin)           1112.79  1143.92  1217.83  1555.03  1892.43
                             2016.98  2296.82  2820.21  3004.83  3942.78

 Zero-point correction=                           0.037097 (Hartree/Particle)
 Thermal correction to Energy=                    0.042194
 Thermal correction to Enthalpy=                  0.043138
 Thermal correction to Gibbs Free Energy=         0.009937
 Sum of electronic and zero-point Energies=           -152.175877
 Sum of electronic and thermal Energies=              -152.170781
 Sum of electronic and thermal Enthalpies=            -152.169837
 Sum of electronic and thermal Free Energies=         -152.203037

                     E (Thermal)             CV                S
                      KCal/Mol        Cal/Mol-Kelvin    Cal/Mol-Kelvin
 Total                   26.477             16.421             69.876
 Electronic               0.000              0.000              2.183
 Translational            0.889              2.981             37.712
 Rotational               0.889              2.981             22.374
 Vibrational             24.699             10.459              7.606
 Vibration     1          0.645              1.818              1.999
 Vibration     2          0.645              1.817              1.994
 Vibration     3          0.691              1.677              1.426
 Vibration     4          0.793              1.400              0.851
 Vibration     5          0.879              1.197              0.601

 Normal termination of Gaussian 09 at Sun Jun 19 06:59:27 2016.
