 Gaussian 09, Revision E.01,
 Gaussian 09:  EM64L-G09RevE.01 30-Nov-2015

 ---------------------------------------------
 #p b3lyp/6-311++G(3df,2p) freq symmetry=Loose
 ---------------------------------------------

 ---------
 b3lyp opt
 ---------
 Symbolic Z-matrix:
 Charge =  3 Multiplicity = 1

                         Standard orientation:
 ---------------------------------------------------------------------
 Center     Atomic      Atomic             Coordinates (Angstroms)
 Number     Number       Type             X           Y           Z
 ---------------------------------------------------------------------
      1          6           0       -0.182124   -0.190630   -0.000000
      2          1           0       -1.353608   -0.351709   -0.000000
      3          6           0        0.196657   -0.874644   -1.355790
      4          6           0        0.196657   -0.874644    1.355790
      5          6           0       -0.000000    1.358512    0.000000
      6          1           0        0.043477    1.920086   -0.965143
      7          1           0        0.043477    1.920086    0.965143
 ---------------------------------------------------------------------

 SCF Done:  E(RB3LYP) =  -152.095971867     A.U. after   12 cycles

 The electronic state is 1-A'.
 Alpha  occ. eigenvalues --  -11.18400 -11.18399 -11.07608 -11.02613  -1.62161
 Alpha  occ. eigenvalues --   -1.44364  -1.43205  -1.26911  -1.21192  -1.18761
 Alpha  occ. eigenvalues --   -1.11179  -1.07369
 Alpha virt. eigenvalues --   -0.92907  -0.91347  -0.89785  -0.89558  -0.87568
 Alpha virt. eigenvalues --   -0.60015  -0.58276  -0.56744  -0.54693  -0.52736
 Alpha virt. eigenvalues --   -0.47372  -0.46201  -0.44550  -0.41838  -0.40919

 Mulliken charges:
               1
     1  C    0.314114
     2  H    0.369999
     3  C    0.720116
     4  C    0.720116
     5  C    0.175895
     6  H    0.349880
     7  H    0.349880
 Sum of Mulliken charges =   3.00000

 Dipole moment (field-independent basis, Debye):
    X=             -0.7056    Y=              1.0344    Z=              0.0000  Tot=              1.2522
 Quadrupole moment (field-independent basis, Debye-Ang):
   XX=            -12.8919   YY=              3.7893   ZZ=             -3.1763
   XY=              0.0689   XZ=             -0.0000   YZ=              0.0000

  Exact polarizability:  24.307  -0.203  36.574   0.000  -0.000  42.845
 Approx polarizability:  41.075  -0.784  57.957  -0.000   0.000  93.480

                      1                      2                      3
                     A"                     A"                     A'
 Frequencies --    138.9220               273.8195               333.9782
 Red. masses --      1.1709                 3.1438                 7.9983
 Frc consts  --      0.0133                 0.1389                 0.5256
 IR Inten    --      4.6541                 7.7554                15.7742

                      4                      5                      6
                     A'                     A'                     A"
 Frequencies --    435.1174               677.6563               681.0772
 Red. masses --      5.8724                 7.2032                 2.1493
 Frc consts  --      0.6551                 1.9489                 0.5874
 IR Inten    --      2.9904                73.6251               261.4957

                      7                      8                      9
                     A'                     A"                     A'
 Frequencies --    742.7837               881.9907               935.0499
 Red. masses --      2.0039                 1.2220                 1.8373
 Frc consts  --      0.6514                 0.5601                 0.9465
 IR Inten    --     43.4284               160.6771               177.7938

                     10                     11                     12
                     A"                     A'                     A'
 Frequencies --   1025.0682              1215.4608              1396.5083
 Red. masses --      1.7318                 1.3819                 1.0809
 Frc consts  --      1.0721                 1.2029                 1.2420
 IR Inten    --    258.5479                20.5594                31.9027

                     13                     14                     15
                     A'                     A'                     A"
 Frequencies --   2274.6772              2817.7625              2942.6843
 Red. masses --      1.0743                 1.0486                 1.1339
 Frc consts  --      3.2751                 4.9054                 5.7853
 IR Inten    --    473.4800               266.5286               261.1055

 - Thermochemistry -
 -------------------
 Temperature   298.150 Kelvin.  Pressure   1.00000 Atm.
 Atom     1 has atomic number  6 and mass  12.00000

 Molecular mass:    51.02348 amu.
 Principal axes and moments of inertia in atomic units:
                           1         2         3
     Eigenvalues --   174.78022 183.58642 337.29825
           X           -0.06558  -0.00000   0.99785
           Y            0.99785   0.00000   0.06558
           Z           -0.00000   1.00000   0.00000
 This molecule is an asymmetric top.
 Rotational symmetry number  1.
 Rotational temperatures (Kelvin)      0.49556     0.47179     0.25679
 Rotational constants (GHZ):          10.32577     9.83047     5.35058
 Zero-point vibrational energy     100322.2 (Joules/Mol)
                                   23.97757 (Kcal/Mol)
 Warning -- explicit consideration of   4 degrees of freedom as
           vibrations may cause significant error
 Vibrational temperatures:    199.88   393.96   480.52   626.04   975.00
          (Kelvin)            979.92  1068.70  1268.99  1345.33  1474.84
                             1748.77  2009.26  3272.75  4054.13  4233.86

 Zero-point correction=                           0.038211 (Hartree/Particle)
 Thermal correction to Energy=                    0.043317
 Thermal correction to Enthalpy=                  0.044261
 Thermal correction to Gibbs Free Energy=         0.011279
 Sum of electronic and zero-point Energies=           -152.057761
 Sum of electronic and thermal Energies=              -152.052655
 Sum of electronic and thermal Enthalpies=            -152.051711
 Sum of electronic and thermal Free Energies=         -152.084693

                     E (Thermal)             CV                S
                      KCal/Mol        Cal/Mol-Kelvin    Cal/Mol-Kelvin
 Total                   27.182             16.724             69.418
 Electronic               0.000              0.000              0.000
 Translational            0.889              2.981             37.712
 Rotational               0.889              2.981             23.896
 Vibrational             25.404             10.762              7.809
 Vibration     1          0.615              1.914              2.819
 Vibration     2          0.676              1.722              1.572
 Vibration     3          0.716              1.608              1.241
 Vibration     4          0.796              1.394              0.842

 Optimization completed.
    -- Stationary point found.
 Normal termination of Gaussian 09 at Tue Jul 19 13:07:52 2016.
