 Gaussian 09, Revision E.01,
 Gaussian 09:  EM64L-G09RevE.01 30-Nov-2015

 ---------------------------------------------
 #p b3lyp/6-311++G(3df,2p) freq symmetry=Loose
 ---------------------------------------------

 ---------
 b3lyp opt
 ---------
 Symbolic Z-matrix:
 Charge =  3 Multiplicity = 1

                         Standard orientation:
 ---------------------------------------------------------------------
 Center     Atomic      Atomic             Coordinates (Angstroms)
 Number     Number       Type             X           Y           Z
 ---------------------------------------------------------------------
      1          6           0       -0.000000    0.000000   -1.017179
      2          6           0        0.000000   -0.877278    0.067284
      3          1           0       -0.000000   -0.538443   -2.223209
      4          1           0        0.000000    0.538443   -2.223209
      5          6           0        0.000000    0.877278    0.067284
      6          6           0        0.000000   -0.000000    1.230092
      7          1           0        0.000000   -0.000000    2.361538
 ---------------------------------------------------------------------

 SCF Done:  E(RB3LYP) =  -152.174530747     A.U. after   10 cycles

 The electronic state is 1-A1.
 Alpha  occ. eigenvalues --  -11.15464 -11.12759 -11.11327 -11.11321  -1.80365
 Alpha  occ. eigenvalues --   -1.55096  -1.41380  -1.40154  -1.25794  -1.25621
 Alpha  occ. eigenvalues --   -1.21700  -1.07791
 Alpha virt. eigenvalues --   -0.95940  -0.88009  -0.87798  -0.78080  -0.77757
 Alpha virt. eigenvalues --   -0.73209  -0.56854  -0.56383  -0.53178  -0.50361
 Alpha virt. eigenvalues --   -0.48200  -0.43786  -0.43453  -0.41438  -0.40689

 Mulliken charges:
               1
     1  C   -0.465668
     2  C    1.195005
     3  H    0.429872
     4  H    0.429872
     5  C    1.195005
     6  C   -0.223654
     7  H    0.439568
 Sum of Mulliken charges =   3.00000

 Dipole moment (field-independent basis, Debye):
    X=              0.0000    Y=              0.0000    Z=             -4.4251  Tot=              4.4251
 Quadrupole moment (field-independent basis, Debye-Ang):
   XX=            -16.7314   YY=            -12.6022   ZZ=             22.4387
   XY=              0.0000   XZ=             -0.0000   YZ=             -0.0000

  Exact polarizability:  16.449  -0.000  33.051   0.000  -0.000  40.051
 Approx polarizability:  25.662   0.000 106.192  -0.000   0.000  71.557

                      1                      2                      3
                     A2                     B1                     B2
 Frequencies --    175.8604               357.4994               534.3540
 Red. masses --      1.0370                 2.0265                 2.0647
 Frc consts  --      0.0189                 0.1526                 0.3473
 IR Inten    --      0.0000                96.5237               217.2385

                      4                      5                      6
                     B1                     A1                     B2
 Frequencies --    624.8931               669.5741               750.3022
 Red. masses --      1.8159                 8.9001                 2.2393
 Frc consts  --      0.4178                 2.3509                 0.7427
 IR Inten    --    109.0746                 5.8177                40.0840

                      7                      8                      9
                     B1                     B2                     B2
 Frequencies --    891.5105               995.3593              1062.1975
 Red. masses --      1.5159                 1.1684                 1.1443
 Frc consts  --      0.7099                 0.6821                 0.7607
 IR Inten    --      8.6183                55.3400               212.1006

                     10                     11                     12
                     A1                     B2                     A1
 Frequencies --   1199.5155              1283.5062              1310.3568
 Red. masses --      5.2362                 4.9710                 2.9522
 Frc consts  --      4.4390                 4.8249                 2.9866
 IR Inten    --    141.4472                88.5022               725.5690

                     13                     14                     15
                     A1                     A1                     A1
 Frequencies --   1455.7734              2003.1181              2790.0431
 Red. masses --      1.2377                 1.1908                 1.1324
 Frc consts  --      1.5454                 2.8151                 5.1938
 IR Inten    --     40.5396               604.7202               433.7047

 - Thermochemistry -
 -------------------
 Temperature   298.150 Kelvin.  Pressure   1.00000 Atm.
 Atom     1 has atomic number  6 and mass  12.00000

 Molecular mass:    51.02348 amu.
 Principal axes and moments of inertia in atomic units:
                           1         2         3
     Eigenvalues --    68.04733 164.91641 232.96375
           X           -0.00000   0.00000   1.00000
           Y           -0.00000   1.00000  -0.00000
           Z            1.00000   0.00000   0.00000
 This molecule is an asymmetric top.
 Rotational symmetry number  2.
 Rotational temperatures (Kelvin)      1.27285     0.52520     0.37179
 Rotational constants (GHZ):          26.52185    10.94337     7.74688
 Zero-point vibrational energy      96322.5 (Joules/Mol)
                                   23.02163 (Kcal/Mol)
 Warning -- explicit consideration of   3 degrees of freedom as
           vibrations may cause significant error
 Vibrational temperatures:    253.02   514.36   768.82   899.08   963.37
          (Kelvin)           1079.52  1282.68  1432.10  1528.26  1725.83
                             1846.68  1885.31  2094.53  2882.04  4014.24

 Zero-point correction=                           0.036687 (Hartree/Particle)
 Thermal correction to Energy=                    0.041207
 Thermal correction to Enthalpy=                  0.042151
 Thermal correction to Gibbs Free Energy=         0.011585
 Sum of electronic and zero-point Energies=           -152.137843
 Sum of electronic and thermal Energies=              -152.133324
 Sum of electronic and thermal Enthalpies=            -152.132380
 Sum of electronic and thermal Free Energies=         -152.162946

                     E (Thermal)             CV                S
                      KCal/Mol        Cal/Mol-Kelvin    Cal/Mol-Kelvin
 Total                   25.858             14.984             64.332
 Electronic               0.000              0.000              0.000
 Translational            0.889              2.981             37.712
 Rotational               0.889              2.981             21.107
 Vibrational             24.080              9.022              5.512
 Vibration     1          0.628              1.872              2.372
 Vibration     2          0.733              1.560              1.133
 Vibration     3          0.889              1.174              0.578

 Optimization completed.
    -- Stationary point found.
 Normal termination of Gaussian 09 at Tue Jul 19 12:44:48 2016.
