 Gaussian 09, Revision E.01,
 Gaussian 09:  EM64L-G09RevE.01 30-Nov-2015

 ---------------------------------------------
 #p b3lyp/6-311++G(3df,2p) freq symmetry=Loose
 ---------------------------------------------

 ---------
 b3lyp opt
 ---------
 Symbolic Z-matrix:
 Charge =  2 Multiplicity = 4

                         Standard orientation:
 ---------------------------------------------------------------------
 Center     Atomic      Atomic             Coordinates (Angstroms)
 Number     Number       Type             X           Y           Z
 ---------------------------------------------------------------------
      1          6           0        1.403379    0.909189    0.000000
      2          1           0        2.129622    0.096212    0.000000
      3          1           0        1.751294    1.943359    0.000000
      4          6           0        0.000000    0.663405    0.000000
      5          1           0       -0.712527    1.518879    0.000000
      6          6           0       -0.622526   -0.537108    0.000000
      7          6           0       -1.308918   -1.628561    0.000000
 ---------------------------------------------------------------------

 SCF Done:  E(UB3LYP) =  -153.095138926     A.U. after   15 cycles

 The electronic state is 4-A".
 Alpha  occ. eigenvalues --  -10.86768 -10.81170 -10.74870 -10.74378  -1.38172
 Alpha  occ. eigenvalues --   -1.30437  -1.16784  -1.01909  -0.96657  -0.94397
 Alpha  occ. eigenvalues --   -0.90106  -0.88975  -0.86279  -0.79424
 Alpha virt. eigenvalues --   -0.59288  -0.55281  -0.43683  -0.35255  -0.32008
 Alpha virt. eigenvalues --   -0.29928  -0.27616  -0.26322  -0.24902  -0.24221
 Alpha virt. eigenvalues --   -0.22894  -0.22148  -0.20941  -0.20229  -0.19714

  Beta  occ. eigenvalues --  -10.82781 -10.80572 -10.74311 -10.73808  -1.34204
  Beta  occ. eigenvalues --   -1.25280  -1.14610  -1.00118  -0.94666  -0.87922
  Beta  occ. eigenvalues --   -0.85871
  Beta virt. eigenvalues --   -0.71428  -0.68390  -0.67307  -0.52888  -0.46045
  Beta virt. eigenvalues --   -0.38825  -0.34351  -0.31443  -0.29164  -0.26415
  Beta virt. eigenvalues --   -0.25830  -0.23879  -0.23565  -0.21980  -0.21586

 Mulliken charges and spin densities:
               1          2
     1  C   -0.117278   0.357780
     2  H    0.278535  -0.005916
     3  H    0.303718  -0.006485
     4  C    0.105988   0.401459
     5  H    0.266835   0.035225
     6  C    0.695733   0.447788
     7  C    0.466468   1.770149
 Sum of Mulliken charges =   2.00000   3.00000

 Dipole moment (field-independent basis, Debye):
    X=             -0.2748    Y=             -0.5384    Z=              0.0000  Tot=              0.6045
 Quadrupole moment (field-independent basis, Debye-Ang):
   XX=             -0.7069   YY=             -0.0879   ZZ=            -19.4968
   XY=             12.0526   XZ=             -0.0000   YZ=             -0.0000

  Exact polarizability:  47.010  20.116  48.041  -0.000  -0.000  19.870
 Approx polarizability:  74.961  40.786  86.986  -0.000  -0.000  27.443

                      1                      2                      3
                     A'                     A"                     A"
 Frequencies --    203.8707               222.2096               438.0812
 Red. masses --      4.1714                 1.5117                 2.5067
 Frc consts  --      0.1021                 0.0440                 0.2834
 IR Inten    --      4.4250                 5.3395                 6.1267

                      4                      5                      6
                     A'                     A"                     A'
 Frequencies --    557.5794               744.5143               901.9265
 Red. masses --      5.3220                 1.4915                 3.3101
 Frc consts  --      0.9748                 0.4871                 1.5865
 IR Inten    --      8.3488                33.5641                 5.0759

                      7                      8                      9
                     A'                     A"                     A'
 Frequencies --   1016.9371              1114.3674              1193.3779
 Red. masses --      1.3430                 1.3601                 1.4325
 Frc consts  --      0.8183                 0.9951                 1.2020
 IR Inten    --      1.7155                 9.1057                15.0964

                     10                     11                     12
                     A'                     A'                     A'
 Frequencies --   1365.4124              1475.0167              1781.6342
 Red. masses --      3.6110                 1.1895                11.7277
 Frc consts  --      3.9665                 1.5247                21.9331
 IR Inten    --    198.3803                 7.4328                 7.8968

                     13                     14                     15
                     A'                     A'                     A'
 Frequencies --   2855.3160              3075.3224              3195.4908
 Red. masses --      1.0760                 1.0549                 1.1269
 Frc consts  --      5.1686                 5.8781                 6.7795
 IR Inten    --    280.6743               114.4727                89.8121

 - Thermochemistry -
 -------------------
 Temperature   298.150 Kelvin.  Pressure   1.00000 Atm.
 Atom     1 has atomic number  6 and mass  12.00000

 Molecular mass:    51.02348 amu.
 Principal axes and moments of inertia in atomic units:
                           1         2         3
     Eigenvalues --    33.46811 370.80685 404.27496
           X            0.70874  -0.70547   0.00000
           Y            0.70547   0.70874   0.00000
           Z            0.00000   0.00000   1.00000
 This molecule is an asymmetric top.
 Rotational symmetry number  1.
 Rotational temperatures (Kelvin)      2.58795     0.23358     0.21424
 Rotational constants (GHZ):          53.92421     4.86707     4.46414
 Zero-point vibrational energy     120470.3 (Joules/Mol)
                                   28.79309 (Kcal/Mol)
 Warning -- explicit consideration of   4 degrees of freedom as
           vibrations may cause significant error
 Vibrational temperatures:    293.32   319.71   630.30   802.23  1071.19
          (Kelvin)           1297.67  1463.14  1603.32  1717.00  1964.52
                             2122.22  2563.37  4108.16  4424.70  4597.59

 Zero-point correction=                           0.045885 (Hartree/Particle)
 Thermal correction to Energy=                    0.050498
 Thermal correction to Enthalpy=                  0.051442
 Thermal correction to Gibbs Free Energy=         0.018363
 Sum of electronic and zero-point Energies=           -153.049254
 Sum of electronic and thermal Energies=              -153.044641
 Sum of electronic and thermal Enthalpies=            -153.043697
 Sum of electronic and thermal Free Energies=         -153.076776

                     E (Thermal)             CV                S
                      KCal/Mol        Cal/Mol-Kelvin    Cal/Mol-Kelvin
 Total                   31.688             14.422             69.622
 Electronic               0.000              0.000              2.755
 Translational            0.889              2.981             37.712
 Rotational               0.889              2.981             23.133
 Vibrational             29.911              8.461              6.022
 Vibration     1          0.640              1.834              2.098
 Vibration     2          0.648              1.807              1.941
 Vibration     3          0.798              1.387              0.833
 Vibration     4          0.913              1.123              0.529

 Optimization completed.
    -- Stationary point found.
 Normal termination of Gaussian 09 at Sun Jun 19 06:38:32 2016.
