 Gaussian 09, Revision E.01,
 Gaussian 09:  EM64L-G09RevE.01 30-Nov-2015

 ---------------------------------------------
 #p b3lyp/6-311++G(3df,2p) freq symmetry=Loose
 ---------------------------------------------

 ---------
 b3lyp opt
 ---------
 Symbolic Z-matrix:
 Charge =  1 Multiplicity = 3

                         Standard orientation:
 ---------------------------------------------------------------------
 Center     Atomic      Atomic             Coordinates (Angstroms)
 Number     Number       Type             X           Y           Z
 ---------------------------------------------------------------------
      1          6           0        0.447483   -0.332796   -0.001554
      2          6           0       -0.787761    0.266172   -0.000839
      3          1           0       -0.912646    1.372646   -0.001557
      4          6           0       -2.040312   -0.234902    0.001307
      5          6           0        1.763012    0.018844    0.001041
      6          1           0        2.077598    1.063578    0.001915
      7          1           0        2.540516   -0.740135   -0.000083
 ---------------------------------------------------------------------

 SCF Done:  E(UB3LYP) =  -153.681419657     A.U. after   18 cycles

 The electronic state is 3-A.
 Alpha  occ. eigenvalues --  -10.53742 -10.50474 -10.49063 -10.46839  -1.10893
 Alpha  occ. eigenvalues --   -1.03502  -0.89041  -0.77359  -0.74572  -0.70616
 Alpha  occ. eigenvalues --   -0.63169  -0.56323  -0.53660  -0.50545
 Alpha virt. eigenvalues --   -0.36003  -0.33230  -0.19330  -0.16088  -0.14110
 Alpha virt. eigenvalues --   -0.12239  -0.10281  -0.10257  -0.08530  -0.07041
 Alpha virt. eigenvalues --   -0.06132  -0.04784  -0.04318  -0.03561  -0.03127

  Beta  occ. eigenvalues --  -10.53130 -10.48762 -10.48324 -10.46734  -1.08394
  Beta  occ. eigenvalues --   -1.00329  -0.86817  -0.75063  -0.73064  -0.68885
  Beta  occ. eigenvalues --   -0.59123  -0.54935
  Beta virt. eigenvalues --   -0.43436  -0.35095  -0.34268  -0.28359  -0.16219
  Beta virt. eigenvalues --   -0.15730  -0.13704  -0.11784  -0.09863  -0.09812
  Beta virt. eigenvalues --   -0.08342  -0.06640  -0.05671  -0.04374  -0.03418

 Mulliken charges and spin densities:
               1          2
     1  C    0.552992   1.145976
     2  C    0.246395  -0.005669
     3  H    0.202020   0.043510
     4  C   -0.167980   0.389401
     5  C   -0.301514   0.368461
     6  H    0.221161   0.045458
     7  H    0.246925   0.012862
 Sum of Mulliken charges =   1.00000   2.00000

 Dipole moment (field-independent basis, Debye):
    X=              2.4861    Y=              1.4121    Z=             -0.0013  Tot=              2.8592
 Quadrupole moment (field-independent basis, Debye-Ang):
   XX=             -9.3623   YY=            -17.6639   ZZ=            -22.2494
   XY=             -1.5913   XZ=              0.0095   YZ=             -0.0015

  Exact polarizability:  82.267   0.205  33.247   0.012   0.005  26.908
 Approx polarizability: 141.535   2.628  50.688   0.010   0.004  37.731

                      1                      2                      3
                      A                      A                      A
 Frequencies --    137.5179               142.8800               314.5209
 Red. masses --      6.4981                 4.5040                 2.6838
 Frc consts  --      0.0724                 0.0542                 0.1564
 IR Inten    --      7.2073                 0.0061                 6.4362

                      4                      5                      6
                      A                      A                      A
 Frequencies --    497.1417               670.4553               890.5662
 Red. masses --      1.3011                 1.5336                 2.2672
 Frc consts  --      0.1895                 0.4062                 1.0594
 IR Inten    --      6.6442                 4.4548                 0.6553

                      7                      8                      9
                      A                      A                      A
 Frequencies --    926.6839              1009.2882              1112.1274
 Red. masses --      1.3089                 1.3681                 1.9928
 Frc consts  --      0.6623                 0.8211                 1.4522
 IR Inten    --      0.5818                23.6300                12.2578

                     10                     11                     12
                      A                      A                      A
 Frequencies --   1383.1100              1459.0643              1685.1913
 Red. masses --      2.7407                 1.4941                10.5234
 Frc consts  --      3.0890                 1.8740                17.6078
 IR Inten    --    238.9081                30.8319               107.7748

                     13                     14                     15
                      A                      A                      A
 Frequencies --   2882.1596              3065.8270              3180.2550
 Red. masses --      1.0774                 1.0560                 1.1130
 Frc consts  --      5.2729                 5.8480                 6.6327
 IR Inten    --     87.2891                35.8401                32.8182

 - Thermochemistry -
 -------------------
 Temperature   298.150 Kelvin.  Pressure   1.00000 Atm.
 Atom     1 has atomic number  6 and mass  12.00000

 Molecular mass:    51.02348 amu.
 Principal axes and moments of inertia in atomic units:
                           1         2         3
     Eigenvalues --    22.76569 387.59768 410.36282
           X            0.99997  -0.00778   0.00005
           Y            0.00778   0.99997  -0.00001
           Z           -0.00005   0.00001   1.00000
 This molecule is an asymmetric top.
 Rotational symmetry number  1.
 Rotational temperatures (Kelvin)      3.80458     0.22346     0.21107
 Rotational constants (GHZ):          79.27463     4.65622     4.39792
 Zero-point vibrational energy     115779.3 (Joules/Mol)
                                   27.67192 (Kcal/Mol)
 Warning -- explicit consideration of   4 degrees of freedom as
           vibrations may cause significant error
 Vibrational temperatures:    197.86   205.57   452.52   715.28   964.63
          (Kelvin)           1281.32  1333.29  1452.14  1600.10  1989.98
                             2099.27  2424.61  4146.78  4411.04  4575.67

 Zero-point correction=                           0.044098 (Hartree/Particle)
 Thermal correction to Energy=                    0.049185
 Thermal correction to Enthalpy=                  0.050130
 Thermal correction to Gibbs Free Energy=         0.016342
 Sum of electronic and zero-point Energies=           -153.637322
 Sum of electronic and thermal Energies=              -153.632234
 Sum of electronic and thermal Enthalpies=            -153.631290
 Sum of electronic and thermal Free Energies=         -153.665078

                     E (Thermal)             CV                S
                      KCal/Mol        Cal/Mol-Kelvin    Cal/Mol-Kelvin
 Total                   30.864             15.429             71.113
 Electronic               0.000              0.000              2.183
 Translational            0.889              2.981             37.712
 Rotational               0.889              2.981             22.809
 Vibrational             29.087              9.468              8.409
 Vibration     1          0.614              1.916              2.838
 Vibration     2          0.616              1.910              2.765
 Vibration     3          0.702              1.646              1.338
 Vibration     4          0.853              1.256              0.665

 Normal termination of Gaussian 09 at Sun Jun 19 06:11:11 2016.
