 Gaussian 09, Revision E.01,
 Gaussian 09:  EM64L-G09RevE.01 30-Nov-2015

 ---------------------------------------------
 #p b3lyp/6-311++G(3df,2p) freq symmetry=Loose
 ---------------------------------------------

 ---------
 b3lyp opt
 ---------
 Symbolic Z-matrix:
 Charge =  2 Multiplicity = 4

                         Standard orientation:
 ---------------------------------------------------------------------
 Center     Atomic      Atomic             Coordinates (Angstroms)
 Number     Number       Type             X           Y           Z
 ---------------------------------------------------------------------
      1          6           0       -0.452316    1.839038    0.000000
      2          1           0       -0.842862    2.863232    0.000000
      3          6           0       -0.000000    0.644828    0.000000
      4          6           0        0.548911   -0.607185   -0.000000
      5          1           0        1.663311   -0.651948   -0.000000
      6          6           0       -0.223319   -1.769763   -0.000000
      7          1           0       -0.060102   -2.852794   -0.000000
 ---------------------------------------------------------------------

 SCF Done:  E(UB3LYP) =  -153.132297640     A.U. after   15 cycles

 The electronic state is 4-A".
 Alpha  occ. eigenvalues --  -10.80947 -10.79582 -10.76091 -10.75260  -1.37357
 Alpha  occ. eigenvalues --   -1.30138  -1.15350  -1.04738  -1.00044  -0.96944
 Alpha  occ. eigenvalues --   -0.89209  -0.86004  -0.79014  -0.75204
 Alpha virt. eigenvalues --   -0.58046  -0.53753  -0.43022  -0.36244  -0.33481
 Alpha virt. eigenvalues --   -0.30339  -0.28930  -0.26797  -0.25990  -0.24865
 Alpha virt. eigenvalues --   -0.22834  -0.21853  -0.20724  -0.19644  -0.19518

  Beta  occ. eigenvalues --  -10.79388 -10.78999 -10.74775 -10.73760  -1.33580
  Beta  occ. eigenvalues --   -1.25060  -1.11341  -1.02853  -0.96878  -0.94505
  Beta  occ. eigenvalues --   -0.85312
  Beta virt. eigenvalues --   -0.71600  -0.67289  -0.55904  -0.51866  -0.47103
  Beta virt. eigenvalues --   -0.39090  -0.34140  -0.32443  -0.29367  -0.27486
  Beta virt. eigenvalues --   -0.26141  -0.25485  -0.23745  -0.22029  -0.21204

 Mulliken charges and spin densities:
               1          2
     1  C    0.629530   0.728055
     2  H    0.465159  -0.025377
     3  C    0.275247   0.336115
     4  C    0.013032   0.517003
     5  H    0.275894   0.069956
     6  C   -0.002335   1.359036
     7  H    0.343473   0.015211
 Sum of Mulliken charges =   2.00000   3.00000

 Dipole moment (field-independent basis, Debye):
    X=             -0.0169    Y=              1.2926    Z=              0.0000  Tot=              1.2928
 Quadrupole moment (field-independent basis, Debye-Ang):
   XX=            -13.4856   YY=             17.7253   ZZ=            -19.5943
   XY=             -6.2424   XZ=             -0.0000   YZ=              0.0000

  Exact polarizability:  27.746  -6.571  69.925   0.000   0.000  20.204
 Approx polarizability:  42.270 -13.363 115.444  -0.000   0.000  28.033

                      1                      2                      3
                     A'                     A"                     A'
 Frequencies --    203.8076               300.7532               527.9153
 Red. masses --      3.3482                 2.4793                 3.1037
 Frc consts  --      0.0819                 0.1321                 0.5096
 IR Inten    --     12.3353                43.8160                 1.5572

                      4                      5                      6
                     A"                     A"                     A'
 Frequencies --    629.7193               673.3568               704.0284
 Red. masses --      1.4784                 1.3051                 1.3674
 Frc consts  --      0.3454                 0.3486                 0.3993
 IR Inten    --     21.3188                30.1623                24.0121

                      7                      8                      9
                     A'                     A"                     A'
 Frequencies --    768.1919               893.2240               969.7393
 Red. masses --      1.4315                 1.4252                 3.3848
 Frc consts  --      0.4977                 0.6700                 1.8754
 IR Inten    --     22.8851                 3.9441                 0.7226

                     10                     11                     12
                     A'                     A'                     A'
 Frequencies --   1166.7751              1390.5489              1821.4176
 Red. masses --      1.4225                 5.0310                 6.9987
 Frc consts  --      1.1410                 5.7316                13.6801
 IR Inten    --      2.9618               227.8254               113.9995

                     13                     14                     15
                     A'                     A'                     A'
 Frequencies --   2833.8611              3102.9991              3126.9762
 Red. masses --      1.0789                 1.1026                 1.1419
 Frc consts  --      5.1051                 6.2553                 6.5783
 IR Inten    --    263.8583               342.1526               350.6341

 - Thermochemistry -
 -------------------
 Temperature   298.150 Kelvin.  Pressure   1.00000 Atm.
 Atom     1 has atomic number  6 and mass  12.00000

 Molecular mass:    51.02348 amu.
 Principal axes and moments of inertia in atomic units:
                           1         2         3
     Eigenvalues --    30.41168 378.95331 409.36499
           X           -0.13001   0.99151   0.00000
           Y            0.99151   0.13001   0.00000
           Z            0.00000   0.00000   1.00000
 This molecule is an asymmetric top.
 Rotational symmetry number  1.
 Rotational temperatures (Kelvin)      2.84804     0.22856     0.21158
 Rotational constants (GHZ):          59.34368     4.76244     4.40864
 Zero-point vibrational energy     114323.0 (Joules/Mol)
                                   27.32385 (Kcal/Mol)
 Warning -- explicit consideration of   3 degrees of freedom as
           vibrations may cause significant error
 Vibrational temperatures:    293.23   432.72   759.55   906.02   968.81
          (Kelvin)           1012.94  1105.26  1285.15  1395.24  1678.73
                             2000.69  2620.61  4077.29  4464.52  4499.02

 Zero-point correction=                           0.043543 (Hartree/Particle)
 Thermal correction to Energy=                    0.048146
 Thermal correction to Enthalpy=                  0.049091
 Thermal correction to Gibbs Free Energy=         0.016194
 Sum of electronic and zero-point Energies=           -153.088754
 Sum of electronic and thermal Energies=              -153.084151
 Sum of electronic and thermal Enthalpies=            -153.083207
 Sum of electronic and thermal Free Energies=         -153.116104

                     E (Thermal)             CV                S
                      KCal/Mol        Cal/Mol-Kelvin    Cal/Mol-Kelvin
 Total                   30.212             15.315             69.237
 Electronic               0.000              0.000              2.755
 Translational            0.889              2.981             37.712
 Rotational               0.889              2.981             23.071
 Vibrational             28.435              9.354              5.698
 Vibration     1          0.639              1.834              2.098
 Vibration     2          0.693              1.672              1.413
 Vibration     3          0.883              1.188              0.592

 Optimization completed.
    -- Stationary point found.
 Normal termination of Gaussian 09 at Sun Jun 19 06:38:19 2016.
