 Gaussian 09, Revision E.01,
 Gaussian 09:  EM64L-G09RevE.01 30-Nov-2015

 ---------------------------------------------
 #p b3lyp/6-311++G(3df,2p) freq symmetry=Loose
 ---------------------------------------------

 ---------
 b3lyp opt
 ---------
 Symbolic Z-matrix:
 Charge =  0 Multiplicity = 4

                         Standard orientation:
 ---------------------------------------------------------------------
 Center     Atomic      Atomic             Coordinates (Angstroms)
 Number     Number       Type             X           Y           Z
 ---------------------------------------------------------------------
      1          6           0       -1.079235    0.000204    0.000041
      2          6           0        0.102103    0.986875   -0.000279
      3          1           0       -1.699816   -0.000220    0.895404
      4          1           0       -1.702676   -0.000595   -0.893035
      5          6           0        0.101169   -0.986273   -0.000223
      6          6           0        1.082859   -0.000423   -0.000186
      7          1           0        2.161114   -0.001487    0.001506
 ---------------------------------------------------------------------

 SCF Done:  E(UB3LYP) =  -153.974238129     A.U. after   13 cycles

 The electronic state is 4-A.
 Alpha  occ. eigenvalues --  -10.23138 -10.23124 -10.20245 -10.19669  -0.90508
 Alpha  occ. eigenvalues --   -0.68667  -0.61812  -0.54159  -0.46440  -0.41335
 Alpha  occ. eigenvalues --   -0.39380  -0.37630  -0.32119  -0.22258  -0.20639
 Alpha virt. eigenvalues --   -0.00092  -0.00002   0.01277   0.02813   0.03239
 Alpha virt. eigenvalues --    0.05835   0.07504   0.07707   0.08260   0.09848
 Alpha virt. eigenvalues --    0.10912   0.11107   0.12504   0.13311   0.13860

  Beta  occ. eigenvalues --  -10.20505 -10.20495 -10.19996 -10.19801  -0.87381
  Beta  occ. eigenvalues --   -0.68020  -0.54101  -0.53679  -0.44735  -0.38629
  Beta  occ. eigenvalues --   -0.37183  -0.29696
  Beta virt. eigenvalues --   -0.17959  -0.05458  -0.04869   0.00273   0.01304
  Beta virt. eigenvalues --    0.02286   0.03666   0.04563   0.06357   0.07770
  Beta virt. eigenvalues --    0.08005   0.08112   0.11181   0.11370   0.12276

 Mulliken charges and spin densities:
               1          2
     1  C   -0.454803  -0.059346
     2  C    0.059441   1.740429
     3  H    0.130421   0.006960
     4  H    0.130383   0.006918
     5  C    0.059792   1.739970
     6  C   -0.109327  -0.445920
     7  H    0.184092   0.010989
 Sum of Mulliken charges =  -0.00000   3.00000

 Dipole moment (field-independent basis, Debye):
    X=             -0.0966    Y=             -0.0017    Z=              0.0025  Tot=              0.0966
 Quadrupole moment (field-independent basis, Debye-Ang):
   XX=            -20.2755   YY=            -26.5882   ZZ=            -24.9369
   XY=             -0.0003   XZ=              0.0041   YZ=              0.0004

  Exact polarizability:  49.024   0.001  46.628  -0.003  -0.007  34.785
 Approx polarizability:  69.178   0.020  73.329  -0.005   0.001  47.726

                      1                      2                      3
                      A                      A                      A
 Frequencies --    443.3697               818.7417               863.5100
 Red. masses --      1.7905                 2.9903                 1.5819
 Frc consts  --      0.2074                 1.1810                 0.6950
 IR Inten    --     15.0340                13.7911                37.0354

                      4                      5                      6
                      A                      A                      A
 Frequencies --    880.6669               968.4297               986.7513
 Red. masses --      7.3034                 3.3522                 1.5647
 Frc consts  --      3.3373                 1.8523                 0.8976
 IR Inten    --      3.6935                 7.5544                 9.5653

                      7                      8                      9
                      A                      A                      A
 Frequencies --   1028.7745              1036.3702              1141.7191
 Red. masses --      7.5211                 1.0712                 1.2526
 Frc consts  --      4.6900                 0.6779                 0.9620
 IR Inten    --      0.0051                 0.0004                 3.7144

                     10                     11                     12
                      A                      A                      A
 Frequencies --   1275.1387              1360.0008              1476.0628
 Red. masses --      1.9562                 5.9974                 1.1404
 Frc consts  --      1.8741                 6.5357                 1.4639
 IR Inten    --     17.0672                 3.8412                 1.1238

                     13                     14                     15
                      A                      A                      A
 Frequencies --   3056.1476              3104.7178              3226.1152
 Red. masses --      1.0541                 1.1089                 1.0981
 Frc consts  --      5.8007                 6.2979                 6.7338
 IR Inten    --     17.3289                 5.9495                 0.2631

 - Thermochemistry -
 -------------------
 Temperature   298.150 Kelvin.  Pressure   1.00000 Atm.
 Atom     1 has atomic number  6 and mass  12.00000

 Molecular mass:    51.02348 amu.
 Principal axes and moments of inertia in atomic units:
                           1         2         3
     Eigenvalues --    89.17543 144.33776 222.00166
           X            1.00000  -0.00011   0.00004
           Y            0.00011   1.00000   0.00002
           Z           -0.00004  -0.00002   1.00000
 This molecule is an asymmetric top.
 Rotational symmetry number  1.
 Rotational temperatures (Kelvin)      0.97127     0.60008     0.39015
 Rotational constants (GHZ):          20.23810    12.50360     8.12940
 Zero-point vibrational energy     129594.5 (Joules/Mol)
                                   30.97384 (Kcal/Mol)
 Warning -- explicit consideration of   1 degrees of freedom as
           vibrations may cause significant error
 Vibrational temperatures:    637.91  1177.99  1242.40  1267.08  1393.35
          (Kelvin)           1419.71  1480.18  1491.10  1642.68  1834.64
                             1956.74  2123.72  4397.11  4466.99  4641.65

 Zero-point correction=                           0.049360 (Hartree/Particle)
 Thermal correction to Energy=                    0.052848
 Thermal correction to Enthalpy=                  0.053792
 Thermal correction to Gibbs Free Energy=         0.022981
 Sum of electronic and zero-point Energies=           -153.924878
 Sum of electronic and thermal Energies=              -153.921390
 Sum of electronic and thermal Enthalpies=            -153.920446
 Sum of electronic and thermal Free Energies=         -153.951257

                     E (Thermal)             CV                S
                      KCal/Mol        Cal/Mol-Kelvin    Cal/Mol-Kelvin
 Total                   33.163             11.137             64.847
 Electronic               0.000              0.000              2.755
 Translational            0.889              2.981             37.712
 Rotational               0.889              2.981             22.573
 Vibrational             31.385              5.175              1.807
 Vibration     1          0.803              1.376              0.816

 Normal termination of Gaussian 09 at Sun Jun 19 05:58:28 2016.
