 Gaussian 09, Revision E.01,
 Gaussian 09:  EM64L-G09RevE.01 30-Nov-2015

 ---------------------------------------------
 #p b3lyp/6-311++G(3df,2p) freq symmetry=Loose
 ---------------------------------------------

 ---------
 b3lyp opt
 ---------
 Symbolic Z-matrix:
 Charge =  0 Multiplicity = 4

                         Standard orientation:
 ---------------------------------------------------------------------
 Center     Atomic      Atomic             Coordinates (Angstroms)
 Number     Number       Type             X           Y           Z
 ---------------------------------------------------------------------
      1          6           0       -1.917855   -0.000018    0.021333
      2          1           0       -2.471655    0.928899    0.015061
      3          1           0       -2.472532   -0.928384    0.014895
      4          6           0       -0.514957   -0.000721    0.006488
      5          6           0        0.719385    0.001215   -0.031766
      6          6           0        2.057308   -0.000505   -0.100135
      7          1           0        2.880904   -0.000343    0.594520
 ---------------------------------------------------------------------

 SCF Done:  E(UB3LYP) =  -154.040772908     A.U. after   15 cycles

 The electronic state is 4-A.
 Alpha  occ. eigenvalues --  -10.22361 -10.22001 -10.20838 -10.19827  -0.82341
 Alpha  occ. eigenvalues --   -0.76232  -0.68059  -0.52310  -0.49242  -0.47182
 Alpha  occ. eigenvalues --   -0.38511  -0.35179  -0.30825  -0.21964  -0.19128
 Alpha virt. eigenvalues --   -0.00631   0.00837   0.02454   0.04437   0.05076
 Alpha virt. eigenvalues --    0.05215   0.05582   0.08492   0.09047   0.09625
 Alpha virt. eigenvalues --    0.10818   0.11686   0.12109   0.13047   0.13396

  Beta  occ. eigenvalues --  -10.20809 -10.20012 -10.19971 -10.19761  -0.79293
  Beta  occ. eigenvalues --   -0.72190  -0.64112  -0.50105  -0.47618  -0.45501
  Beta  occ. eigenvalues --   -0.32669  -0.31501
  Beta virt. eigenvalues --   -0.16151  -0.09388  -0.05590  -0.00377   0.01189
  Beta virt. eigenvalues --    0.02646   0.04724   0.05686   0.06355   0.06767
  Beta virt. eigenvalues --    0.08741   0.11044   0.11620   0.11946   0.13060

 Mulliken charges and spin densities:
               1          2
     1  C   -0.639235   0.906954
     2  H    0.186875  -0.004774
     3  H    0.186553  -0.004892
     4  C    0.245197   0.510917
     5  C    0.341060   0.042039
     6  C   -0.529187   1.540075
     7  H    0.208738   0.009681
 Sum of Mulliken charges =  -0.00000   3.00000

 Dipole moment (field-independent basis, Debye):
    X=             -0.9346    Y=              0.0005    Z=              0.5774  Tot=              1.0985
 Quadrupole moment (field-independent basis, Debye-Ang):
   XX=            -18.9890   YY=            -24.3120   ZZ=            -25.4828
   XY=              0.0003   XZ=              1.8620   YZ=              0.0002

  Exact polarizability:  99.740   0.002  33.756  -1.395  -0.000  33.405
 Approx polarizability: 168.172   0.040  45.372  -4.535  -0.002  44.475

                      1                      2                      3
                      A                      A                      A
 Frequencies --    173.2150               212.5530               380.1878
 Red. masses --      3.2274                 3.3562                 3.9498
 Frc consts  --      0.0571                 0.0893                 0.3364
 IR Inten    --      5.0894                 7.5834                 2.1579

                      4                      5                      6
                      A                      A                      A
 Frequencies --    414.2261               464.0166               563.2946
 Red. masses --      7.2403                 1.1598                 1.4780
 Frc consts  --      0.7320                 0.1471                 0.2763
 IR Inten    --      0.0029                24.2051                46.0257

                      7                      8                      9
                      A                      A                      A
 Frequencies --    786.3372               872.7042               999.7430
 Red. masses --      1.6367                 3.5662                 1.3442
 Frc consts  --      0.5963                 1.6002                 0.7916
 IR Inten    --     11.0258                12.9172                 0.2771

                     10                     11                     12
                      A                      A                      A
 Frequencies --   1213.2171              1444.1539              2075.0452
 Red. masses --      6.1217                 1.1372                11.5188
 Frc consts  --      5.3089                 1.3973                29.2222
 IR Inten    --     35.5271                 1.5796                 4.9105

                     13                     14                     15
                      A                      A                      A
 Frequencies --   3128.0049              3220.7019              3226.8199
 Red. masses --      1.0480                 1.1182                 1.0947
 Frc consts  --      6.0417                 6.8341                 6.7160
 IR Inten    --      5.6970                 0.2568                 6.7154

 - Thermochemistry -
 -------------------
 Temperature   298.150 Kelvin.  Pressure   1.00000 Atm.
 Atom     1 has atomic number  6 and mass  12.00000

 Molecular mass:    51.02348 amu.
 Principal axes and moments of inertia in atomic units:
                           1         2         3
     Eigenvalues --     7.87500 447.84244 452.38241
           X            0.99992  -0.00001   0.01286
           Y            0.00001   1.00000  -0.00004
           Z           -0.01286   0.00004   0.99992
 This molecule is an asymmetric top.
 Rotational symmetry number  1.
 Rotational temperatures (Kelvin)     10.99857     0.19340     0.19146
 Rotational constants (GHZ):         229.17339     4.02986     3.98942
 Zero-point vibrational energy     114687.3 (Joules/Mol)
                                   27.41092 (Kcal/Mol)
 Warning -- explicit consideration of   6 degrees of freedom as
           vibrations may cause significant error
 Vibrational temperatures:    249.22   305.82   547.00   595.98   667.62
          (Kelvin)            810.45  1131.36  1255.63  1438.41  1745.55
                             2077.81  2985.52  4500.50  4633.87  4642.67

 Zero-point correction=                           0.043682 (Hartree/Particle)
 Thermal correction to Energy=                    0.048920
 Thermal correction to Enthalpy=                  0.049864
 Thermal correction to Gibbs Free Energy=         0.016306
 Sum of electronic and zero-point Energies=           -153.997091
 Sum of electronic and thermal Energies=              -153.991853
 Sum of electronic and thermal Enthalpies=            -153.990909
 Sum of electronic and thermal Free Energies=         -154.024467

                     E (Thermal)             CV                S
                      KCal/Mol        Cal/Mol-Kelvin    Cal/Mol-Kelvin
 Total                   30.698             16.937             70.628
 Electronic               0.000              0.000              2.755
 Translational            0.889              2.981             37.712
 Rotational               0.889              2.981             21.994
 Vibrational             28.920             10.975              8.167
 Vibration     1          0.627              1.875              2.400
 Vibration     2          0.644              1.822              2.022
 Vibration     3          0.750              1.512              1.038
 Vibration     4          0.778              1.439              0.912
 Vibration     5          0.822              1.330              0.755
 Vibration     6          0.919              1.111              0.517

 Normal termination of Gaussian 09 at Sun Jun 19 05:58:17 2016.
