 Gaussian 09, Revision E.01,
 Gaussian 09:  EM64L-G09RevE.01 30-Nov-2015

 ---------------------------------------------
 #p b3lyp/6-311++G(3df,2p) freq symmetry=Loose
 ---------------------------------------------

 ---------
 b3lyp opt
 ---------
 Symbolic Z-matrix:
 Charge =  0 Multiplicity = 4

                         Standard orientation:
 ---------------------------------------------------------------------
 Center     Atomic      Atomic             Coordinates (Angstroms)
 Number     Number       Type             X           Y           Z
 ---------------------------------------------------------------------
      1          6           0       -1.148013    1.311716    0.000000
      2          1           0       -1.449623    2.347528    0.000000
      3          6           0       -0.000000    0.609667    0.000000
      4          1           0        0.952898    1.143567    0.000000
      5          6           0        0.066169   -0.801522    0.000000
      6          1           0       -0.885282   -1.340989    0.000000
      7          6           0        1.312179   -1.478212    0.000000
 ---------------------------------------------------------------------

 SCF Done:  E(UB3LYP) =  -153.967376238     A.U. after   15 cycles

 The electronic state is 4-A".
 Alpha  occ. eigenvalues --  -10.26306 -10.23630 -10.22454 -10.20517  -0.86181
 Alpha  occ. eigenvalues --   -0.76492  -0.62497  -0.57020  -0.50663  -0.45842
 Alpha  occ. eigenvalues --   -0.38844  -0.30446  -0.28675  -0.28622  -0.20116
 Alpha virt. eigenvalues --   -0.08077  -0.01286   0.00737   0.00810   0.01763
 Alpha virt. eigenvalues --    0.04726   0.06409   0.06579   0.07515   0.08835
 Alpha virt. eigenvalues --    0.09365   0.10268   0.11344   0.11389   0.12544

  Beta  occ. eigenvalues --  -10.24111 -10.23728 -10.21894 -10.18780  -0.83919
  Beta  occ. eigenvalues --   -0.71935  -0.58833  -0.54832  -0.48390  -0.43631
  Beta  occ. eigenvalues --   -0.35439  -0.26010
  Beta virt. eigenvalues --   -0.17587  -0.12994  -0.04563  -0.03708  -0.00990
  Beta virt. eigenvalues --    0.01161   0.01994   0.02828   0.05521   0.06749
  Beta virt. eigenvalues --    0.07512   0.07985   0.09425   0.09600   0.10769

 Mulliken charges and spin densities:
               1          2
     1  C   -0.271426   1.464775
     2  H    0.225278   0.010239
     3  C    0.163586  -0.261591
     4  H    0.170925   0.066441
     5  C    0.187865   0.495567
     6  H    0.146086   0.042930
     7  C   -0.622313   1.181639
 Sum of Mulliken charges =  -0.00000   3.00000

 Dipole moment (field-independent basis, Debye):
    X=             -3.0684    Y=              3.6037    Z=              0.0000  Tot=              4.7330
 Quadrupole moment (field-independent basis, Debye-Ang):
   XX=            -29.4513   YY=            -24.7393   ZZ=            -25.2719
   XY=              4.1632   XZ=              0.0000   YZ=              0.0000

  Exact polarizability:  62.308 -21.180  72.162   0.000   0.000  39.610
 Approx polarizability:  90.572 -34.254 102.177  -0.000  -0.000  50.386

                      1                      2                      3
                     A"                     A'                     A'
 Frequencies --     86.1842               298.6777               495.5169
 Red. masses --      5.2086                 3.5514                 4.6643
 Frc consts  --      0.0228                 0.1867                 0.6748
 IR Inten    --     42.6470                15.2090                 6.0469

                      4                      5                      6
                     A"                     A"                     A'
 Frequencies --    545.2940               722.0244               809.8636
 Red. masses --      1.4820                 1.2155                 1.3477
 Frc consts  --      0.2596                 0.3733                 0.5208
 IR Inten    --    102.3228                 4.4963                15.2747

                      7                      8                      9
                     A"                     A'                     A'
 Frequencies --    927.5701              1119.1723              1216.7828
 Red. masses --      1.2789                 3.0728                 1.6196
 Frc consts  --      0.6483                 2.2677                 1.4128
 IR Inten    --     12.4546                52.6886                 2.9583

                     10                     11                     12
                     A'                     A'                     A'
 Frequencies --   1227.4121              1336.7220              1476.2386
 Red. masses --      1.3500                 5.0255                 3.6121
 Frc consts  --      1.1983                 5.2907                 4.6379
 IR Inten    --     19.9858                65.1202                 3.0792

                     13                     14                     15
                     A'                     A'                     A'
 Frequencies --   3030.1987              3056.8714              3231.1692
 Red. masses --      1.0838                 1.0830                 1.0972
 Frc consts  --      5.8634                 5.9628                 6.7493
 IR Inten    --     17.1636                 1.6879                 2.3641

 - Thermochemistry -
 -------------------
 Temperature   298.150 Kelvin.  Pressure   1.00000 Atm.
 Atom     1 has atomic number  6 and mass  12.00000

 Molecular mass:    51.02348 amu.
 Principal axes and moments of inertia in atomic units:
                           1         2         3
     Eigenvalues --    31.42296 354.06885 385.49181
           X           -0.59061   0.80696   0.00000
           Y            0.80696   0.59061   0.00000
           Z           -0.00000   0.00000   1.00000
 This molecule is an asymmetric top.
 Rotational symmetry number  1.
 Rotational temperatures (Kelvin)      2.75639     0.24462     0.22468
 Rotational constants (GHZ):          57.43384     5.09715     4.68166
 Zero-point vibrational energy     117112.6 (Joules/Mol)
                                   27.99058 (Kcal/Mol)
 Warning -- explicit consideration of   4 degrees of freedom as
           vibrations may cause significant error
 Vibrational temperatures:    124.00   429.73   712.94   784.56  1038.83
          (Kelvin)           1165.21  1334.56  1610.24  1750.68  1765.97
                             1923.24  2123.98  4359.77  4398.15  4648.93

 Zero-point correction=                           0.044606 (Hartree/Particle)
 Thermal correction to Energy=                    0.049339
 Thermal correction to Enthalpy=                  0.050283
 Thermal correction to Gibbs Free Energy=         0.016733
 Sum of electronic and zero-point Energies=           -153.922770
 Sum of electronic and thermal Energies=              -153.918037
 Sum of electronic and thermal Enthalpies=            -153.917093
 Sum of electronic and thermal Free Energies=         -153.950643

                     E (Thermal)             CV                S
                      KCal/Mol        Cal/Mol-Kelvin    Cal/Mol-Kelvin
 Total                   30.961             14.751             70.612
 Electronic               0.000              0.000              2.755
 Translational            0.889              2.981             37.712
 Rotational               0.889              2.981             22.977
 Vibrational             29.183              8.789              7.168
 Vibration     1          0.601              1.959              3.745
 Vibration     2          0.692              1.676              1.424
 Vibration     3          0.851              1.260              0.669
 Vibration     4          0.900              1.150              0.554

 Optimization completed.
    -- Stationary point found.
 Normal termination of Gaussian 09 at Sun Jun 19 05:57:17 2016.
