 Gaussian 09, Revision E.01,
 Gaussian 09:  EM64L-G09RevE.01 30-Nov-2015

 ---------------------------------------------
 #p b3lyp/6-311++G(3df,2p) freq symmetry=Loose
 ---------------------------------------------

 ---------
 b3lyp opt
 ---------
 Symbolic Z-matrix:
 Charge =  2 Multiplicity = 4

                         Standard orientation:
 ---------------------------------------------------------------------
 Center     Atomic      Atomic             Coordinates (Angstroms)
 Number     Number       Type             X           Y           Z
 ---------------------------------------------------------------------
      1          6           0        0.009125   -0.851924    0.000000
      2          1           0       -0.946716   -1.389927   -0.000000
      3          6           0       -0.929284    1.482907   -0.000000
      4          1           0       -1.644252    2.317428   -0.000000
      5          6           0        1.192433   -1.586524    0.000000
      6          6           0       -0.000000    0.600854   -0.000000
      7          1           0        0.957326    1.200621    0.000000
 ---------------------------------------------------------------------

 SCF Done:  E(UB3LYP) =  -153.057776120     A.U. after   19 cycles

 The electronic state is 4-A".
 Alpha  occ. eigenvalues --  -10.81978 -10.79801 -10.77027 -10.73000  -1.36190
 Alpha  occ. eigenvalues --   -1.28986  -1.11518  -1.05539  -1.00744  -0.93997
 Alpha  occ. eigenvalues --   -0.87617  -0.87480  -0.79650  -0.73189
 Alpha virt. eigenvalues --   -0.63346  -0.57503  -0.44946  -0.34936  -0.34023
 Alpha virt. eigenvalues --   -0.31591  -0.28160  -0.27216  -0.26381  -0.23043
 Alpha virt. eigenvalues --   -0.22502  -0.22297  -0.21098  -0.19995  -0.17755

  Beta  occ. eigenvalues --  -10.81309 -10.76203 -10.75558 -10.73044  -1.34470
  Beta  occ. eigenvalues --   -1.23994  -1.08281  -1.02926  -0.99688  -0.91865
  Beta  occ. eigenvalues --   -0.84046
  Beta virt. eigenvalues --   -0.67281  -0.63959  -0.61750  -0.51958  -0.50449
  Beta virt. eigenvalues --   -0.40722  -0.34539  -0.33444  -0.31108  -0.27407
  Beta virt. eigenvalues --   -0.26519  -0.26031  -0.22379  -0.21690  -0.21106

 Mulliken charges and spin densities:
               1          2
     1  C    0.245901   0.437360
     2  H    0.269148   0.034811
     3  C    0.430971   0.393478
     4  H    0.470566  -0.007550
     5  C    0.309779   2.239436
     6  C    0.013431  -0.093172
     7  H    0.260204  -0.004363
 Sum of Mulliken charges =   2.00000   3.00000

 Dipole moment (field-independent basis, Debye):
    X=             -1.1212    Y=              2.0298    Z=             -0.0000  Tot=              2.3189
 Quadrupole moment (field-independent basis, Debye-Ang):
   XX=             -5.7760   YY=              6.0737   ZZ=            -19.7764
   XY=            -11.3666   XZ=              0.0000   YZ=             -0.0000

  Exact polarizability:  39.159 -18.530  57.516   0.000  -0.000  20.407
 Approx polarizability:  72.598 -44.921 105.825   0.000  -0.000  28.602

                      1                      2                      3
                     A"                     A'                     A'
 Frequencies --    161.3979               188.9994               457.0903
 Red. masses --      3.1076                 2.6607                 4.7181
 Frc consts  --      0.0477                 0.0560                 0.5808
 IR Inten    --      4.4529                21.8974                 1.6294

                      4                      5                      6
                     A"                     A"                     A'
 Frequencies --    672.1257               709.3089               806.3291
 Red. masses --      1.2059                 1.4655                 2.0182
 Frc consts  --      0.3210                 0.4344                 0.7731
 IR Inten    --     94.7555                 4.5336                63.2908

                      7                      8                      9
                     A"                     A'                     A'
 Frequencies --    861.5132              1036.0724              1066.9466
 Red. masses --      1.6490                 1.6388                 1.8262
 Frc consts  --      0.7211                 1.0364                 1.2249
 IR Inten    --     13.5983                 4.1655                 1.3786

                     10                     11                     12
                     A'                     A'                     A'
 Frequencies --   1253.8382              1327.4873              1659.7808
 Red. masses --      1.8707                 2.1344                 5.7104
 Frc consts  --      1.7327                 2.2161                 9.2687
 IR Inten    --      1.1660                 3.8528               410.4589

                     13                     14                     15
                     A'                     A'                     A'
 Frequencies --   2742.8002              3046.9678              3103.3106
 Red. masses --      1.0733                 1.0895                 1.1351
 Frc consts  --      4.7572                 5.9595                 6.4407
 IR Inten    --    280.5937               113.2561               386.3676

 - Thermochemistry -
 -------------------
 Temperature   298.150 Kelvin.  Pressure   1.00000 Atm.
 Atom     1 has atomic number  6 and mass  12.00000

 Molecular mass:    51.02348 amu.
 Principal axes and moments of inertia in atomic units:
                           1         2         3
     Eigenvalues --    29.84066 363.99823 393.83889
           X           -0.50189   0.86493   0.00000
           Y            0.86493   0.50189   0.00000
           Z            0.00000   0.00000   1.00000
 This molecule is an asymmetric top.
 Rotational symmetry number  1.
 Rotational temperatures (Kelvin)      2.90254     0.23795     0.21992
 Rotational constants (GHZ):          60.47927     4.95810     4.58244
 Zero-point vibrational energy     114207.3 (Joules/Mol)
                                   27.29620 (Kcal/Mol)
 Warning -- explicit consideration of   3 degrees of freedom as
           vibrations may cause significant error
 Vibrational temperatures:    232.22   271.93   657.65   967.04  1020.54
          (Kelvin)           1160.13  1239.52  1490.68  1535.10  1803.99
                             1909.96  2388.05  3946.27  4383.90  4464.97

 Zero-point correction=                           0.043499 (Hartree/Particle)
 Thermal correction to Energy=                    0.048250
 Thermal correction to Enthalpy=                  0.049195
 Thermal correction to Gibbs Free Energy=         0.015839
 Sum of electronic and zero-point Energies=           -153.014277
 Sum of electronic and thermal Energies=              -153.009526
 Sum of electronic and thermal Enthalpies=            -153.008582
 Sum of electronic and thermal Free Energies=         -153.041938

                     E (Thermal)             CV                S
                      KCal/Mol        Cal/Mol-Kelvin    Cal/Mol-Kelvin
 Total                   30.278             14.941             70.204
 Electronic               0.000              0.000              2.755
 Translational            0.889              2.981             37.712
 Rotational               0.889              2.981             22.974
 Vibrational             28.500              8.980              6.762
 Vibration     1          0.622              1.890              2.533
 Vibration     2          0.633              1.855              2.238
 Vibration     3          0.815              1.345              0.775

 Normal termination of Gaussian 09 at Tue Jul 19 10:39:27 2016.
