 Gaussian 09, Revision E.01,
 Gaussian 09:  EM64L-G09RevE.01 30-Nov-2015

 ---------------------------------------------
 #p b3lyp/6-311++G(3df,2p) freq symmetry=Loose
 ---------------------------------------------

 ---------
 b3lyp opt
 ---------
 Symbolic Z-matrix:
 Charge =  2 Multiplicity = 2

                         Standard orientation:
 ---------------------------------------------------------------------
 Center     Atomic      Atomic             Coordinates (Angstroms)
 Number     Number       Type             X           Y           Z
 ---------------------------------------------------------------------
      1          6           0       -0.000000   -0.000000   -1.705517
      2          1           0       -0.000000    1.053707   -2.106050
      3          1           0        0.912537   -0.526854   -2.106050
      4          1           0       -0.912537   -0.526854   -2.106050
      5          6           0       -0.000000   -0.000000   -0.356540
      6          6           0       -0.000000   -0.000000    0.935069
      7          6           0       -0.000000   -0.000000    2.180013
 ---------------------------------------------------------------------

 SCF Done:  E(UB3LYP) =  -153.124276455     A.U. after   18 cycles

 The electronic state is 2-A1.
 Alpha  occ. eigenvalues --  -10.87328 -10.84830 -10.74273 -10.68489  -1.36807
 Alpha  occ. eigenvalues --   -1.30540  -1.20862  -0.98683  -0.93884  -0.93316
 Alpha  occ. eigenvalues --   -0.93316  -0.85750  -0.85750
 Alpha virt. eigenvalues --   -0.66315  -0.66315  -0.42196  -0.42196  -0.35630
 Alpha virt. eigenvalues --   -0.30934  -0.28117  -0.28117  -0.25639  -0.25635
 Alpha virt. eigenvalues --   -0.25538  -0.24027  -0.21711  -0.21710  -0.20522

  Beta  occ. eigenvalues --  -10.85078 -10.84418 -10.74176 -10.68521  -1.36816
  Beta  occ. eigenvalues --   -1.28870  -1.20064  -0.98951  -0.93997  -0.93997
  Beta  occ. eigenvalues --   -0.84351  -0.84351
  Beta virt. eigenvalues --   -0.69501  -0.64200  -0.64200  -0.40163  -0.40163
  Beta virt. eigenvalues --   -0.35709  -0.30949  -0.28199  -0.28197  -0.25686
  Beta virt. eigenvalues --   -0.25679  -0.25619  -0.23853  -0.21496  -0.21495

 Mulliken charges and spin densities:
               1          2
     1  C   -0.056276  -0.050240
     2  H    0.304433  -0.021761
     3  H    0.304436  -0.021763
     4  H    0.304436  -0.021763
     5  C    0.004289  -0.132064
     6  C    0.709106  -0.019846
     7  C    0.429575   1.267437
 Sum of Mulliken charges =   2.00000   1.00000

 Dipole moment (field-independent basis, Debye):
    X=             -0.0000    Y=              0.0000    Z=             -0.1915  Tot=              0.1915
 Quadrupole moment (field-independent basis, Debye-Ang):
   XX=            -16.8651   YY=            -16.8650   ZZ=             16.9172
   XY=             -0.0000   XZ=              0.0000   YZ=             -0.0000

  Exact polarizability:  22.883  -0.000  22.883   0.000   0.000  77.089
 Approx polarizability:  32.463  -0.000  32.463   0.000  -0.000 199.841

                      1                      2                      3
                      E                      E                      E
 Frequencies --    189.4286               189.5657               418.4054
 Red. masses --      5.0363                 5.0489                 2.3645
 Frc consts  --      0.1065                 0.1069                 0.2439
 IR Inten    --     13.9956                13.9987                 1.8960

                      4                      5                      6
                      E                      E                      E
 Frequencies --    418.7806               822.7060               822.7862
 Red. masses --      2.3636                 2.1394                 2.1381
 Frc consts  --      0.2442                 0.8531                 0.8528
 IR Inten    --      1.9147                53.3176                53.3656

                      7                      8                      9
                     A1                      E                      E
 Frequencies --    856.9194              1136.8273              1136.9492
 Red. masses --      3.9307                 1.0477                 1.0476
 Frc consts  --      1.7006                 0.7978                 0.7979
 IR Inten    --      3.1238                41.6361                41.5454

                     10                     11                     12
                     A1                     A1                     A1
 Frequencies --   1236.2936              1656.2921              2197.6790
 Red. masses --      1.2673                11.4805                11.5842
 Frc consts  --      1.1413                18.5560                32.9644
 IR Inten    --    180.9380               118.7721              1553.9113

                     13                     14                     15
                     A1                      E                      E
 Frequencies --   2731.0426              2743.2890              2743.2910
 Red. masses --      1.0376                 1.0896                 1.0896
 Frc consts  --      4.5599                 4.8311                 4.8311
 IR Inten    --    874.2511               258.1993               258.1787

 - Thermochemistry -
 -------------------
 Temperature   298.150 Kelvin.  Pressure   1.00000 Atm.
 Atom     1 has atomic number  6 and mass  12.00000

 Molecular mass:    51.02348 amu.
 Principal axes and moments of inertia in atomic units:
                           1         2         3
     Eigenvalues --    11.98792 422.35487 422.35487
           X            0.00000   0.84873  -0.52883
           Y            0.00000   0.52883   0.84873
           Z            1.00000  -0.00000  -0.00000
 This molecule is a prolate symmetric top.
 Rotational symmetry number  3.
 Rotational temperatures (Kelvin)      7.22509     0.20507     0.20507
 Rotational constants (GHZ):         150.54663     4.27304     4.27304
 Zero-point vibrational energy     115441.2 (Joules/Mol)
                                   27.59110 (Kcal/Mol)
 Warning -- explicit consideration of   4 degrees of freedom as
           vibrations may cause significant error
 Vibrational temperatures:    272.55   272.74   601.99   602.53  1183.69
          (Kelvin)           1183.80  1232.91  1635.64  1635.81  1778.75
                             2383.03  3161.97  3929.36  3946.98  3946.98

 Zero-point correction=                           0.043969 (Hartree/Particle)
 Thermal correction to Energy=                    0.048808
 Thermal correction to Enthalpy=                  0.049752
 Thermal correction to Gibbs Free Energy=         0.018324
 Sum of electronic and zero-point Energies=           -153.080307
 Sum of electronic and thermal Energies=              -153.075468
 Sum of electronic and thermal Enthalpies=            -153.074524
 Sum of electronic and thermal Free Energies=         -153.105952

                     E (Thermal)             CV                S
                      KCal/Mol        Cal/Mol-Kelvin    Cal/Mol-Kelvin
 Total                   30.628             15.052             66.145
 Electronic               0.000              0.000              1.377
 Translational            0.889              2.981             37.712
 Rotational               0.889              2.981             20.102
 Vibrational             28.850              9.090              6.953
 Vibration     1          0.633              1.854              2.233
 Vibration     2          0.633              1.854              2.232
 Vibration     3          0.781              1.430              0.897
 Vibration     4          0.782              1.429              0.896

 Optimization completed.
    -- Stationary point found.
 Normal termination of Gaussian 09 at Sun Jun 19 06:23:20 2016.
