 Gaussian 09, Revision E.01,
 Gaussian 09:  EM64L-G09RevE.01 30-Nov-2015

 ------------------------------------------------------
 #p b3lyp/6-311++G(3df,2p) freq IOp(2/17=3) IOp(2/18=3)
 ------------------------------------------------------

 ---------
 b3lyp opt
 ---------
 Symbolic Z-matrix:
 Charge =  3 Multiplicity = 3

                         Standard orientation:
 ---------------------------------------------------------------------
 Center     Atomic      Atomic             Coordinates (Angstroms)
 Number     Number       Type             X           Y           Z
 ---------------------------------------------------------------------
      1          6           0       -0.419586   -0.970261    0.000000
      2          6           0        0.157954   -0.090712   -1.079969
      3          6           0       -0.000000    0.916030    0.000000
      4          1           0       -0.671860    1.869428    0.000000
      5          6           0        0.157954   -0.090712    1.079969
      6          1           0        0.647226   -0.227766    2.096878
      7          1           0        0.647226   -0.227766   -2.096878
 ---------------------------------------------------------------------

 SCF Done:  E(UB3LYP) =  -152.191488622     A.U. after   13 cycles

 The electronic state is 3-A'.
 Alpha  occ. eigenvalues --  -11.17239 -11.13479 -11.13478 -11.12526  -1.78428
 Alpha  occ. eigenvalues --   -1.49673  -1.46389  -1.32748  -1.28967  -1.24362
 Alpha  occ. eigenvalues --   -1.22945  -1.18997  -1.12627
 Alpha virt. eigenvalues --   -0.93050  -0.90397  -0.84814  -0.65337  -0.62438
 Alpha virt. eigenvalues --   -0.61841  -0.59257  -0.55688  -0.52601  -0.51163
 Alpha virt. eigenvalues --   -0.45914  -0.44480  -0.43096  -0.42458  -0.41077

  Beta  occ. eigenvalues --  -11.14789 -11.13126 -11.13124 -11.11836  -1.75676
  Beta  occ. eigenvalues --   -1.47989  -1.42030  -1.31645  -1.25066  -1.23125
  Beta  occ. eigenvalues --   -1.21907
  Beta virt. eigenvalues --   -1.07413  -0.94485  -0.89966  -0.82972  -0.79729
  Beta virt. eigenvalues --   -0.63601  -0.60103  -0.59870  -0.57118  -0.54323
  Beta virt. eigenvalues --   -0.51605  -0.50777  -0.44819  -0.44041  -0.42299

 Mulliken charges and spin densities:
               1          2
     1  C    0.646257   1.189707
     2  C    0.395614   0.177065
     3  C    0.301361   0.393264
     4  H    0.372879   0.056249
     5  C    0.395614   0.177065
     6  H    0.444138   0.003325
     7  H    0.444138   0.003325
 Sum of Mulliken charges =   3.00000   2.00000

 Dipole moment (field-independent basis, Debye):
    X=              0.4424    Y=              0.9611    Z=              0.0000  Tot=              1.0581
 Quadrupole moment (field-independent basis, Debye-Ang):
   XX=            -13.2665   YY=             -4.2671   ZZ=              4.7782
   XY=             -1.4881   XZ=              0.0000   YZ=             -0.0000

  Exact polarizability:  18.471   0.519  31.658  -0.000  -0.000  33.729
 Approx polarizability:  28.959   4.470  60.208   0.000  -0.000  53.344

                      1                      2                      3
                     A'                     A'                     A"
 Frequencies --    402.8629               472.3652               564.1720
 Red. masses --      1.7723                 2.1344                 3.3428
 Frc consts  --      0.1695                 0.2806                 0.6269
 IR Inten    --     16.7822                10.8098                 1.6182

                      4                      5                      6
                     A"                     A'                     A"
 Frequencies --    732.2473               825.3963               930.8890
 Red. masses --      1.6210                 1.9006                 1.6258
 Frc consts  --      0.5121                 0.7629                 0.8300
 IR Inten    --     11.3107                29.8973                 0.4554

                      7                      8                      9
                     A'                     A"                     A'
 Frequencies --    939.9320               973.1560               974.5237
 Red. masses --      2.3028                 1.2003                 1.9646
 Frc consts  --      1.1987                 0.6697                 1.0993
 IR Inten    --     38.8741                 5.1000                30.5038

                     10                     11                     12
                     A"                     A'                     A'
 Frequencies --   1034.9253              1083.6741              1113.6490
 Red. masses --      2.5685                 4.2791                 2.1561
 Frc consts  --      1.6209                 2.9607                 1.5755
 IR Inten    --    108.1601                11.2576               114.6446

                     13                     14                     15
                     A'                     A"                     A'
 Frequencies --   2305.8443              2662.7096              2715.9673
 Red. masses --      1.0738                 1.0955                 1.1120
 Frc consts  --      3.3638                 4.5763                 4.8328
 IR Inten    --   1017.7502              1169.0959               126.5713

 - Thermochemistry -
 -------------------
 Temperature   298.150 Kelvin.  Pressure   1.00000 Atm.
 Atom     1 has atomic number  6 and mass  12.00000

 Molecular mass:    51.02348 amu.
 Principal axes and moments of inertia in atomic units:
                           1         2         3
     Eigenvalues --   104.11457 144.45301 222.88181
           X            0.00000   0.13611   0.99069
           Y            0.00000   0.99069  -0.13611
           Z            1.00000   0.00000   0.00000
 This molecule is an asymmetric top.
 Rotational symmetry number  1.
 Rotational temperatures (Kelvin)      0.83191     0.59960     0.38861
 Rotational constants (GHZ):          17.33419    12.49362     8.09730
 Zero-point vibrational energy     106062.8 (Joules/Mol)
                                   25.34962 (Kcal/Mol)
 Warning -- explicit consideration of   3 degrees of freedom as
           vibrations may cause significant error
 Vibrational temperatures:    579.63   679.63   811.72  1053.54  1187.56
          (Kelvin)           1339.34  1352.35  1400.15  1402.12  1489.02
                             1559.16  1602.29  3317.59  3831.04  3907.67

 Zero-point correction=                           0.040397 (Hartree/Particle)
 Thermal correction to Energy=                    0.044393
 Thermal correction to Enthalpy=                  0.045337
 Thermal correction to Gibbs Free Energy=         0.014006
 Sum of electronic and zero-point Energies=           -152.151091
 Sum of electronic and thermal Energies=              -152.147096
 Sum of electronic and thermal Enthalpies=            -152.146152
 Sum of electronic and thermal Free Energies=         -152.177483

                     E (Thermal)             CV                S
                      KCal/Mol        Cal/Mol-Kelvin    Cal/Mol-Kelvin
 Total                   27.857             13.853             65.942
 Electronic               0.000              0.000              2.183
 Translational            0.889              2.981             37.712
 Rotational               0.889              2.981             22.732
 Vibrational             26.079              7.892              3.314
 Vibration     1          0.768              1.464              0.952
 Vibration     2          0.829              1.311              0.731
 Vibration     3          0.920              1.109              0.516

 Optimization completed.
    -- Stationary point found.
 Normal termination of Gaussian 09 at Thu Jan 31 05:30:36 2019.
