 Gaussian 09, Revision E.01,
 Gaussian 09:  EM64L-G09RevE.01 30-Nov-2015

 ---------------------------------------------
 #p b3lyp/6-311++G(3df,2p) freq symmetry=Loose
 ---------------------------------------------

 ---------
 b3lyp opt
 ---------
 Symbolic Z-matrix:
 Charge =  2 Multiplicity = 2

                         Standard orientation:
 ---------------------------------------------------------------------
 Center     Atomic      Atomic             Coordinates (Angstroms)
 Number     Number       Type             X           Y           Z
 ---------------------------------------------------------------------
      1          6           0        0.843151    0.380455   -0.065655
      2          1           0        1.230319    1.433437   -0.175099
      3          6           0        1.929861   -0.503501    0.081496
      4          6           0       -0.460349    0.115544   -0.012890
      5          6           0       -1.744706   -0.146292    0.016659
      6          1           0       -2.167180   -1.093921   -0.379878
      7          1           0       -2.470881    0.583254    0.437319
 ---------------------------------------------------------------------

 SCF Done:  E(UB3LYP) =  -153.123568030     A.U. after   22 cycles

 The electronic state is 2-A.
 Alpha  occ. eigenvalues --  -10.84954 -10.81223 -10.75133 -10.74634  -1.37665
 Alpha  occ. eigenvalues --   -1.29868  -1.16475  -1.02300  -0.99912  -0.94974
 Alpha  occ. eigenvalues --   -0.88963  -0.82761  -0.79593
 Alpha virt. eigenvalues --   -0.63907  -0.62419  -0.57212  -0.44061  -0.36101
 Alpha virt. eigenvalues --   -0.31699  -0.29119  -0.28607  -0.26528  -0.25739
 Alpha virt. eigenvalues --   -0.24409  -0.23344  -0.22547  -0.20610  -0.19237

  Beta  occ. eigenvalues --  -10.84358 -10.81071 -10.74849 -10.74045  -1.36429
  Beta  occ. eigenvalues --   -1.27772  -1.15306  -1.01498  -0.99287  -0.94367
  Beta  occ. eigenvalues --   -0.85883  -0.81578
  Beta virt. eigenvalues --   -0.69367  -0.62974  -0.61596  -0.53294  -0.41589
  Beta virt. eigenvalues --   -0.35690  -0.31404  -0.28812  -0.28296  -0.26202
  Beta virt. eigenvalues --   -0.25120  -0.24262  -0.22871  -0.21979  -0.20417

 Mulliken charges and spin densities:
               1          2
     1  C    0.241564   0.159086
     2  H    0.279789   0.008861
     3  C    0.263427   0.326796
     4  C    0.710091   0.181292
     5  C   -0.149264   0.337566
     6  H    0.321226  -0.006107
     7  H    0.333167  -0.007493
 Sum of Mulliken charges =   2.00000   1.00000

 Dipole moment (field-independent basis, Debye):
    X=             -1.6316    Y=              0.7363    Z=             -0.1687  Tot=              1.7979
 Quadrupole moment (field-independent basis, Debye-Ang):
   XX=              9.4529   YY=            -12.7163   ZZ=            -19.3126
   XY=              2.9964   XZ=             -0.8523   YZ=              0.7133

  Exact polarizability:  82.006  -2.891  29.773  -0.889   0.216  22.250
 Approx polarizability: 165.849  -9.807  48.769   2.256  -1.361  31.656

                      1                      2                      3
                      A                      A                      A
 Frequencies --    195.6140               236.8881               333.4565
 Red. masses --      3.1114                 1.4215                 2.2320
 Frc consts  --      0.0701                 0.0470                 0.1462
 IR Inten    --     15.3132                 9.3616                31.9885

                      4                      5                      6
                      A                      A                      A
 Frequencies --    443.4306               617.9312               798.9065
 Red. masses --      2.4188                 1.7083                 1.6474
 Frc consts  --      0.2802                 0.3843                 0.6195
 IR Inten    --     14.9706                12.6102                 5.5949

                      7                      8                      9
                      A                      A                      A
 Frequencies --    896.4539               926.2178               988.4793
 Red. masses --      3.1326                 1.3631                 1.7797
 Frc consts  --      1.4832                 0.6890                 1.0245
 IR Inten    --      3.5223                42.5657                 4.0441

                     10                     11                     12
                      A                      A                      A
 Frequencies --   1239.5404              1331.0844              1688.4801
 Red. masses --      1.1987                 4.7868                10.1547
 Frc consts  --      1.0851                 4.9970                17.0573
 IR Inten    --    250.9608               158.9653                16.2259

                     13                     14                     15
                      A                      A                      A
 Frequencies --   2753.2417              2877.2665              2938.6254
 Red. masses --      1.0796                 1.0533                 1.1103
 Frc consts  --      4.8219                 5.1376                 5.6493
 IR Inten    --    504.3074               540.5683               283.3723

 - Thermochemistry -
 -------------------
 Temperature   298.150 Kelvin.  Pressure   1.00000 Atm.
 Atom     1 has atomic number  6 and mass  12.00000

 Molecular mass:    51.02348 amu.
 Principal axes and moments of inertia in atomic units:
                           1         2         3
     Eigenvalues --    32.96663 375.10249 404.61331
           X            0.99962   0.02747  -0.00321
           Y           -0.02728   0.99844   0.04875
           Z            0.00454  -0.04864   0.99881
 This molecule is an asymmetric top.
 Rotational symmetry number  1.
 Rotational temperatures (Kelvin)      2.62732     0.23091     0.21407
 Rotational constants (GHZ):          54.74449     4.81133     4.46041
 Zero-point vibrational energy     109252.6 (Joules/Mol)
                                   26.11201 (Kcal/Mol)
 Warning -- explicit consideration of   5 degrees of freedom as
           vibrations may cause significant error
 Vibrational temperatures:    281.44   340.83   479.77   638.00   889.06
          (Kelvin)           1149.45  1289.80  1332.62  1422.20  1783.42
                             1915.13  2429.34  3961.30  4139.74  4228.02

 Zero-point correction=                           0.041612 (Hartree/Particle)
 Thermal correction to Energy=                    0.046565
 Thermal correction to Enthalpy=                  0.047509
 Thermal correction to Gibbs Free Energy=         0.014565
 Sum of electronic and zero-point Energies=           -153.081956
 Sum of electronic and thermal Energies=              -153.077003
 Sum of electronic and thermal Enthalpies=            -153.076059
 Sum of electronic and thermal Free Energies=         -153.109003

                     E (Thermal)             CV                S
                      KCal/Mol        Cal/Mol-Kelvin    Cal/Mol-Kelvin
 Total                   29.220             15.936             69.337
 Electronic               0.000              0.000              1.377
 Translational            0.889              2.981             37.712
 Rotational               0.889              2.981             23.130
 Vibrational             27.442              9.974              7.117
 Vibration     1          0.636              1.846              2.174
 Vibration     2          0.656              1.784              1.826
 Vibration     3          0.715              1.609              1.243
 Vibration     4          0.803              1.375              0.816
 Vibration     5          0.978              0.994              0.420

 Optimization completed.
    -- Stationary point found.
 Normal termination of Gaussian 09 at Sun Jun 19 06:25:04 2016.
