 Gaussian 09, Revision E.01,
 Gaussian 09:  EM64L-G09RevE.01 30-Nov-2015

 ---------------------------------------------
 #p b3lyp/6-311++G(3df,2p) freq symmetry=Loose
 ---------------------------------------------

 ---------
 b3lyp opt
 ---------
 Symbolic Z-matrix:
 Charge =  2 Multiplicity = 4

                         Standard orientation:
 ---------------------------------------------------------------------
 Center     Atomic      Atomic             Coordinates (Angstroms)
 Number     Number       Type             X           Y           Z
 ---------------------------------------------------------------------
      1          6           0       -0.000000    0.890261   -0.224693
      2          1           0       -0.000000    1.917588   -0.615577
      3          6           0       -0.000000   -0.000000    0.981867
      4          6           0        0.770989   -0.445131   -0.224693
      5          6           0       -0.770989   -0.445131   -0.224693
      6          1           0        1.660680   -0.958794   -0.615577
      7          1           0       -1.660680   -0.958794   -0.615577
 ---------------------------------------------------------------------

 SCF Done:  E(UB3LYP) =  -153.031627483     A.U. after   12 cycles

 The electronic state is 4-A1.
 Alpha  occ. eigenvalues --  -10.87014 -10.84213 -10.84180 -10.84180  -1.60864
 Alpha  occ. eigenvalues --   -1.18641  -1.18641  -1.16202  -1.05992  -0.98344
 Alpha  occ. eigenvalues --   -0.98344  -0.87413  -0.85090  -0.85090
 Alpha virt. eigenvalues --   -0.46051  -0.45046  -0.45046  -0.41061  -0.41061
 Alpha virt. eigenvalues --   -0.39858  -0.32361  -0.31131  -0.27654  -0.27654
 Alpha virt. eigenvalues --   -0.24513  -0.24513  -0.23116  -0.23116  -0.21810

  Beta  occ. eigenvalues --  -10.84337 -10.83140 -10.83112 -10.83112  -1.57528
  Beta  occ. eigenvalues --   -1.14134  -1.14134  -1.10501  -1.01494  -0.95518
  Beta  occ. eigenvalues --   -0.95518
  Beta virt. eigenvalues --   -0.72080  -0.72080  -0.67679  -0.41368  -0.40124
  Beta virt. eigenvalues --   -0.40124  -0.38219  -0.36793  -0.36793  -0.31482
  Beta virt. eigenvalues --   -0.30428  -0.27183  -0.27183  -0.23547  -0.23547

 Mulliken charges and spin densities:
               1          2
     1  C    0.201523   0.570042
     2  H    0.401689  -0.023265
     3  C    0.190365   1.359669
     4  C    0.201523   0.570042
     5  C    0.201523   0.570042
     6  H    0.401689  -0.023265
     7  H    0.401689  -0.023265
 Sum of Mulliken charges =   2.00000   3.00000

 Dipole moment (field-independent basis, Debye):
    X=              0.0000    Y=             -0.0000    Z=             -1.2201  Tot=              1.2201
 Quadrupole moment (field-independent basis, Debye-Ang):
   XX=             -8.9981   YY=             -8.9981   ZZ=            -14.5429
   XY=             -0.0000   XZ=             -0.0000   YZ=             -0.0000

  Exact polarizability:  28.466   0.000  28.467   0.000   0.000  24.990
 Approx polarizability:  46.477  -0.000  46.477  -0.000   0.000  44.922

                      1                      2                      3
                      E                      E                     A1
 Frequencies --    738.8662               738.8671               755.6019
 Red. masses --      2.2002                 2.2002                 1.1039
 Frc consts  --      0.7077                 0.7077                 0.3713
 IR Inten    --      2.8904                 2.8892               151.4522

                      4                      5                      6
                     A1                      E                      E
 Frequencies --    778.2753               821.2749               821.2757
 Red. masses --      6.9818                 1.3230                 1.3230
 Frc consts  --      2.4916                 0.5257                 0.5258
 IR Inten    --     25.3412                55.0846                55.0965

                      7                      8                      9
                      E                      E                     A2
 Frequencies --    859.0539               859.0547               870.2811
 Red. masses --      3.3351                 3.3341                 1.3561
 Frc consts  --      1.4501                 1.4497                 0.6052
 IR Inten    --      0.8538                 0.8505                 0.0000

                     10                     11                     12
                      E                      E                     A1
 Frequencies --    892.2504               892.2582              1304.6179
 Red. masses --      2.0463                 2.0465                 6.3848
 Frc consts  --      0.9598                 0.9600                 6.4027
 IR Inten    --     30.6986                30.6920                 0.9048

                     13                     14                     15
                      E                      E                     A1
 Frequencies --   3056.5606              3056.5606              3088.6136
 Red. masses --      1.0998                 1.0998                 1.1216
 Frc consts  --      6.0539                 6.0539                 6.3041
 IR Inten    --    397.0324               397.0529                88.2106

 - Thermochemistry -
 -------------------
 Temperature   298.150 Kelvin.  Pressure   1.00000 Atm.
 Atom     1 has atomic number  6 and mass  12.00000

 Molecular mass:    51.02348 amu.
 Principal axes and moments of inertia in atomic units:
                           1         2         3
     Eigenvalues --   122.45623 122.45623 141.59310
           X           -0.17600   0.98439   0.00000
           Y            0.98439   0.17600   0.00000
           Z           -0.00000  -0.00000   1.00000
 This molecule is an oblate symmetric top.
 Rotational symmetry number  3.
 Rotational temperatures (Kelvin)      0.70730     0.70730     0.61171
 Rotational constants (GHZ):          14.73785    14.73785    12.74597
 Zero-point vibrational energy     116835.7 (Joules/Mol)
                                   27.92441 (Kcal/Mol)
 Vibrational temperatures:   1063.06  1063.06  1087.14  1119.76  1181.63
          (Kelvin)           1181.63  1235.99  1235.99  1252.14  1283.75
                             1283.76  1877.05  4397.70  4397.70  4443.82

 Zero-point correction=                           0.044500 (Hartree/Particle)
 Thermal correction to Energy=                    0.048160
 Thermal correction to Enthalpy=                  0.049104
 Thermal correction to Gibbs Free Energy=         0.019293
 Sum of electronic and zero-point Energies=           -152.987127
 Sum of electronic and thermal Energies=              -152.983468
 Sum of electronic and thermal Enthalpies=            -152.982524
 Sum of electronic and thermal Free Energies=         -153.012335

                     E (Thermal)             CV                S
                      KCal/Mol        Cal/Mol-Kelvin    Cal/Mol-Kelvin
 Total                   30.221             12.948             62.743
 Electronic               0.000              0.000              2.755
 Translational            0.889              2.981             37.712
 Rotational               0.889              2.981             20.095
 Vibrational             28.443              6.986              2.181

 Optimization completed.
    -- Stationary point found.
 Normal termination of Gaussian 09 at Tue Jul 19 10:26:05 2016.
