 Gaussian 09, Revision E.01,
 Gaussian 09:  EM64L-G09RevE.01 30-Nov-2015

 ---------------------------------------------
 #p b3lyp/6-311++G(3df,2p) freq symmetry=Loose
 ---------------------------------------------

 ---------
 b3lyp opt
 ---------
 Symbolic Z-matrix:
 Charge =  0 Multiplicity = 4

                         Standard orientation:
 ---------------------------------------------------------------------
 Center     Atomic      Atomic             Coordinates (Angstroms)
 Number     Number       Type             X           Y           Z
 ---------------------------------------------------------------------
      1          6           0       -0.000000    0.000000    1.063687
      2          6           0        0.000000    1.039425    0.078483
      3          6           0        0.000000   -0.000000   -0.913406
      4          1           0        0.000000   -0.000000   -1.993984
      5          6           0       -0.000000   -1.039425    0.078483
      6          1           0        0.000000   -2.114409    0.075252
      7          1           0        0.000000    2.114409    0.075252
 ---------------------------------------------------------------------

 SCF Done:  E(UB3LYP) =  -154.032822724     A.U. after   13 cycles

 The electronic state is 4-B2.
 Alpha  occ. eigenvalues --  -10.22340 -10.20727 -10.20724 -10.20635  -0.91543
 Alpha  occ. eigenvalues --   -0.67367  -0.64686  -0.54312  -0.47543  -0.41985
 Alpha  occ. eigenvalues --   -0.41222  -0.39910  -0.27234  -0.20626  -0.19703
 Alpha virt. eigenvalues --   -0.00088   0.01147   0.01810   0.02920   0.05289
 Alpha virt. eigenvalues --    0.05543   0.07385   0.07634   0.09462   0.09874
 Alpha virt. eigenvalues --    0.09909   0.09917   0.12377   0.12595   0.12790

  Beta  occ. eigenvalues --  -10.20155 -10.19828 -10.19820 -10.19764  -0.88151
  Beta  occ. eigenvalues --   -0.64473  -0.60744  -0.52961  -0.43173  -0.39784
  Beta  occ. eigenvalues --   -0.38689  -0.33830
  Beta virt. eigenvalues --   -0.10932  -0.09174  -0.07071   0.00001   0.01214
  Beta virt. eigenvalues --    0.02137   0.05901   0.06077   0.07378   0.08085
  Beta virt. eigenvalues --    0.08963   0.10186   0.10274   0.10313   0.10922

 Mulliken charges and spin densities:
               1          2
     1  C    0.036557   1.430713
     2  C   -0.369496   0.537075
     3  C    0.071387   0.530116
     4  H    0.204944   0.019785
     5  C   -0.369496   0.537075
     6  H    0.213051  -0.027382
     7  H    0.213051  -0.027382
 Sum of Mulliken charges =  -0.00000   3.00000

 Dipole moment (field-independent basis, Debye):
    X=              0.0000    Y=              0.0000    Z=             -1.0980  Tot=              1.0980
 Quadrupole moment (field-independent basis, Debye-Ang):
   XX=            -26.4259   YY=            -20.0347   ZZ=            -24.0589
   XY=              0.0000   XZ=             -0.0000   YZ=             -0.0000

  Exact polarizability:  33.353   0.000  52.518  -0.000   0.000  50.309
 Approx polarizability:  46.598   0.000  84.300  -0.000   0.000  83.537

                      1                      2                      3
                     B1                     A2                     B1
 Frequencies --    493.4161               599.5411               614.1809
 Red. masses --      1.6620                 1.3196                 1.1972
 Frc consts  --      0.2384                 0.2795                 0.2661
 IR Inten    --     60.8949                 0.0000                22.4041

                      4                      5                      6
                     B1                     A1                     A1
 Frequencies --    652.1010               851.9019               915.4340
 Red. masses --      2.2699                 2.0616                 6.4845
 Frc consts  --      0.5687                 0.8815                 3.2017
 IR Inten    --     36.7181                21.0067                 3.7389

                      7                      8                      9
                     B2                     B2                     B2
 Frequencies --    944.2613              1093.1231              1231.0497
 Red. masses --      1.5615                 1.5295                 1.7872
 Frc consts  --      0.8203                 1.0768                 1.5958
 IR Inten    --     10.0523                 0.1584                 3.1618

                     10                     11                     12
                     A1                     B2                     A1
 Frequencies --   1259.5402              1264.4235              1291.6597
 Red. masses --      2.0418                 7.7667                 4.5059
 Frc consts  --      1.9085                 7.3160                 4.4292
 IR Inten    --      5.7593                 3.1502                 2.2908

                     13                     14                     15
                     A1                     B2                     A1
 Frequencies --   3190.2357              3263.8782              3271.2465
 Red. masses --      1.0908                 1.0918                 1.1048
 Frc consts  --      6.5412                 6.8527                 6.9655
 IR Inten    --      0.1150                 0.2521                 0.2939

 - Thermochemistry -
 -------------------
 Temperature   298.150 Kelvin.  Pressure   1.00000 Atm.
 Atom     1 has atomic number  6 and mass  12.00000

 Molecular mass:    51.02348 amu.
 Principal axes and moments of inertia in atomic units:
                           1         2         3
     Eigenvalues --    98.88153 124.77701 223.65854
           X            0.00000   0.00000   1.00000
           Y            1.00000   0.00000  -0.00000
           Z           -0.00000   1.00000  -0.00000
 This molecule is an asymmetric top.
 Rotational symmetry number  2.
 Rotational temperatures (Kelvin)      0.87594     0.69415     0.38726
 Rotational constants (GHZ):          18.25155    14.46373     8.06918
 Zero-point vibrational energy     125225.0 (Joules/Mol)
                                   29.92950 (Kcal/Mol)
 Warning -- explicit consideration of   3 degrees of freedom as
           vibrations may cause significant error
 Vibrational temperatures:    709.91   862.60   883.67   938.23  1225.70
          (Kelvin)           1317.10  1358.58  1572.76  1771.20  1812.20
                             1819.22  1858.41  4590.03  4695.99  4706.59

 Zero-point correction=                           0.047696 (Hartree/Particle)
 Thermal correction to Energy=                    0.051443
 Thermal correction to Enthalpy=                  0.052387
 Thermal correction to Gibbs Free Energy=         0.021903
 Sum of electronic and zero-point Energies=           -153.985127
 Sum of electronic and thermal Energies=              -153.981380
 Sum of electronic and thermal Enthalpies=            -153.980436
 Sum of electronic and thermal Free Energies=         -154.010919

                     E (Thermal)             CV                S
                      KCal/Mol        Cal/Mol-Kelvin    Cal/Mol-Kelvin
 Total                   32.281             12.634             64.158
 Electronic               0.000              0.000              2.755
 Translational            0.889              2.981             37.712
 Rotational               0.889              2.981             21.161
 Vibrational             30.503              6.673              2.529
 Vibration     1          0.849              1.265              0.675
 Vibration     2          0.958              1.033              0.450
 Vibration     3          0.974              1.002              0.426

 Optimization completed.
    -- Stationary point found.
 Normal termination of Gaussian 09 at Tue Jul 19 10:08:02 2016.
