 Gaussian 09, Revision E.01,
 Gaussian 09:  EM64L-G09RevE.01 30-Nov-2015

 ---------------------------------------------
 #p b3lyp/6-311++G(3df,2p) freq symmetry=Loose
 ---------------------------------------------

 ---------
 b3lyp opt
 ---------
 Symbolic Z-matrix:
 Charge =  2 Multiplicity = 2

                         Standard orientation:
 ---------------------------------------------------------------------
 Center     Atomic      Atomic             Coordinates (Angstroms)
 Number     Number       Type             X           Y           Z
 ---------------------------------------------------------------------
      1          6           0        2.143496   -0.145197   -0.536014
      2          6           0       -0.342999   -0.043825    0.100921
      3          6           0       -1.425204   -0.845351    0.008471
      4          6           0        1.109487    0.174582    0.342062
      5          1           0        1.498878   -0.414030    1.238930
      6          1           0        1.408874    1.251550    0.551464
      7          6           0       -1.601096    0.490838   -0.156757
      8          1           0       -2.209864    1.376197   -0.342497
 ---------------------------------------------------------------------

 SCF Done:  E(UB3LYP) =  -191.203137125     A.U. after   23 cycles

 The electronic state is 2-A.
 Alpha  occ. eigenvalues --  -10.83488 -10.75304 -10.74256 -10.72492 -10.71092
 Alpha  occ. eigenvalues --   -1.43820  -1.33039  -1.11577  -1.04754  -0.98762
 Alpha  occ. eigenvalues --   -0.96285  -0.92759  -0.86835  -0.85960  -0.79867
 Alpha  occ. eigenvalues --   -0.76009
 Alpha virt. eigenvalues --   -0.60948  -0.58936  -0.51108  -0.48400  -0.35511
 Alpha virt. eigenvalues --   -0.34152  -0.31264  -0.29859  -0.27618  -0.26948
 Alpha virt. eigenvalues --   -0.25731  -0.24983  -0.22543  -0.21506  -0.20303

  Beta  occ. eigenvalues --  -10.83469 -10.75104 -10.72508 -10.72332 -10.71092
  Beta  occ. eigenvalues --   -1.42810  -1.32922  -1.11189  -1.03693  -0.98326
  Beta  occ. eigenvalues --   -0.95632  -0.89438  -0.86100  -0.84761  -0.79661
  Beta virt. eigenvalues --   -0.61133  -0.59977  -0.58296  -0.50974  -0.45946
  Beta virt. eigenvalues --   -0.35227  -0.33632  -0.31038  -0.29583  -0.27447
  Beta virt. eigenvalues --   -0.26704  -0.25295  -0.24019  -0.21863  -0.21297

 Mulliken charges and spin densities:
               1          2
     1  C    0.165268   0.019456
     2  C    0.354362  -0.023235
     3  C    0.263156   0.934435
     4  C    0.005400   0.009615
     5  H    0.322945   0.000114
     6  H    0.311198   0.004545
     7  C    0.217902   0.051371
     8  H    0.359768   0.003699
 Sum of Mulliken charges =   2.00000   1.00000

 Dipole moment (field-independent basis, Debye):
    X=              1.2701    Y=              1.5932    Z=              0.8514  Tot=              2.2082
 Quadrupole moment (field-independent basis, Debye-Ang):
   XX=              2.1913   YY=            -17.3977   ZZ=            -20.8232
   XY=             -1.6507   XZ=              3.2920   YZ=             -0.5255

  Exact polarizability:  56.779  -0.244  36.482  -0.664  -0.254  30.441
 Approx polarizability:  86.088   0.485  62.867  -3.023   0.338  50.816

                      1                      2                      3
                      A                      A                      A
 Frequencies --     50.9260               209.1613               310.7031
 Red. masses --      2.8906                 8.3971                 1.8520
 Frc consts  --      0.0044                 0.2164                 0.1053
 IR Inten    --      4.5810                 2.3955                 9.6404

                      4                      5                      6
                      A                      A                      A
 Frequencies --    425.5818               467.8831               693.3690
 Red. masses --      2.4762                 3.9177                 5.8573
 Frc consts  --      0.2642                 0.5053                 1.6591
 IR Inten    --      2.8262                 6.7943                 7.1810

                      7                      8                      9
                      A                      A                      A
 Frequencies --    886.4631               946.9805               951.4275
 Red. masses --      1.2983                 1.4363                 1.2001
 Frc consts  --      0.6011                 0.7589                 0.6400
 IR Inten    --     20.4536                12.1183                12.5173

                     10                     11                     12
                      A                      A                      A
 Frequencies --   1008.0389              1217.0051              1232.4006
 Red. masses --      1.2792                 1.6018                 2.3636
 Frc consts  --      0.7659                 1.3978                 2.1151
 IR Inten    --     32.4664                40.5503                96.2068

                     13                     14                     15
                      A                      A                      A
 Frequencies --   1342.3778              1409.3973              1735.5202
 Red. masses --      7.2714                 5.2984                 8.9846
 Frc consts  --      7.7201                 6.2010                15.9444
 IR Inten    --     54.5161               335.2978                 7.6224

                     16                     17                     18
                      A                      A                      A
 Frequencies --   2655.7105              2686.8334              3160.3768
 Red. masses --      1.0696                 1.0736                 1.1235
 Frc consts  --      4.4447                 4.5665                 6.6118
 IR Inten    --    251.6237               224.3681               183.4794

 - Thermochemistry -
 -------------------
 Temperature   298.150 Kelvin.  Pressure   1.00000 Atm.
 Atom     1 has atomic number  6 and mass  12.00000

 Molecular mass:    63.02348 amu.
 Principal axes and moments of inertia in atomic units:
                           1         2         3
     Eigenvalues --    81.35978 510.16583 540.74562
           X            0.99954  -0.01452   0.02677
           Y            0.01543   0.99930  -0.03394
           Z           -0.02625   0.03434   0.99907
 This molecule is an asymmetric top.
 Rotational symmetry number  1.
 Rotational temperatures (Kelvin)      1.06458     0.16978     0.16017
 Rotational constants (GHZ):          22.18223     3.53756     3.33750
 Zero-point vibrational energy     127941.5 (Joules/Mol)
                                   30.57876 (Kcal/Mol)
 Warning -- explicit consideration of   5 degrees of freedom as
           vibrations may cause significant error
 Vibrational temperatures:     73.27   300.94   447.03   612.32   673.18
          (Kelvin)            997.60  1275.42  1362.49  1368.89  1450.34
                             1751.00  1773.15  1931.38  2027.81  2497.02
                             3820.97  3865.75  4547.07

 Zero-point correction=                           0.048730 (Hartree/Particle)
 Thermal correction to Energy=                    0.054230
 Thermal correction to Enthalpy=                  0.055174
 Thermal correction to Gibbs Free Energy=         0.019516
 Sum of electronic and zero-point Energies=           -191.154407
 Sum of electronic and thermal Energies=              -191.148907
 Sum of electronic and thermal Enthalpies=            -191.147963
 Sum of electronic and thermal Free Energies=         -191.183621

                     E (Thermal)             CV                S
                      KCal/Mol        Cal/Mol-Kelvin    Cal/Mol-Kelvin
 Total                   34.030             17.400             75.049
 Electronic               0.000              0.000              1.377
 Translational            0.889              2.981             38.342
 Rotational               0.889              2.981             24.621
 Vibrational             32.252             11.439             10.708
 Vibration     1          0.595              1.977              4.781
 Vibration     2          0.642              1.827              2.051
 Vibration     3          0.700              1.653              1.359
 Vibration     4          0.787              1.415              0.873
 Vibration     5          0.825              1.321              0.744

 Optimization completed.
    -- Stationary point found.
 Normal termination of Gaussian 09 at Sun Jun 19 11:22:27 2016.
