 Gaussian 09, Revision E.01,
 Gaussian 09:  EM64L-G09RevE.01 30-Nov-2015

 ---------------------------------------------
 #p b3lyp/6-311++G(3df,2p) freq symmetry=Loose
 ---------------------------------------------

 ---------
 b3lyp opt
 ---------
 Symbolic Z-matrix:
 Charge =  1 Multiplicity = 3

                         Standard orientation:
 ---------------------------------------------------------------------
 Center     Atomic      Atomic             Coordinates (Angstroms)
 Number     Number       Type             X           Y           Z
 ---------------------------------------------------------------------
      1          6           0       -0.000000   -0.000000   -0.973894
      2          6           0       -0.000000   -0.000000    0.280238
      3          6           0       -0.000000   -0.000000    1.567906
      4          6           0       -0.000000   -0.000000    2.896008
      5          6           0       -0.000000   -0.000000   -2.386917
      6          1           0       -0.000000    1.030539   -2.766681
      7          1           0        0.892473   -0.515270   -2.766681
      8          1           0       -0.892473   -0.515270   -2.766681
 ---------------------------------------------------------------------

 SCF Done:  E(UB3LYP) =  -191.831071811     A.U. after   14 cycles

 The electronic state is 3-A1.
 Alpha  occ. eigenvalues --  -10.52541 -10.49799 -10.48374 -10.48221 -10.42800
 Alpha  occ. eigenvalues --   -1.10508  -1.05022  -0.98386  -0.89942  -0.73125
 Alpha  occ. eigenvalues --   -0.69063  -0.69063  -0.62212  -0.62212  -0.53904
 Alpha  occ. eigenvalues --   -0.52144  -0.52144
 Alpha virt. eigenvalues --   -0.30827  -0.30827  -0.17144  -0.12859  -0.12859
 Alpha virt. eigenvalues --   -0.12744  -0.10395  -0.10395  -0.09170  -0.07568
 Alpha virt. eigenvalues --   -0.07568  -0.06172  -0.06172  -0.05129  -0.04537

  Beta  occ. eigenvalues --  -10.51296 -10.48762 -10.48355 -10.47568 -10.42822
  Beta  occ. eigenvalues --   -1.08159  -1.02279  -0.96035  -0.88140  -0.72077
  Beta  occ. eigenvalues --   -0.67179  -0.67179  -0.59244  -0.59244  -0.51826
  Beta virt. eigenvalues --   -0.41904  -0.41904  -0.26288  -0.26288  -0.16948
  Beta virt. eigenvalues --   -0.12538  -0.11470  -0.11470  -0.09213  -0.09213
  Beta virt. eigenvalues --   -0.08629  -0.06864  -0.06864  -0.05892  -0.05892

 Mulliken charges and spin densities:
               1          2
     1  C    0.499389   0.367776
     2  C   -0.400267   0.390628
     3  C    1.028368   0.659332
     4  C   -0.404485   0.472159
     5  C   -0.384339  -0.001497
     6  H    0.220445   0.037201
     7  H    0.220445   0.037201
     8  H    0.220445   0.037201
 Sum of Mulliken charges =   1.00000   2.00000

 Dipole moment (field-independent basis, Debye):
    X=             -0.0000    Y=              0.0000    Z=             -3.9306  Tot=              3.9306
 Quadrupole moment (field-independent basis, Debye-Ang):
   XX=            -25.4586   YY=            -25.4586   ZZ=             -8.2813
   XY=             -0.0000   XZ=             -0.0000   YZ=             -0.0000

  Exact polarizability:  35.217  -0.000  35.217  -0.000  -0.000 127.494
 Approx polarizability:  48.364  -0.000  48.364   0.000  -0.000 245.832

                      1                      2                      3
                      E                      E                      E
 Frequencies --     60.5787                60.5812               227.8358
 Red. masses --      8.1220                 8.1217                 4.2592
 Frc consts  --      0.0176                 0.0176                 0.1303
 IR Inten    --      8.3473                 8.3461                14.6285

                      4                      5                      6
                      E                      E                      E
 Frequencies --    227.8387               459.5790               459.5931
 Red. masses --      4.2594                 5.6720                 5.6717
 Frc consts  --      0.1303                 0.7058                 0.7059
 IR Inten    --     14.6291                 2.0089                 2.0093

                      7                      8                      9
                     A1                      E                      E
 Frequencies --    691.2457               961.7464               961.7498
 Red. masses --      5.3514                 1.4976                 1.4976
 Frc consts  --      1.5066                 0.8162                 0.8162
 IR Inten    --     25.4241                12.3345                12.3351

                     10                     11                     12
                     A1                     A1                      E
 Frequencies --   1177.1918              1366.5511              1373.8542
 Red. masses --      6.5474                 1.2548                 1.0357
 Frc consts  --      5.3458                 1.3806                 1.1518
 IR Inten    --     21.3166                27.9930                21.7232

                     13                     14                     15
                      E                     A1                     A1
 Frequencies --   1373.8549              1776.8365              2171.3540
 Red. masses --      1.0357                11.8120                11.9147
 Frc consts  --      1.1518                21.9719                33.0974
 IR Inten    --     21.7217               672.4444                78.6452

                     16                     17                     18
                     A1                      E                      E
 Frequencies --   2962.6752              3028.0666              3028.0670
 Red. masses --      1.0319                 1.0977                 1.0977
 Frc consts  --      5.3367                 5.9299                 5.9299
 IR Inten    --    228.4614                32.1949                32.1989

 - Thermochemistry -
 -------------------
 Temperature   298.150 Kelvin.  Pressure   1.00000 Atm.
 Atom     1 has atomic number  6 and mass  12.00000

 Molecular mass:    63.02348 amu.
 Principal axes and moments of inertia in atomic units:
                           1         2         3
     Eigenvalues --    11.46656 837.44146 837.44146
           X            0.00000  -0.23051   0.97307
           Y            0.00000   0.97307   0.23051
           Z            1.00000  -0.00000   0.00000
 This molecule is a prolate symmetric top.
 Rotational symmetry number  3.
 Rotational temperatures (Kelvin)      7.55360     0.10343     0.10343
 Rotational constants (GHZ):         157.39173     2.15507     2.15507
 Zero-point vibrational energy     133797.5 (Joules/Mol)
                                   31.97838 (Kcal/Mol)
 Warning -- explicit consideration of   6 degrees of freedom as
           vibrations may cause significant error
 Vibrational temperatures:     87.16    87.16   327.80   327.81   661.23
          (Kelvin)            661.25   994.55  1383.74  1383.74  1693.71
                             1966.16  1976.67  1976.67  2556.47  3124.09
                             4262.62  4356.71  4356.71

 Zero-point correction=                           0.050961 (Hartree/Particle)
 Thermal correction to Energy=                    0.057214
 Thermal correction to Enthalpy=                  0.058158
 Thermal correction to Gibbs Free Energy=         0.021672
 Sum of electronic and zero-point Energies=           -191.780111
 Sum of electronic and thermal Energies=              -191.773858
 Sum of electronic and thermal Enthalpies=            -191.772913
 Sum of electronic and thermal Free Energies=         -191.809399

                     E (Thermal)             CV                S
                      KCal/Mol        Cal/Mol-Kelvin    Cal/Mol-Kelvin
 Total                   35.903             18.477             76.791
 Electronic               0.000              0.000              2.183
 Translational            0.889              2.981             38.342
 Rotational               0.889              2.981             21.418
 Vibrational             34.125             12.515             14.848
 Vibration     1          0.597              1.973              4.438
 Vibration     2          0.597              1.973              4.438
 Vibration     3          0.651              1.799              1.896
 Vibration     4          0.651              1.799              1.896
 Vibration     5          0.818              1.340              0.767
 Vibration     6          0.818              1.340              0.767

 Optimization completed.
    -- Stationary point found.
 Normal termination of Gaussian 09 at Sun Jun 19 10:17:37 2016.
