 Gaussian 09, Revision E.01,
 Gaussian 09:  EM64L-G09RevE.01 30-Nov-2015

 ---------------------------------------------
 #p b3lyp/6-311++G(3df,2p) freq symmetry=Loose
 ---------------------------------------------

 ---------
 b3lyp opt
 ---------
 Symbolic Z-matrix:
 Charge =  0 Multiplicity = 2

                         Standard orientation:
 ---------------------------------------------------------------------
 Center     Atomic      Atomic             Coordinates (Angstroms)
 Number     Number       Type             X           Y           Z
 ---------------------------------------------------------------------
      1          6           0        2.119879   -0.267375   -0.633273
      2          6           0       -0.048896    0.617476    0.061712
      3          1           0        0.146107    1.655272   -0.195204
      4          6           0       -1.266241    0.101703   -0.055976
      5          6           0       -2.436826   -0.399855   -0.120436
      6          6           0        1.152122   -0.201211    0.438288
      7          1           0        0.912217   -1.145146    0.939862
      8          1           0        1.821453    0.385450    1.113455
 ---------------------------------------------------------------------

 SCF Done:  E(UB3LYP) =  -192.034438504     A.U. after   27 cycles

 The electronic state is 2-A.
 Alpha  occ. eigenvalues --  -10.29013 -10.27997 -10.24785 -10.21336 -10.18598
 Alpha  occ. eigenvalues --   -0.88651  -0.79916  -0.70962  -0.59575  -0.56562
 Alpha  occ. eigenvalues --   -0.51121  -0.46811  -0.37036  -0.33229  -0.29196
 Alpha  occ. eigenvalues --   -0.28814  -0.25673
 Alpha virt. eigenvalues --   -0.14881  -0.14153  -0.02612  -0.00207   0.01420
 Alpha virt. eigenvalues --    0.02060   0.03122   0.05056   0.05856   0.06360
 Alpha virt. eigenvalues --    0.07008   0.07603   0.08670   0.09114   0.10167

  Beta  occ. eigenvalues --  -10.27875 -10.27677 -10.24868 -10.21267 -10.18568
  Beta  occ. eigenvalues --   -0.87974  -0.79243  -0.70357  -0.57537  -0.55930
  Beta  occ. eigenvalues --   -0.50826  -0.46203  -0.35866  -0.31968  -0.29019
  Beta  occ. eigenvalues --   -0.28454
  Beta virt. eigenvalues --   -0.15408  -0.12746  -0.09977  -0.02578  -0.00127
  Beta virt. eigenvalues --    0.01494   0.02178   0.03314   0.05132   0.05908
  Beta virt. eigenvalues --    0.06476   0.07416   0.07976   0.08985   0.09186

 Mulliken charges and spin densities:
               1          2
     1  C   -0.455072   0.898962
     2  C    0.008689   0.016718
     3  H    0.190556  -0.000310
     4  C    0.730322   0.069943
     5  C   -0.869412   0.021810
     6  C    0.014872  -0.053979
     7  H    0.192417   0.054811
     8  H    0.187627  -0.007954
 Sum of Mulliken charges =  -0.00000   1.00000

 Dipole moment (field-independent basis, Debye):
    X=              3.7009    Y=              1.5668    Z=              2.1215  Tot=              4.5445
 Quadrupole moment (field-independent basis, Debye-Ang):
   XX=            -45.4877   YY=            -29.1081   ZZ=            -30.4122
   XY=             -1.3578   XZ=              4.2645   YZ=              0.0164

  Exact polarizability: 113.533   4.420  50.981  -2.822   0.107  47.469
 Approx polarizability: 196.445  20.276  77.671  -4.691   4.457  72.120

                      1                      2                      3
                      A                      A                      A
 Frequencies --     74.1412               175.9502               218.0803
 Red. masses --      6.2794                 4.8743                 7.7364
 Frc consts  --      0.0203                 0.0889                 0.2168
 IR Inten    --     20.7027                 9.5297                15.2297

                      4                      5                      6
                      A                      A                      A
 Frequencies --    348.0085               480.3531               537.5078
 Red. masses --      2.8600                 1.7012                 3.1758
 Frc consts  --      0.2041                 0.2313                 0.5406
 IR Inten    --     24.6951                 7.1275                 4.2824

                      7                      8                      9
                      A                      A                      A
 Frequencies --    824.0857               937.6676              1008.1781
 Red. masses --      1.4055                 2.7775                 2.3388
 Frc consts  --      0.5624                 1.4388                 1.4006
 IR Inten    --     10.6721                11.0006                 7.0197

                     10                     11                     12
                      A                      A                      A
 Frequencies --   1079.3504              1171.1129              1224.9457
 Red. masses --      1.8702                 1.8314                 1.7976
 Frc consts  --      1.2837                 1.4799                 1.5892
 IR Inten    --     32.3140                 7.0712                32.1969

                     13                     14                     15
                      A                      A                      A
 Frequencies --   1303.2863              1401.8290              2031.7405
 Red. masses --      1.0979                 1.8782                11.4259
 Frc consts  --      1.0987                 2.1747                27.7892
 IR Inten    --     25.3430                12.1459               692.9238

                     16                     17                     18
                      A                      A                      A
 Frequencies --   2850.3708              3013.4611              3123.6754
 Red. masses --      1.0679                 1.0851                 1.0886
 Frc consts  --      5.1119                 5.8055                 6.2585
 IR Inten    --     26.6311                 2.6452                 5.0858

 - Thermochemistry -
 -------------------
 Temperature   298.150 Kelvin.  Pressure   1.00000 Atm.
 Atom     1 has atomic number  6 and mass  12.00000

 Molecular mass:    63.02348 amu.
 Principal axes and moments of inertia in atomic units:
                           1         2         3
     Eigenvalues --    77.22835 620.16871 632.01876
           X            0.99982   0.00530   0.01806
           Y            0.00028   0.95526  -0.29578
           Z           -0.01882   0.29573   0.95508
 This molecule is an asymmetric top.
 Rotational symmetry number  1.
 Rotational temperatures (Kelvin)      1.12153     0.13966     0.13704
 Rotational constants (GHZ):          23.36890     2.91008     2.85552
 Zero-point vibrational energy     130415.4 (Joules/Mol)
                                   31.17002 (Kcal/Mol)
 Warning -- explicit consideration of   6 degrees of freedom as
           vibrations may cause significant error
 Vibrational temperatures:    106.67   253.15   313.77   500.71   691.12
          (Kelvin)            773.35  1185.67  1349.09  1450.54  1552.94
                             1684.97  1762.42  1875.14  2016.92  2923.22
                             4101.04  4335.69  4494.27

 Zero-point correction=                           0.049673 (Hartree/Particle)
 Thermal correction to Energy=                    0.055457
 Thermal correction to Enthalpy=                  0.056402
 Thermal correction to Gibbs Free Energy=         0.020255
 Sum of electronic and zero-point Energies=           -191.984766
 Sum of electronic and thermal Energies=              -191.978981
 Sum of electronic and thermal Enthalpies=            -191.978037
 Sum of electronic and thermal Free Energies=         -192.014183

                     E (Thermal)             CV                S
                      KCal/Mol        Cal/Mol-Kelvin    Cal/Mol-Kelvin
 Total                   34.800             18.059             76.076
 Electronic               0.000              0.000              1.377
 Translational            0.889              2.981             38.342
 Rotational               0.889              2.981             24.918
 Vibrational             33.023             12.097             11.438
 Vibration     1          0.599              1.966              4.040
 Vibration     2          0.628              1.872              2.371
 Vibration     3          0.646              1.814              1.975
 Vibration     4          0.726              1.579              1.175
 Vibration     5          0.837              1.294              0.709
 Vibration     6          0.893              1.167              0.571

 Optimization completed.
    -- Stationary point found.
 Normal termination of Gaussian 09 at Sun Jun 19 07:17:56 2016.
