 Gaussian 09, Revision E.01,
 Gaussian 09:  EM64L-G09RevE.01 30-Nov-2015

 ---------------------------------------------
 #p b3lyp/6-311++G(3df,2p) freq symmetry=Loose
 ---------------------------------------------

 ---------
 b3lyp opt
 ---------
 Symbolic Z-matrix:
 Charge =  1 Multiplicity = 3

                         Standard orientation:
 ---------------------------------------------------------------------
 Center     Atomic      Atomic             Coordinates (Angstroms)
 Number     Number       Type             X           Y           Z
 ---------------------------------------------------------------------
      1          1           0        1.697149   -0.345785    1.262180
      2          6           0        0.341916   -0.776141   -0.396351
      3          6           0       -0.782993   -0.073631    0.033206
      4          6           0       -2.150047   -0.066133    0.142420
      5          6           0        1.512135   -0.140220    0.209336
      6          1           0        2.402283   -0.015487   -0.398083
      7          6           0        0.336230    0.818216   -0.043830
      8          1           0        0.357121    1.788725   -0.532778
 ---------------------------------------------------------------------

 SCF Done:  E(UB3LYP) =  -191.746059724     A.U. after   23 cycles

 The electronic state is 3-A.
 Alpha  occ. eigenvalues --  -10.53883 -10.52750 -10.51490 -10.48533 -10.46912
 Alpha  occ. eigenvalues --   -1.23550  -1.02616  -0.92002  -0.88516  -0.76469
 Alpha  occ. eigenvalues --   -0.73097  -0.69285  -0.66577  -0.61580  -0.55032
 Alpha  occ. eigenvalues --   -0.52950  -0.49341
 Alpha virt. eigenvalues --   -0.36879  -0.27006  -0.23211  -0.15563  -0.14581
 Alpha virt. eigenvalues --   -0.13033  -0.12803  -0.09415  -0.08057  -0.07164
 Alpha virt. eigenvalues --   -0.06821  -0.06379  -0.05810  -0.04417  -0.03146

  Beta  occ. eigenvalues --  -10.52214 -10.52105 -10.50491 -10.48564 -10.46822
  Beta  occ. eigenvalues --   -1.22019  -1.00814  -0.90314  -0.86196  -0.73598
  Beta  occ. eigenvalues --   -0.71465  -0.67995  -0.64915  -0.58804  -0.53307
  Beta virt. eigenvalues --   -0.39699  -0.36746  -0.34150  -0.23800  -0.19605
  Beta virt. eigenvalues --   -0.14966  -0.14084  -0.12704  -0.12215  -0.09229
  Beta virt. eigenvalues --   -0.07873  -0.06900  -0.06209  -0.05835  -0.05070

 Mulliken charges and spin densities:
               1          2
     1  H    0.262745   0.043798
     2  C    0.230078   0.953950
     3  C    0.836258  -0.045100
     4  C   -0.228849   0.557828
     5  C   -0.485776  -0.004281
     6  H    0.206921   0.015878
     7  C   -0.086019   0.456200
     8  H    0.264641   0.021727
 Sum of Mulliken charges =   1.00000   2.00000

 Dipole moment (field-independent basis, Debye):
    X=              2.5730    Y=              1.0362    Z=             -0.1849  Tot=              2.7799
 Quadrupole moment (field-independent basis, Debye-Ang):
   XX=            -20.2555   YY=            -21.9204   ZZ=            -25.5632
   XY=              0.1874   XZ=              0.7332   YZ=             -1.1242

  Exact polarizability:  72.727  -0.085  41.382  -0.866   0.587  34.016
 Approx polarizability: 115.615   1.001  75.033  -3.491   4.929  50.145

                      1                      2                      3
                      A                      A                      A
 Frequencies --    219.0952               238.9304               494.5440
 Red. masses --      5.7678                 4.8099                 5.2681
 Frc consts  --      0.1631                 0.1618                 0.7591
 IR Inten    --      4.1408                 2.9554                 5.9246

                      4                      5                      6
                      A                      A                      A
 Frequencies --    645.0212               709.4958               798.6486
 Red. masses --      6.1258                 4.6536                 1.4424
 Frc consts  --      1.5016                 1.3802                 0.5421
 IR Inten    --      1.8767                16.9032                35.3945

                      7                      8                      9
                      A                      A                      A
 Frequencies --    915.0487               966.4517              1032.3097
 Red. masses --      2.3531                 2.7521                 1.2077
 Frc consts  --      1.1608                 1.5145                 0.7583
 IR Inten    --      4.9071                 2.3051                 1.8786

                     10                     11                     12
                      A                      A                      A
 Frequencies --   1040.4987              1091.9224              1174.4857
 Red. masses --      1.5181                 1.8984                 1.5127
 Frc consts  --      0.9684                 1.3336                 1.2294
 IR Inten    --      0.5248                23.3812                25.3516

                     13                     14                     15
                      A                      A                      A
 Frequencies --   1236.7041              1472.3018              1531.6403
 Red. masses --      3.3953                 1.2368                 5.7108
 Frc consts  --      3.0596                 1.5796                 7.8934
 IR Inten    --     19.6173                38.7063               113.9335

                     16                     17                     18
                      A                      A                      A
 Frequencies --   3075.3585              3147.8160              3179.0077
 Red. masses --      1.0571                 1.0937                 1.1132
 Frc consts  --      5.8906                 6.3851                 6.6283
 IR Inten    --     32.7904                65.9738                18.0261

 - Thermochemistry -
 -------------------
 Temperature   298.150 Kelvin.  Pressure   1.00000 Atm.
 Atom     1 has atomic number  1 and mass   1.00783

 Molecular mass:    63.02348 amu.
 Principal axes and moments of inertia in atomic units:
                           1         2         3
     Eigenvalues --    84.48781 379.15948 430.79380
           X            0.99994   0.00254   0.01027
           Y           -0.00155   0.99550  -0.09475
           Z           -0.01046   0.09473   0.99545
 This molecule is an asymmetric top.
 Rotational symmetry number  1.
 Rotational temperatures (Kelvin)      1.02516     0.22844     0.20106
 Rotational constants (GHZ):          21.36097     4.75985     4.18934
 Zero-point vibrational energy     137386.8 (Joules/Mol)
                                   32.83623 (Kcal/Mol)
 Warning -- explicit consideration of   3 degrees of freedom as
           vibrations may cause significant error
 Vibrational temperatures:    315.23   343.77   711.54   928.04  1020.80
          (Kelvin)           1149.08  1316.55  1390.51  1485.26  1497.04
                             1571.03  1689.82  1779.34  2118.31  2203.69
                             4424.75  4529.00  4573.88

 Zero-point correction=                           0.052328 (Hartree/Particle)
 Thermal correction to Energy=                    0.056972
 Thermal correction to Enthalpy=                  0.057916
 Thermal correction to Gibbs Free Energy=         0.024389
 Sum of electronic and zero-point Energies=           -191.693732
 Sum of electronic and thermal Energies=              -191.689087
 Sum of electronic and thermal Enthalpies=            -191.688143
 Sum of electronic and thermal Free Energies=         -191.721670

                     E (Thermal)             CV                S
                      KCal/Mol        Cal/Mol-Kelvin    Cal/Mol-Kelvin
 Total                   35.751             15.633             70.564
 Electronic               0.000              0.000              2.183
 Translational            0.889              2.981             38.342
 Rotational               0.889              2.981             24.138
 Vibrational             33.973              9.672              5.901
 Vibration     1          0.647              1.812              1.967
 Vibration     2          0.657              1.781              1.811
 Vibration     3          0.850              1.262              0.672

 Optimization completed.
    -- Stationary point found.
 Normal termination of Gaussian 09 at Sun Jun 19 10:53:49 2016.
