 Gaussian 09, Revision E.01,
 Gaussian 09:  EM64L-G09RevE.01 30-Nov-2015

 ---------------------------------------------
 #p b3lyp/6-311++G(3df,2p) freq symmetry=Loose
 ---------------------------------------------

 ---------
 b3lyp opt
 ---------
 Symbolic Z-matrix:
 Charge =  0 Multiplicity = 2

                         Standard orientation:
 ---------------------------------------------------------------------
 Center     Atomic      Atomic             Coordinates (Angstroms)
 Number     Number       Type             X           Y           Z
 ---------------------------------------------------------------------
      1          6           0       -2.528447    0.075056    0.000000
      2          6           0       -1.244478   -0.207423    0.000000
      3          1           0       -1.305354   -1.315104    0.000000
      4          6           0        0.000000    0.454925    0.000000
      5          1           0        0.000247    1.534686    0.000000
      6          6           0        1.243922   -0.207857    0.000000
      7          1           0        1.304462   -1.315963    0.000000
      8          6           0        2.529111    0.068030    0.000000
 ---------------------------------------------------------------------

 SCF Done:  E(UB3LYP) =  -192.073250589     A.U. after   20 cycles

 The electronic state is 2-A".
 Alpha  occ. eigenvalues --  -10.25801 -10.25787 -10.24731 -10.21450 -10.21447
 Alpha  occ. eigenvalues --   -0.87285  -0.81888  -0.72683  -0.57436  -0.55120
 Alpha  occ. eigenvalues --   -0.49933  -0.43438  -0.40176  -0.33063  -0.33024
 Alpha  occ. eigenvalues --   -0.31725  -0.22858
 Alpha virt. eigenvalues --   -0.13049  -0.11032  -0.01592  -0.01111   0.00580
 Alpha virt. eigenvalues --    0.01786   0.02018   0.04476   0.05851   0.06038
 Alpha virt. eigenvalues --    0.07173   0.07686   0.08088   0.10024   0.10384

  Beta  occ. eigenvalues --  -10.25231 -10.25217 -10.23850 -10.21684 -10.21681
  Beta  occ. eigenvalues --   -0.86425  -0.81377  -0.70859  -0.57020  -0.54432
  Beta  occ. eigenvalues --   -0.49806  -0.43091  -0.37624  -0.32115  -0.30973
  Beta  occ. eigenvalues --   -0.30905
  Beta virt. eigenvalues --   -0.12840  -0.12360  -0.10373  -0.01132   0.00272
  Beta virt. eigenvalues --    0.00669   0.01803   0.03029   0.04703   0.05880
  Beta virt. eigenvalues --    0.06123   0.07280   0.07684   0.08842   0.10109

 Mulliken charges and spin densities:
               1          2
     1  C   -0.697964   0.389494
     2  C    0.445625  -0.193889
     3  H    0.142223  -0.002626
     4  C    0.060121   0.630435
     5  H    0.158117  -0.016722
     6  C    0.448805  -0.193761
     7  H    0.142209  -0.002675
     8  C   -0.699136   0.389745
 Sum of Mulliken charges =  -0.00000   1.00000

 Dipole moment (field-independent basis, Debye):
    X=             -0.0061    Y=             -0.9573    Z=              0.0000  Tot=              0.9573
 Quadrupole moment (field-independent basis, Debye-Ang):
   XX=            -48.4095   YY=            -24.4000   ZZ=            -32.9346
   XY=              0.0473   XZ=              0.0000   YZ=              0.0000

  Exact polarizability: 111.360  -0.091  48.877   0.000   0.000  41.037
 Approx polarizability: 170.756  -0.122  78.064  -0.000  -0.000  57.623

                      1                      2                      3
                     A'                     A"                     A'
 Frequencies --    125.3807               147.3719               191.8209
 Red. masses --      9.4346                 8.2037                 5.5036
 Frc consts  --      0.0874                 0.1050                 0.1193
 IR Inten    --     30.3947                14.2586                21.8531

                      4                      5                      6
                     A"                     A'                     A"
 Frequencies --    281.5167               405.8120               623.9915
 Red. masses --      2.4413                 3.2898                 1.5388
 Frc consts  --      0.1140                 0.3192                 0.3530
 IR Inten    --      0.0001                 0.3816                 0.0008

                      7                      8                      9
                     A"                     A"                     A'
 Frequencies --    701.5900               753.8401               819.2213
 Red. masses --      2.2052                 1.1321                 2.4338
 Frc consts  --      0.6395                 0.3790                 0.9624
 IR Inten    --      9.0535                48.5896                 0.2544

                     10                     11                     12
                     A'                     A'                     A'
 Frequencies --    899.0601              1137.1510              1179.1088
 Red. masses --      1.1350                 2.0942                 2.5073
 Frc consts  --      0.5405                 1.5956                 2.0538
 IR Inten    --      0.0214                 0.2111                 2.1751

                     13                     14                     15
                     A'                     A'                     A'
 Frequencies --   1376.2229              1557.4247              1665.6460
 Red. masses --      1.7222                 5.8586                 8.3903
 Frc consts  --      1.9218                 8.3726                13.7150
 IR Inten    --      0.2283               133.0790                28.0374

                     16                     17                     18
                     A'                     A'                     A'
 Frequencies --   2936.5375              2940.2767              3199.2441
 Red. masses --      1.0768                 1.0765                 1.0872
 Frc consts  --      5.4709                 5.4831                 6.5565
 IR Inten    --     18.1195                23.1021                 0.0449

 - Thermochemistry -
 -------------------
 Temperature   298.150 Kelvin.  Pressure   1.00000 Atm.
 Atom     1 has atomic number  6 and mass  12.00000

 Molecular mass:    63.02348 amu.
 Principal axes and moments of inertia in atomic units:
                           1         2         3
     Eigenvalues --    33.86928 692.99600 726.86528
           X            1.00000   0.00118   0.00000
           Y           -0.00118   1.00000   0.00000
           Z           -0.00000   0.00000   1.00000
 This molecule is an asymmetric top.
 Rotational symmetry number  1.
 Rotational temperatures (Kelvin)      2.55730     0.12498     0.11916
 Rotational constants (GHZ):          53.28549     2.60426     2.48291
 Zero-point vibrational energy     125256.3 (Joules/Mol)
                                   29.93697 (Kcal/Mol)
 Warning -- explicit consideration of   5 degrees of freedom as
           vibrations may cause significant error
 Vibrational temperatures:    180.39   212.04   275.99   405.04   583.87
          (Kelvin)            897.78  1009.43  1084.61  1178.68  1293.55
                             1636.10  1696.47  1980.08  2240.78  2396.49
                             4225.02  4230.40  4602.99

 Zero-point correction=                           0.047708 (Hartree/Particle)
 Thermal correction to Energy=                    0.053730
 Thermal correction to Enthalpy=                  0.054674
 Thermal correction to Gibbs Free Energy=         0.018614
 Sum of electronic and zero-point Energies=           -192.025543
 Sum of electronic and thermal Energies=              -192.019521
 Sum of electronic and thermal Enthalpies=            -192.018576
 Sum of electronic and thermal Free Energies=         -192.054636

                     E (Thermal)             CV                S
                      KCal/Mol        Cal/Mol-Kelvin    Cal/Mol-Kelvin
 Total                   33.716             19.156             75.894
 Electronic               0.000              0.000              1.377
 Translational            0.889              2.981             38.342
 Rotational               0.889              2.981             24.349
 Vibrational             31.939             13.195             11.826
 Vibration     1          0.610              1.928              3.016
 Vibration     2          0.617              1.906              2.706
 Vibration     3          0.634              1.851              2.210
 Vibration     4          0.681              1.708              1.524
 Vibration     5          0.771              1.458              0.942

 Normal termination of Gaussian 09 at Sun Jun 19 07:14:08 2016.
