 Gaussian 09, Revision E.01,
 Gaussian 09:  EM64L-G09RevE.01 30-Nov-2015

 ------------------------------------------------------
 #p b3lyp/6-311++G(3df,2p) freq IOp(2/17=3) IOp(2/18=3)
 ------------------------------------------------------

 ---------
 b3lyp opt
 ---------
 Symbolic Z-matrix:
 Charge =  1 Multiplicity = 3

                         Standard orientation:
 ---------------------------------------------------------------------
 Center     Atomic      Atomic             Coordinates (Angstroms)
 Number     Number       Type             X           Y           Z
 ---------------------------------------------------------------------
      1          6           0        1.183635    0.139753    0.000000
      2          1           0        1.821007    0.230924    0.883885
      3          1           0        1.821007    0.230924   -0.883885
      4          6           0        0.318200   -1.080915    0.000000
      5          6           0       -0.925794   -0.992821    0.000000
      6          6           0        0.000000    1.127813    0.000000
      7          1           0        0.085047    2.208842    0.000000
      8          6           0       -1.197273    0.361061    0.000000
 ---------------------------------------------------------------------

 SCF Done:  E(UB3LYP) =  -191.771989494     A.U. after   22 cycles

 The electronic state is 3-A".
 Alpha  occ. eigenvalues --  -10.51169 -10.50243 -10.50147 -10.46719 -10.45829
 Alpha  occ. eigenvalues --   -1.17434  -0.99913  -0.97475  -0.82560  -0.76335
 Alpha  occ. eigenvalues --   -0.71640  -0.71609  -0.67501  -0.60219  -0.56909
 Alpha  occ. eigenvalues --   -0.52524  -0.49214
 Alpha virt. eigenvalues --   -0.37956  -0.32073  -0.17958  -0.16357  -0.13176
 Alpha virt. eigenvalues --   -0.12442  -0.11336  -0.09934  -0.08459  -0.07836
 Alpha virt. eigenvalues --   -0.07123  -0.06449  -0.06115  -0.03560  -0.02476

  Beta  occ. eigenvalues --  -10.49425 -10.49238 -10.49162 -10.46723 -10.45807
  Beta  occ. eigenvalues --   -1.15363  -0.98768  -0.94195  -0.80645  -0.75454
  Beta  occ. eigenvalues --   -0.70003  -0.69094  -0.66455  -0.57868  -0.54011
  Beta virt. eigenvalues --   -0.41103  -0.36251  -0.33843  -0.27235  -0.16237
  Beta virt. eigenvalues --   -0.14937  -0.12700  -0.12246  -0.11000  -0.09564
  Beta virt. eigenvalues --   -0.08303  -0.07163  -0.06911  -0.05661  -0.05476

 Mulliken charges and spin densities:
               1          2
     1  C   -0.254591  -0.051635
     2  H    0.215554   0.000232
     3  H    0.215554   0.000232
     4  C    0.426611   0.648341
     5  C    0.029426  -0.204918
     6  C   -0.091349   0.603059
     7  H    0.243992  -0.013185
     8  C    0.214802   1.017874
 Sum of Mulliken charges =   1.00000   2.00000

 Dipole moment (field-independent basis, Debye):
    X=              1.9202    Y=              1.3696    Z=              0.0000  Tot=              2.3586
 Quadrupole moment (field-independent basis, Debye-Ang):
   XX=            -20.2611   YY=            -19.6661   ZZ=            -25.4131
   XY=              0.6738   XZ=              0.0000   YZ=              0.0000

  Exact polarizability:  51.270   1.386  53.164  -0.000   0.000  29.613
 Approx polarizability: 117.603  -1.709  95.965   0.000  -0.000  44.257

                      1                      2                      3
                     A"                     A"                     A"
 Frequencies --    168.3534               307.2514               648.2668
 Red. masses --      3.1660                 2.7239                 1.1971
 Frc consts  --      0.0529                 0.1515                 0.2964
 IR Inten    --      1.0322                 0.1617                 9.1511

                      4                      5                      6
                     A'                     A'                     A'
 Frequencies --    702.0117               785.8005               863.6306
 Red. masses --      7.6482                10.5122                 2.8193
 Frc consts  --      2.2208                 3.8245                 1.2389
 IR Inten    --     14.6411                 6.3195                 9.0713

                      7                      8                      9
                     A"                     A'                     A"
 Frequencies --    929.9301               948.9547              1115.8718
 Red. masses --      2.0254                 5.0605                 1.1095
 Frc consts  --      1.0320                 2.6850                 0.8140
 IR Inten    --      0.0757                 0.1710                 1.3563

                     10                     11                     12
                     A'                     A'                     A'
 Frequencies --   1117.1162              1216.8072              1310.6152
 Red. masses --      2.4659                 1.5421                 1.9140
 Frc consts  --      1.8131                 1.3452                 1.9370
 IR Inten    --     23.2736                46.0811                 6.1959

                     13                     14                     15
                     A'                     A'                     A'
 Frequencies --   1399.6597              1412.6408              2069.5610
 Red. masses --      1.7041                 2.1752                11.7239
 Frc consts  --      1.9670                 2.5574                29.5855
 IR Inten    --     13.0605                57.0760               255.4832

                     16                     17                     18
                     A'                     A"                     A'
 Frequencies --   3045.1877              3082.7826              3187.8934
 Red. masses --      1.0596                 1.1024                 1.0940
 Frc consts  --      5.7891                 6.1726                 6.5504
 IR Inten    --     44.1647                25.8535                18.5891

 - Thermochemistry -
 -------------------
 Temperature   298.150 Kelvin.  Pressure   1.00000 Atm.
 Atom     1 has atomic number  6 and mass  12.00000

 Molecular mass:    63.02348 amu.
 Principal axes and moments of inertia in atomic units:
                           1         2         3
     Eigenvalues --   165.87135 201.81172 356.43612
           X            0.84074  -0.54144   0.00000
           Y            0.54144   0.84074   0.00000
           Z            0.00000   0.00000   1.00000
 This molecule is an asymmetric top.
 Rotational symmetry number  1.
 Rotational temperatures (Kelvin)      0.52217     0.42918     0.24300
 Rotational constants (GHZ):          10.88037     8.94270     5.06329
 Zero-point vibrational energy     145420.1 (Joules/Mol)
                                   34.75623 (Kcal/Mol)
 Warning -- explicit consideration of   2 degrees of freedom as
           vibrations may cause significant error
 Vibrational temperatures:    242.22   442.07   932.71  1010.04  1130.59
          (Kelvin)           1242.57  1337.96  1365.33  1605.49  1607.28
                             1750.71  1885.68  2013.80  2032.47  2977.63
                             4381.34  4435.43  4586.66

 Zero-point correction=                           0.055388 (Hartree/Particle)
 Thermal correction to Energy=                    0.059816
 Thermal correction to Enthalpy=                  0.060760
 Thermal correction to Gibbs Free Energy=         0.027566
 Sum of electronic and zero-point Energies=           -191.716602
 Sum of electronic and thermal Energies=              -191.712173
 Sum of electronic and thermal Enthalpies=            -191.711229
 Sum of electronic and thermal Free Energies=         -191.744424

                     E (Thermal)             CV                S
                      KCal/Mol        Cal/Mol-Kelvin    Cal/Mol-Kelvin
 Total                   37.535             14.469             69.863
 Electronic               0.000              0.000              2.183
 Translational            0.889              2.981             38.342
 Rotational               0.889              2.981             23.993
 Vibrational             35.758              8.507              5.345
 Vibration     1          0.625              1.881              2.454
 Vibration     2          0.697              1.660              1.377

 Optimization completed.
    -- Stationary point found.
 Normal termination of Gaussian 09 at Thu Jan 31 05:48:38 2019.
