 Gaussian 09, Revision E.01,
 Gaussian 09:  EM64L-G09RevE.01 30-Nov-2015

 ---------------------------------------------
 #p b3lyp/6-311++G(3df,2p) freq symmetry=Loose
 ---------------------------------------------

 ---------
 b3lyp opt
 ---------
 Symbolic Z-matrix:
 Charge =  3 Multiplicity = 1

                         Standard orientation:
 ---------------------------------------------------------------------
 Center     Atomic      Atomic             Coordinates (Angstroms)
 Number     Number       Type             X           Y           Z
 ---------------------------------------------------------------------
      1          6           0       -1.209196    0.234162    0.000000
      2          1           0       -1.918660    0.315658   -0.891027
      3          1           0       -1.918660    0.315658    0.891027
      4          6           0       -0.196681   -0.931428    0.000000
      5          6           0        1.094790   -1.146911    0.000000
      6          6           0       -0.076207    1.214415    0.000000
      7          1           0        0.000000    2.337415    0.000000
      8          6           0        1.026839    0.134974    0.000000
 ---------------------------------------------------------------------

 SCF Done:  E(RB3LYP) =  -190.360308684     A.U. after   13 cycles

 The electronic state is 1-A'.
 Alpha  occ. eigenvalues --  -11.12801 -11.11570 -11.11400 -11.07886 -10.98755
 Alpha  occ. eigenvalues --   -1.78203  -1.58608  -1.44000  -1.32502  -1.31177
 Alpha  occ. eigenvalues --   -1.22138  -1.21617  -1.18708  -1.12388  -1.12016
 Alpha virt. eigenvalues --   -0.94220  -0.91962  -0.82653  -0.78173  -0.71801
 Alpha virt. eigenvalues --   -0.66042  -0.57325  -0.54657  -0.52120  -0.49911
 Alpha virt. eigenvalues --   -0.47840  -0.44165  -0.43441  -0.43225  -0.40528

 Mulliken charges:
               1
     1  C   -0.212031
     2  H    0.340800
     3  H    0.340800
     4  C    0.499844
     5  C    0.697775
     6  C    0.471401
     7  H    0.433829
     8  C    0.427582
 Sum of Mulliken charges =   3.00000

 Dipole moment (field-independent basis, Debye):
    X=             -1.1610    Y=              2.0447    Z=              0.0000  Tot=              2.3513
 Quadrupole moment (field-independent basis, Debye-Ang):
   XX=             -1.7853   YY=             -0.9646   ZZ=            -18.8276
   XY=             -4.5861   XZ=              0.0000   YZ=              0.0000

  Exact polarizability:  43.361  -5.244  39.988   0.000   0.000  21.982
 Approx polarizability:  91.252 -11.480  86.823   0.000   0.000  34.523

                      1                      2                      3
                     A"                     A"                     A'
 Frequencies --    293.2231               384.6806               589.5901
 Red. masses --      2.4996                 2.7365                 8.4853
 Frc consts  --      0.1266                 0.2386                 1.7379
 IR Inten    --      0.0397                12.0626                 4.8273

                      4                      5                      6
                     A"                     A'                     A'
 Frequencies --    631.6187               646.4161               728.3420
 Red. masses --      1.4092                10.3329                 4.1853
 Frc consts  --      0.3312                 2.5439                 1.3081
 IR Inten    --     30.2287                 4.4149                64.5726

                      7                      8                      9
                     A'                     A'                     A"
 Frequencies --    763.1407               902.7563               964.8328
 Red. masses --      4.6274                 4.8189                 1.6580
 Frc consts  --      1.5878                 2.3139                 0.9094
 IR Inten    --     18.5440                24.6650                 0.0629

                     10                     11                     12
                     A"                     A'                     A'
 Frequencies --   1060.0001              1067.9201              1145.5580
 Red. masses --      1.2576                 1.1275                 1.2639
 Frc consts  --      0.8325                 0.7576                 0.9773
 IR Inten    --      1.4968                92.0708                81.4551

                     13                     14                     15
                     A'                     A'                     A'
 Frequencies --   1199.0363              1622.6000              1770.3392
 Red. masses --      1.3412                10.6998                10.7048
 Frc consts  --      1.1361                16.5978                19.7670
 IR Inten    --    159.8062                10.4229                24.3223

                     16                     17                     18
                     A"                     A'                     A'
 Frequencies --   2577.9087              2607.6213              2819.1980
 Red. masses --      1.0964                 1.0607                 1.1064
 Frc consts  --      4.2928                 4.2495                 5.1812
 IR Inten    --    374.9004               799.0702               438.8868

 - Thermochemistry -
 -------------------
 Temperature   298.150 Kelvin.  Pressure   1.00000 Atm.
 Atom     1 has atomic number  6 and mass  12.00000

 Molecular mass:    63.02348 amu.
 Principal axes and moments of inertia in atomic units:
                           1         2         3
     Eigenvalues --   129.04615 248.93407 366.55078
           X            0.72752   0.68609   0.00000
           Y           -0.68609   0.72752   0.00000
           Z           -0.00000   0.00000   1.00000
 This molecule is an asymmetric top.
 Rotational symmetry number  1.
 Rotational temperatures (Kelvin)      0.67118     0.34794     0.23629
 Rotational constants (GHZ):          13.98524     7.24988     4.92358
 Zero-point vibrational energy     130242.1 (Joules/Mol)
                                   31.12861 (Kcal/Mol)
 Warning -- explicit consideration of   3 degrees of freedom as
           vibrations may cause significant error
 Vibrational temperatures:    421.88   553.47   848.29   908.76   930.05
          (Kelvin)           1047.92  1097.99  1298.86  1388.18  1525.10
                             1536.50  1648.20  1725.14  2334.56  2547.12
                             3709.03  3751.78  4056.19

 Zero-point correction=                           0.049607 (Hartree/Particle)
 Thermal correction to Energy=                    0.054025
 Thermal correction to Enthalpy=                  0.054969
 Thermal correction to Gibbs Free Energy=         0.023112
 Sum of electronic and zero-point Energies=           -190.310702
 Sum of electronic and thermal Energies=              -190.306284
 Sum of electronic and thermal Enthalpies=            -190.305340
 Sum of electronic and thermal Free Energies=         -190.337197

                     E (Thermal)             CV                S
                      KCal/Mol        Cal/Mol-Kelvin    Cal/Mol-Kelvin
 Total                   33.901             15.661             67.049
 Electronic               0.000              0.000              0.000
 Translational            0.889              2.981             38.342
 Rotational               0.889              2.981             23.980
 Vibrational             32.123              9.700              4.727
 Vibration     1          0.688              1.686              1.455
 Vibration     2          0.754              1.503              1.021
 Vibration     3          0.947              1.054              0.468

 Optimization completed.
    -- Stationary point found.
 Normal termination of Gaussian 09 at Tue Jul 19 15:57:35 2016.
