 Gaussian 09, Revision E.01,
 Gaussian 09:  EM64L-G09RevE.01 30-Nov-2015

 ---------------------------------------------
 #p b3lyp/6-311++G(3df,2p) freq symmetry=Loose
 ---------------------------------------------

 ---------
 b3lyp opt
 ---------
 Symbolic Z-matrix:
 Charge =  1 Multiplicity = 1

                         Standard orientation:
 ---------------------------------------------------------------------
 Center     Atomic      Atomic             Coordinates (Angstroms)
 Number     Number       Type             X           Y           Z
 ---------------------------------------------------------------------
      1          6           0       -0.000000   -0.664679   -1.040819
      2          6           0        0.692870   -0.837123    0.233343
      3          1           0        1.586451   -1.435399    0.368604
      4          6           0       -0.000000    0.000000    1.124699
      5          1           0       -0.000000    0.000000    2.204310
      6          6           0       -0.692870    0.837123    0.233343
      7          1           0       -1.586451    1.435399    0.368604
      8          6           0        0.000000    0.664679   -1.040819
 ---------------------------------------------------------------------

 SCF Done:  E(RB3LYP) =  -191.839543186     A.U. after   11 cycles

 The electronic state is 1-A.
 Alpha  occ. eigenvalues --  -10.51118 -10.51116 -10.49549 -10.49464 -10.45547
 Alpha  occ. eigenvalues --   -1.20043  -0.98808  -0.97142  -0.81082  -0.76626
 Alpha  occ. eigenvalues --   -0.76224  -0.69301  -0.65122  -0.63299  -0.54592
 Alpha  occ. eigenvalues --   -0.50904
 Alpha virt. eigenvalues --   -0.37378  -0.34388  -0.27675  -0.22636  -0.14607
 Alpha virt. eigenvalues --   -0.13406  -0.12009  -0.10651  -0.10185  -0.08655
 Alpha virt. eigenvalues --   -0.08462  -0.06288  -0.05470  -0.05045  -0.03527

 Mulliken charges:
               1
     1  C    0.091283
     2  C    0.144918
     3  H    0.267775
     4  C   -0.249369
     5  H    0.241417
     6  C    0.144918
     7  H    0.267775
     8  C    0.091283
 Sum of Mulliken charges =   1.00000

 Dipole moment (field-independent basis, Debye):
    X=             -0.0000    Y=              0.0000    Z=              1.9291  Tot=              1.9291
 Quadrupole moment (field-independent basis, Debye-Ang):
   XX=            -21.0446   YY=            -22.2758   ZZ=            -21.7409
   XY=             -6.5600   XZ=              0.0000   YZ=              0.0000

  Exact polarizability:  36.970  -9.911  48.210  -0.000  -0.000  55.588
 Approx polarizability:  63.639 -23.832 107.983   0.000  -0.000 114.147

                      1                      2                      3
                      B                      B                      A
 Frequencies --    209.5018               497.9152               503.4707
 Red. masses --      2.1721                 3.8646                 5.0146
 Frc consts  --      0.0562                 0.5645                 0.7489
 IR Inten    --     13.2500                46.8833                 0.7689

                      4                      5                      6
                      A                      B                      B
 Frequencies --    782.4592               849.7276               911.6553
 Red. masses --      7.6993                 1.9939                 2.3956
 Frc consts  --      2.7773                 0.8482                 1.1731
 IR Inten    --      0.9902                28.0780                77.0932

                      7                      8                      9
                      B                      A                      A
 Frequencies --    982.3334               997.2301              1064.3243
 Red. masses --      1.8772                 1.4919                 1.4433
 Frc consts  --      1.0673                 0.8741                 0.9633
 IR Inten    --     12.0598                35.3889                17.0720

                     10                     11                     12
                      B                      A                      B
 Frequencies --   1079.3561              1159.2183              1229.7145
 Red. masses --      1.2585                 4.5592                 1.3965
 Frc consts  --      0.8638                 3.6097                 1.2442
 IR Inten    --      6.5016                 2.1147                 4.7056

                     13                     14                     15
                      A                      B                      A
 Frequencies --   1309.5849              1403.8175              1419.5907
 Red. masses --      8.8016                 2.7261                 3.0874
 Frc consts  --      8.8936                 3.1652                 3.6658
 IR Inten    --     20.1681               146.0856                 2.9950

                     16                     17                     18
                      A                      B                      A
 Frequencies --   3195.6078              3196.6201              3231.3081
 Red. masses --      1.0961                 1.0950                 1.1034
 Frc consts  --      6.5951                 6.5923                 6.7877
 IR Inten    --      0.0471                68.2516                30.9064

 - Thermochemistry -
 -------------------
 Temperature   298.150 Kelvin.  Pressure   1.00000 Atm.
 Atom     1 has atomic number  6 and mass  12.00000

 Molecular mass:    63.02348 amu.
 Principal axes and moments of inertia in atomic units:
                           1         2         3
     Eigenvalues --   172.01622 184.40085 327.01773
           X            0.00000  -0.55898   0.82918
           Y            0.00000   0.82918   0.55898
           Z            1.00000  -0.00000  -0.00000
 This molecule is an asymmetric top.
 Rotational symmetry number  2.
 Rotational temperatures (Kelvin)      0.50352     0.46970     0.26486
 Rotational constants (GHZ):          10.49169     9.78705     5.51879
 Zero-point vibrational energy     143692.1 (Joules/Mol)
                                   34.34323 (Kcal/Mol)
 Warning -- explicit consideration of   3 degrees of freedom as
           vibrations may cause significant error
 Vibrational temperatures:    301.43   716.39   724.38  1125.78  1222.57
          (Kelvin)           1311.67  1413.36  1434.79  1531.32  1552.95
                             1667.85  1769.28  1884.20  2019.78  2042.47
                             4597.76  4599.22  4649.13

 Zero-point correction=                           0.054729 (Hartree/Particle)
 Thermal correction to Energy=                    0.058948
 Thermal correction to Enthalpy=                  0.059892
 Thermal correction to Gibbs Free Energy=         0.028920
 Sum of electronic and zero-point Energies=           -191.784814
 Sum of electronic and thermal Energies=              -191.780596
 Sum of electronic and thermal Enthalpies=            -191.779651
 Sum of electronic and thermal Free Energies=         -191.810624

                     E (Thermal)             CV                S
                      KCal/Mol        Cal/Mol-Kelvin    Cal/Mol-Kelvin
 Total                   36.990             14.175             65.186
 Electronic               0.000              0.000              0.000
 Translational            0.889              2.981             38.342
 Rotational               0.889              2.981             22.477
 Vibrational             35.213              8.214              4.368
 Vibration     1          0.642              1.826              2.048
 Vibration     2          0.853              1.255              0.663
 Vibration     3          0.859              1.242              0.650

 Optimization completed.
    -- Stationary point found.
 Normal termination of Gaussian 09 at Tue Jul 19 16:31:29 2016.
