 Gaussian 09, Revision E.01,
 Gaussian 09:  EM64L-G09RevE.01 30-Nov-2015

 ---------------------------------------------
 #p b3lyp/6-311++G(3df,2p) freq symmetry=Loose
 ---------------------------------------------

 ---------
 b3lyp opt
 ---------
 Symbolic Z-matrix:
 Charge =  1 Multiplicity = 3

                         Standard orientation:
 ---------------------------------------------------------------------
 Center     Atomic      Atomic             Coordinates (Angstroms)
 Number     Number       Type             X           Y           Z
 ---------------------------------------------------------------------
      1          1           0       -2.123522   -0.069853   -0.305475
      2          6           0       -1.058118   -0.141380   -0.163078
      3          6           0        0.021045   -1.126899   -0.220276
      4          6           0        0.117942    0.950428   -0.298102
      5          1           0        0.108171    1.980123   -0.624245
      6          6           0        1.066338   -0.176351   -0.125212
      7          1           0        2.106335   -0.216332    0.158777
      8          6           0       -0.162371    0.211879    0.935157
 ---------------------------------------------------------------------

 SCF Done:  E(UB3LYP) =  -191.766841210     A.U. after   16 cycles

 The electronic state is 3-A.
 Alpha  occ. eigenvalues --  -10.53483 -10.51262 -10.50092 -10.49523 -10.49045
 Alpha  occ. eigenvalues --   -1.29655  -0.96839  -0.95878  -0.84133  -0.79583
 Alpha  occ. eigenvalues --   -0.74635  -0.69810  -0.68241  -0.61028  -0.57609
 Alpha  occ. eigenvalues --   -0.55876  -0.50311
 Alpha virt. eigenvalues --   -0.25815  -0.20185  -0.18775  -0.15521  -0.14533
 Alpha virt. eigenvalues --   -0.13207  -0.13002  -0.10403  -0.08429  -0.07924
 Alpha virt. eigenvalues --   -0.07548  -0.06670  -0.06311  -0.05620  -0.03811

  Beta  occ. eigenvalues --  -10.51917 -10.49799 -10.49510 -10.49224 -10.48974
  Beta  occ. eigenvalues --   -1.28116  -0.96063  -0.93455  -0.81786  -0.78481
  Beta  occ. eigenvalues --   -0.71816  -0.68223  -0.66886  -0.58310  -0.55053
  Beta virt. eigenvalues --   -0.40303  -0.35918  -0.23686  -0.18555  -0.16958
  Beta virt. eigenvalues --   -0.15084  -0.14213  -0.12492  -0.12016  -0.09845
  Beta virt. eigenvalues --   -0.08254  -0.07223  -0.06888  -0.06589  -0.05876

 Mulliken charges and spin densities:
               1          2
     1  H    0.332904  -0.005115
     2  C    0.359089   0.007240
     3  C   -0.179607   0.919534
     4  C   -0.202790   0.328053
     5  H    0.306137   0.011308
     6  C    0.156494  -0.085236
     7  H    0.239486  -0.000334
     8  C   -0.011715   0.824550
 Sum of Mulliken charges =   1.00000   2.00000

 Dipole moment (field-independent basis, Debye):
    X=              0.0524    Y=              1.2260    Z=             -0.3651  Tot=              1.2803
 Quadrupole moment (field-independent basis, Debye-Ang):
   XX=            -16.7324   YY=            -21.9920   ZZ=            -25.9904
   XY=             -0.1131   XZ=              0.9108   YZ=             -1.2707

  Exact polarizability:  42.241  -0.123  44.649  -0.089   1.743  35.228
 Approx polarizability:  67.106   0.115  79.245  -2.292   8.731  66.409

                      1                      2                      3
                      A                      A                      A
 Frequencies --    129.9929               439.4685               681.3231
 Red. masses --      7.4560                 6.9535                 2.9721
 Frc consts  --      0.0742                 0.7912                 0.8129
 IR Inten    --     20.0529                 2.5392                 7.3777

                      4                      5                      6
                      A                      A                      A
 Frequencies --    724.6893               841.0571               880.9837
 Red. masses --      5.6723                 1.3931                 1.2204
 Frc consts  --      1.7552                 0.5806                 0.5581
 IR Inten    --     20.3518                23.8718                24.0287

                      7                      8                      9
                      A                      A                      A
 Frequencies --    912.0083               935.5081               983.1780
 Red. masses --      2.0983                 2.4887                 1.2319
 Frc consts  --      1.0283                 1.2833                 0.7016
 IR Inten    --     39.6470                13.8101                 2.6565

                     10                     11                     12
                      A                      A                      A
 Frequencies --   1039.0044              1055.0768              1109.0713
 Red. masses --      1.7877                 2.2921                 1.5389
 Frc consts  --      1.1371                 1.5033                 1.1153
 IR Inten    --     12.7627                16.2303                 5.2441

                     13                     14                     15
                      A                      A                      A
 Frequencies --   1246.9064              1301.0120              1328.6408
 Red. masses --      2.8834                 6.4606                 4.5778
 Frc consts  --      2.6413                 6.4430                 4.7613
 IR Inten    --     10.6963                 0.5048                10.8913

                     16                     17                     18
                      A                      A                      A
 Frequencies --   3228.7853              3251.2703              3268.8214
 Red. masses --      1.1009                 1.1037                 1.1060
 Frc consts  --      6.7620                 6.8737                 6.9626
 IR Inten    --     80.5758                59.1147                62.7766

 - Thermochemistry -
 -------------------
 Temperature   298.150 Kelvin.  Pressure   1.00000 Atm.
 Atom     1 has atomic number  1 and mass   1.00783

 Molecular mass:    63.02348 amu.
 Principal axes and moments of inertia in atomic units:
                           1         2         3
     Eigenvalues --   158.22255 177.34679 242.50578
           X            0.99924  -0.00501   0.03864
           Y            0.00768   0.99756  -0.06934
           Z           -0.03820   0.06959   0.99684
 This molecule is an asymmetric top.
 Rotational symmetry number  1.
 Rotational temperatures (Kelvin)      0.54742     0.48839     0.35716
 Rotational constants (GHZ):          11.40635    10.17634     7.44205
 Zero-point vibrational energy     139704.7 (Joules/Mol)
                                   33.39022 (Kcal/Mol)
 Warning -- explicit consideration of   2 degrees of freedom as
           vibrations may cause significant error
 Vibrational temperatures:    187.03   632.30   980.27  1042.67  1210.09
          (Kelvin)           1267.54  1312.17  1345.99  1414.57  1494.89
                             1518.02  1595.70  1794.02  1871.86  1911.62
                             4645.50  4677.85  4703.10

 Zero-point correction=                           0.053211 (Hartree/Particle)
 Thermal correction to Energy=                    0.057602
 Thermal correction to Enthalpy=                  0.058547
 Thermal correction to Gibbs Free Energy=         0.025609
 Sum of electronic and zero-point Energies=           -191.713631
 Sum of electronic and thermal Energies=              -191.709239
 Sum of electronic and thermal Enthalpies=            -191.708295
 Sum of electronic and thermal Free Energies=         -191.741233

                     E (Thermal)             CV                S
                      KCal/Mol        Cal/Mol-Kelvin    Cal/Mol-Kelvin
 Total                   36.146             14.750             69.324
 Electronic               0.000              0.000              2.183
 Translational            0.889              2.981             38.342
 Rotational               0.889              2.981             23.435
 Vibrational             34.369              8.789              5.363
 Vibration     1          0.612              1.923              2.946
 Vibration     2          0.800              1.384              0.828

 Optimization completed.
    -- Stationary point found.
 Normal termination of Gaussian 09 at Sun Jun 19 11:07:35 2016.
