 Gaussian 09, Revision E.01,
 Gaussian 09:  EM64L-G09RevE.01 30-Nov-2015

 ---------------------------------------------
 #p b3lyp/6-311++G(3df,2p) freq symmetry=Loose
 ---------------------------------------------

 ---------
 b3lyp opt
 ---------
 Symbolic Z-matrix:
 Charge =  1 Multiplicity = 3

                         Standard orientation:
 ---------------------------------------------------------------------
 Center     Atomic      Atomic             Coordinates (Angstroms)
 Number     Number       Type             X           Y           Z
 ---------------------------------------------------------------------
      1          6           0       -0.398913   -0.908230   -0.062363
      2          6           0       -1.411637    0.000036    0.001417
      3          1           0       -2.463006   -0.000824    0.239323
      4          6           0       -0.398948    0.908244   -0.061964
      5          6           0        1.009357   -0.692291    0.062440
      6          1           0        1.805284   -1.397554   -0.124578
      7          6           0        1.009000    0.692281    0.062231
      8          1           0        1.804571    1.398132   -0.125311
 ---------------------------------------------------------------------

 SCF Done:  E(UB3LYP) =  -191.833617406     A.U. after   16 cycles

 The electronic state is 3-A.
 Alpha  occ. eigenvalues --  -10.52458 -10.52454 -10.47512 -10.46643 -10.46587
 Alpha  occ. eigenvalues --   -1.21069  -1.03064  -0.94001  -0.81558  -0.78999
 Alpha  occ. eigenvalues --   -0.73458  -0.72500  -0.68027  -0.66498  -0.53746
 Alpha  occ. eigenvalues --   -0.50471  -0.49541
 Alpha virt. eigenvalues --   -0.33644  -0.23222  -0.22080  -0.15165  -0.12480
 Alpha virt. eigenvalues --   -0.11656  -0.11207  -0.10238  -0.10151  -0.08845
 Alpha virt. eigenvalues --   -0.06103  -0.05184  -0.03726  -0.03636  -0.03513

  Beta  occ. eigenvalues --  -10.51073 -10.51069 -10.47657 -10.46229 -10.46175
  Beta  occ. eigenvalues --   -1.19031  -1.01868  -0.90756  -0.80629  -0.76586
  Beta  occ. eigenvalues --   -0.72494  -0.70290  -0.65616  -0.63380  -0.50358
  Beta virt. eigenvalues --   -0.40520  -0.37668  -0.28673  -0.19983  -0.17457
  Beta virt. eigenvalues --   -0.14854  -0.12398  -0.10924  -0.10758  -0.09976
  Beta virt. eigenvalues --   -0.09561  -0.08538  -0.06020  -0.04672  -0.03364

 Mulliken charges and spin densities:
               1          2
     1  C    0.258906   0.796529
     2  C    0.022372  -0.087353
     3  H    0.287169   0.020214
     4  C    0.259499   0.796514
     5  C   -0.155848   0.231737
     6  H    0.242224   0.005739
     7  C   -0.156312   0.230797
     8  H    0.241990   0.005823
 Sum of Mulliken charges =   1.00000   2.00000

 Dipole moment (field-independent basis, Debye):
    X=             -0.0274    Y=             -0.0007    Z=              0.0644  Tot=              0.0700
 Quadrupole moment (field-independent basis, Debye-Ang):
   XX=            -13.1672   YY=            -20.3004   ZZ=            -27.9303
   XY=              0.0013   XZ=             -1.3583   YZ=             -0.0011

  Exact polarizability:  58.206   0.002  50.407   0.780   0.000  28.378
 Approx polarizability:  98.076  -0.003 119.244   1.914   0.008  41.793

                      1                      2                      3
                      A                      A                      A
 Frequencies --    303.8942               380.7753               548.7084
 Red. masses --      8.6430                 4.8762                 4.8226
 Frc consts  --      0.4703                 0.4165                 0.8555
 IR Inten    --      5.0380                53.1299                 3.4069

                      4                      5                      6
                      A                      A                      A
 Frequencies --    644.9546               688.3610               721.7120
 Red. masses --      1.1108                 7.8060                 1.2506
 Frc consts  --      0.2722                 2.1793                 0.3838
 IR Inten    --     67.9397                 9.6214                33.1040

                      7                      8                      9
                      A                      A                      A
 Frequencies --    759.7480               862.3831               986.7189
 Red. masses --      6.5890                 1.4822                 1.6251
 Frc consts  --      2.2408                 0.6495                 0.9322
 IR Inten    --      5.6942                 6.5185                 0.2825

                     10                     11                     12
                      A                      A                      A
 Frequencies --   1040.5149              1120.5737              1127.6329
 Red. masses --      1.5315                 3.1725                 1.7540
 Frc consts  --      0.9770                 2.3471                 1.3141
 IR Inten    --      0.9445                 1.7802                 9.7342

                     13                     14                     15
                      A                      A                      A
 Frequencies --   1279.4805              1372.7050              1583.8890
 Red. masses --      1.5149                 3.8537                 7.4597
 Frc consts  --      1.4612                 4.2784                11.0261
 IR Inten    --     27.1558                51.6933                 1.6270

                     16                     17                     18
                      A                      A                      A
 Frequencies --   3214.6472              3232.9929              3254.4793
 Red. masses --      1.0881                 1.1051                 1.1090
 Frc consts  --      6.6251                 6.8058                 6.9209
 IR Inten    --     36.2566                83.7010                94.8341

 - Thermochemistry -
 -------------------
 Temperature   298.150 Kelvin.  Pressure   1.00000 Atm.
 Atom     1 has atomic number  6 and mass  12.00000

 Molecular mass:    63.02348 amu.
 Principal axes and moments of inertia in atomic units:
                           1         2         3
     Eigenvalues --   126.76180 232.51118 357.42528
           X            0.99987   0.00007  -0.01599
           Y           -0.00007   1.00000  -0.00004
           Z            0.01599   0.00004   0.99987
 This molecule is an asymmetric top.
 Rotational symmetry number  1.
 Rotational temperatures (Kelvin)      0.68328     0.37251     0.24233
 Rotational constants (GHZ):          14.23726     7.76195     5.04928
 Zero-point vibrational energy     138313.3 (Joules/Mol)
                                   33.05766 (Kcal/Mol)
 Warning -- explicit consideration of   3 degrees of freedom as
           vibrations may cause significant error
 Vibrational temperatures:    437.24   547.85   789.47   927.94   990.40
          (Kelvin)           1038.38  1093.11  1240.78  1419.67  1497.07
                             1612.25  1622.41  1840.88  1975.01  2278.86
                             4625.15  4651.55  4682.46

 Zero-point correction=                           0.052681 (Hartree/Particle)
 Thermal correction to Energy=                    0.057099
 Thermal correction to Enthalpy=                  0.058043
 Thermal correction to Gibbs Free Energy=         0.025208
 Sum of electronic and zero-point Energies=           -191.780937
 Sum of electronic and thermal Energies=              -191.776519
 Sum of electronic and thermal Enthalpies=            -191.775574
 Sum of electronic and thermal Free Energies=         -191.808410

                     E (Thermal)             CV                S
                      KCal/Mol        Cal/Mol-Kelvin    Cal/Mol-Kelvin
 Total                   35.830             15.710             69.107
 Electronic               0.000              0.000              2.183
 Translational            0.889              2.981             38.342
 Rotational               0.889              2.981             23.870
 Vibrational             34.053              9.748              4.712
 Vibration     1          0.695              1.666              1.395
 Vibration     2          0.751              1.511              1.036
 Vibration     3          0.904              1.143              0.547

 Optimization completed.
    -- Stationary point found.
 Normal termination of Gaussian 09 at Sun Jun 19 11:07:14 2016.
