 Gaussian 09, Revision E.01,
 Gaussian 09:  EM64L-G09RevE.01 30-Nov-2015

 ---------------------------------------------
 #p b3lyp/6-311++G(3df,2p) freq symmetry=Loose
 ---------------------------------------------

 ---------
 b3lyp opt
 ---------
 Symbolic Z-matrix:
 Charge =  0 Multiplicity = 4

                         Standard orientation:
 ---------------------------------------------------------------------
 Center     Atomic      Atomic             Coordinates (Angstroms)
 Number     Number       Type             X           Y           Z
 ---------------------------------------------------------------------
      1          6           0        2.271674   -0.297057   -0.393144
      2          6           0       -1.296542    0.083407    0.087709
      3          6           0       -2.355306   -0.512775   -0.201506
      4          6           0        0.014652    0.700671    0.032812
      5          1           0        0.029265    1.492673    0.795333
      6          1           0        0.156242    1.209181   -0.923188
      7          6           0        1.161474   -0.267319    0.303466
      8          1           0        1.038782   -0.943420    1.151826
 ---------------------------------------------------------------------

 SCF Done:  E(UB3LYP) =  -191.989098608     A.U. after   29 cycles

 The electronic state is 4-A.
 Alpha  occ. eigenvalues --  -10.25645 -10.23858 -10.22783 -10.22428 -10.22186
 Alpha  occ. eigenvalues --   -0.85783  -0.79477  -0.72942  -0.56840  -0.52705
 Alpha  occ. eigenvalues --   -0.48779  -0.45199  -0.40238  -0.35244  -0.31783
 Alpha  occ. eigenvalues --   -0.30980  -0.30360  -0.24181
 Alpha virt. eigenvalues --   -0.03215  -0.01888  -0.00297   0.00910   0.01310
 Alpha virt. eigenvalues --    0.02462   0.04156   0.05917   0.06662   0.06882
 Alpha virt. eigenvalues --    0.07293   0.07634   0.09999   0.10727   0.10782

  Beta  occ. eigenvalues --  -10.23639 -10.22803 -10.22348 -10.21716 -10.21201
  Beta  occ. eigenvalues --   -0.84352  -0.76061  -0.69871  -0.54034  -0.50808
  Beta  occ. eigenvalues --   -0.47445  -0.43504  -0.30108  -0.29525  -0.28941
  Beta virt. eigenvalues --   -0.19666  -0.19406  -0.07300  -0.01200  -0.00356
  Beta virt. eigenvalues --    0.00883   0.01839   0.02563   0.03490   0.04802
  Beta virt. eigenvalues --    0.06619   0.07058   0.07326   0.07547   0.08242

 Mulliken charges and spin densities:
               1          2
     1  C   -0.324331   2.125062
     2  C    0.446475   0.333765
     3  C   -0.457364   0.701165
     4  C   -0.256579   0.002108
     5  H    0.174904   0.032568
     6  H    0.180920   0.014333
     7  C    0.072428  -0.288119
     8  H    0.163547   0.079117
 Sum of Mulliken charges =  -0.00000   3.00000

 Dipole moment (field-independent basis, Debye):
    X=              1.7372    Y=              1.5178    Z=              1.0512  Tot=              2.5350
 Quadrupole moment (field-independent basis, Debye-Ang):
   XX=            -36.9660   YY=            -29.7645   ZZ=            -29.1729
   XY=             -1.7152   XZ=             -2.2856   YZ=             -1.0707

  Exact polarizability: 129.888  15.373  59.359   4.740   3.414  47.701
 Approx polarizability: 166.239  23.606  77.854  -0.446   7.016  71.427

                      1                      2                      3
                      A                      A                      A
 Frequencies --     80.2316               154.3553               330.1720
 Red. masses --      4.3875                 5.1130                 3.1965
 Frc consts  --      0.0166                 0.0718                 0.2053
 IR Inten    --      2.8333                12.8879                16.2728

                      4                      5                      6
                      A                      A                      A
 Frequencies --    400.4521               469.0653               610.8782
 Red. masses --      4.3348                 5.3311                 1.5258
 Frc consts  --      0.4096                 0.6911                 0.3355
 IR Inten    --      1.5094                 2.5311                42.1871

                      7                      8                      9
                      A                      A                      A
 Frequencies --    797.5681               933.8342               980.8416
 Red. masses --      2.2907                 4.1710                 4.0961
 Frc consts  --      0.8585                 2.1430                 2.3218
 IR Inten    --      2.5207                27.4299                47.5112

                     10                     11                     12
                      A                      A                      A
 Frequencies --   1148.3540              1226.7693              1288.3899
 Red. masses --      1.1103                 1.2387                 1.2115
 Frc consts  --      0.8626                 1.0984                 1.1849
 IR Inten    --      5.7509               126.3773               156.4130

                     13                     14                     15
                      A                      A                      A
 Frequencies --   1387.5874              1534.9863              1585.9374
 Red. masses --      1.2226                 4.6982                 9.1399
 Frc consts  --      1.3869                 6.5222                13.5445
 IR Inten    --    274.0620              1004.1113                11.4788

                     16                     17                     18
                      A                      A                      A
 Frequencies --   2966.7009              3043.0118              3054.6047
 Red. masses --      1.0690                 1.0828                 1.0856
 Frc consts  --      5.5436                 5.9073                 5.9680
 IR Inten    --     22.2915                 1.9180                 8.9938

 - Thermochemistry -
 -------------------
 Temperature   298.150 Kelvin.  Pressure   1.00000 Atm.
 Atom     1 has atomic number  6 and mass  12.00000

 Molecular mass:    63.02348 amu.
 Principal axes and moments of inertia in atomic units:
                           1         2         3
     Eigenvalues --    78.46715 614.99956 648.76800
           X            0.99997  -0.00393   0.00723
           Y            0.00466   0.99449  -0.10469
           Z           -0.00678   0.10472   0.99448
 This molecule is an asymmetric top.
 Rotational symmetry number  1.
 Rotational temperatures (Kelvin)      1.10382     0.14084     0.13351
 Rotational constants (GHZ):          22.99996     2.93454     2.78180
 Zero-point vibrational energy     131551.8 (Joules/Mol)
                                   31.44163 (Kcal/Mol)
 Warning -- explicit consideration of   6 degrees of freedom as
           vibrations may cause significant error
 Vibrational temperatures:    115.44   222.08   475.04   576.16   674.88
          (Kelvin)            878.92  1147.52  1343.58  1411.21  1652.22
                             1765.05  1853.70  1996.43  2208.50  2281.81
                             4268.42  4378.21  4394.89

 Zero-point correction=                           0.050105 (Hartree/Particle)
 Thermal correction to Energy=                    0.055671
 Thermal correction to Enthalpy=                  0.056615
 Thermal correction to Gibbs Free Energy=         0.020253
 Sum of electronic and zero-point Energies=           -191.938993
 Sum of electronic and thermal Energies=              -191.933428
 Sum of electronic and thermal Enthalpies=            -191.932484
 Sum of electronic and thermal Free Energies=         -191.968845

                     E (Thermal)             CV                S
                      KCal/Mol        Cal/Mol-Kelvin    Cal/Mol-Kelvin
 Total                   34.934             17.558             76.530
 Electronic               0.000              0.000              2.755
 Translational            0.889              2.981             38.342
 Rotational               0.889              2.981             24.952
 Vibrational             33.157             11.597             10.481
 Vibration     1          0.600              1.963              3.885
 Vibration     2          0.620              1.898              2.618
 Vibration     3          0.713              1.615              1.259
 Vibration     4          0.766              1.469              0.961
 Vibration     5          0.826              1.319              0.740
 Vibration     6          0.970              1.009              0.431

 Optimization completed.
    -- Stationary point found.
 Normal termination of Gaussian 09 at Sun Jun 19 08:45:20 2016.
