 Gaussian 09, Revision E.01,
 Gaussian 09:  EM64L-G09RevE.01 30-Nov-2015

 ---------------------------------------------
 #p b3lyp/6-311++G(3df,2p) freq symmetry=Loose
 ---------------------------------------------

 ---------
 b3lyp opt
 ---------
 Symbolic Z-matrix:
 Charge =  3 Multiplicity = 1

                         Standard orientation:
 ---------------------------------------------------------------------
 Center     Atomic      Atomic             Coordinates (Angstroms)
 Number     Number       Type             X           Y           Z
 ---------------------------------------------------------------------
      1          6           0        1.677204   -1.768556    0.000000
      2          1           0        2.080142   -2.235316    0.952091
      3          1           0        2.080142   -2.235316   -0.952091
      4          6           0        0.813648   -0.762561    0.000000
      5          6           0        0.000000    0.251721   -0.000000
      6          6           0       -0.797829    1.304504   -0.000000
      7          1           0       -0.373605    2.363085   -0.000000
      8          6           0       -2.324136    1.326151   -0.000000
 ---------------------------------------------------------------------

 SCF Done:  E(RB3LYP) =  -190.452571111     A.U. after   14 cycles

 The electronic state is 1-A'.
 Alpha  occ. eigenvalues --  -11.10315 -10.99836 -10.98459 -10.96259 -10.94978
 Alpha  occ. eigenvalues --   -1.55851  -1.50081  -1.41790  -1.33239  -1.18654
 Alpha  occ. eigenvalues --   -1.17571  -1.12232  -1.05497  -1.04812  -1.00872
 Alpha virt. eigenvalues --   -0.89197  -0.83079  -0.82662  -0.77104  -0.63052
 Alpha virt. eigenvalues --   -0.61315  -0.51540  -0.50242  -0.45841  -0.43699
 Alpha virt. eigenvalues --   -0.42169  -0.41908  -0.40330  -0.38530  -0.38331

 Mulliken charges:
               1
     1  C   -0.048357
     2  H    0.379218
     3  H    0.379218
     4  C    0.785491
     5  C    0.339258
     6  C    0.270250
     7  H    0.330823
     8  C    0.564099
 Sum of Mulliken charges =   3.00000

 Dipole moment (field-independent basis, Debye):
    X=              0.7775    Y=             -0.4516    Z=              0.0000  Tot=              0.8991
 Quadrupole moment (field-independent basis, Debye-Ang):
   XX=             15.9351   YY=             18.0666   ZZ=            -18.8034
   XY=            -34.3150   XZ=              0.0000   YZ=             -0.0000

  Exact polarizability:  73.437 -42.609  70.424   0.000  -0.000  26.331
 Approx polarizability: 159.927-107.870 150.647  -0.000  -0.000  39.002

                      1                      2                      3
                     A'                     A"                     A'
 Frequencies --    154.2942               195.2472               297.3819
 Red. masses --      5.2963                 2.4139                 6.1130
 Frc consts  --      0.0743                 0.0542                 0.3185
 IR Inten    --     11.0651                27.1710                23.4417

                      4                      5                      6
                     A"                     A"                     A'
 Frequencies --    373.3435               467.8818               542.2726
 Red. masses --      1.5478                 2.1532                 6.3809
 Frc consts  --      0.1271                 0.2777                 1.1055
 IR Inten    --      2.9943                 0.3692                22.3986

                      7                      8                      9
                     A'                     A"                     A"
 Frequencies --    738.9990               786.9721               815.1996
 Red. masses --      6.4817                 1.3320                 2.1392
 Frc consts  --      2.0856                 0.4861                 0.8376
 IR Inten    --    185.8968                34.6326                 1.8860

                     10                     11                     12
                     A'                     A'                     A'
 Frequencies --    876.4861              1004.1256              1097.6685
 Red. masses --      2.3719                 1.3843                 1.5564
 Frc consts  --      1.0736                 0.8223                 1.1049
 IR Inten    --    296.7239                31.3158               487.9800

                     13                     14                     15
                     A'                     A'                     A'
 Frequencies --   1176.0800              1511.6837              1813.3247
 Red. masses --      1.2075                 9.0041                11.3139
 Frc consts  --      0.9841                12.1231                21.9187
 IR Inten    --     99.7925                31.8734               103.2506

                     16                     17                     18
                     A'                     A'                     A"
 Frequencies --   2618.0331              2657.6217              2698.5792
 Red. masses --      1.0817                 1.0484                 1.1076
 Frc consts  --      4.3683                 4.3630                 4.7522
 IR Inten    --    942.0248              1157.0909               469.7494

 - Thermochemistry -
 -------------------
 Temperature   298.150 Kelvin.  Pressure   1.00000 Atm.
 Atom     1 has atomic number  6 and mass  12.00000

 Molecular mass:    63.02348 amu.
 Principal axes and moments of inertia in atomic units:
                           1         2         3
     Eigenvalues --    40.28856 777.04772 804.28661
           X            0.74119   0.67129   0.00000
           Y           -0.67129   0.74119   0.00000
           Z            0.00000  -0.00000   1.00000
 This molecule is an asymmetric top.
 Rotational symmetry number  1.
 Rotational temperatures (Kelvin)      2.14984     0.11147     0.10769
 Rotational constants (GHZ):          44.79537     2.32256     2.24390
 Zero-point vibrational energy     118581.0 (Joules/Mol)
                                   28.34154 (Kcal/Mol)
 Warning -- explicit consideration of   6 degrees of freedom as
           vibrations may cause significant error
 Vibrational temperatures:    221.99   280.92   427.87   537.16   673.18
          (Kelvin)            780.21  1063.25  1132.28  1172.89  1261.07
                             1444.71  1579.30  1692.11  2174.97  2608.97
                             3766.76  3823.72  3882.65

 Zero-point correction=                           0.045165 (Hartree/Particle)
 Thermal correction to Energy=                    0.050804
 Thermal correction to Enthalpy=                  0.051749
 Thermal correction to Gibbs Free Energy=         0.017197
 Sum of electronic and zero-point Energies=           -190.407406
 Sum of electronic and thermal Energies=              -190.401767
 Sum of electronic and thermal Enthalpies=            -190.400823
 Sum of electronic and thermal Free Energies=         -190.435374

                     E (Thermal)             CV                S
                      KCal/Mol        Cal/Mol-Kelvin    Cal/Mol-Kelvin
 Total                   31.880             18.952             72.720
 Electronic               0.000              0.000              0.000
 Translational            0.889              2.981             38.342
 Rotational               0.889              2.981             24.735
 Vibrational             30.103             12.990              9.643
 Vibration     1          0.620              1.898              2.619
 Vibration     2          0.636              1.846              2.177
 Vibration     3          0.691              1.679              1.432
 Vibration     4          0.745              1.527              1.066
 Vibration     5          0.825              1.321              0.744
 Vibration     6          0.897              1.157              0.560

 Optimization completed.
    -- Stationary point found.
 Normal termination of Gaussian 09 at Tue Jul 19 14:00:33 2016.
