 Gaussian 09, Revision E.01,
 Gaussian 09:  EM64L-G09RevE.01 30-Nov-2015

 ---------------------------------------------
 #p b3lyp/6-311++G(3df,2p) freq symmetry=Loose
 ---------------------------------------------

 ---------
 b3lyp opt
 ---------
 Symbolic Z-matrix:
 Charge =  0 Multiplicity = 4

                         Standard orientation:
 ---------------------------------------------------------------------
 Center     Atomic      Atomic             Coordinates (Angstroms)
 Number     Number       Type             X           Y           Z
 ---------------------------------------------------------------------
      1          6           0        0.310733   -0.170258    0.426305
      2          1           0        0.185269   -0.697638    1.369140
      3          6           0        1.521924   -0.573295   -0.479434
      4          6           0        1.683232    0.532347    0.157582
      5          6           0       -0.967288    0.343692   -0.191439
      6          1           0       -1.429798    1.128811    0.487525
      7          1           0       -0.795942    0.853902   -1.149521
      8          6           0       -2.208522   -0.346665   -0.030871
 ---------------------------------------------------------------------

 SCF Done:  E(UB3LYP) =  -191.937788718     A.U. after   22 cycles

 The electronic state is 4-A.
 Alpha  occ. eigenvalues --  -10.26457 -10.25772 -10.25651 -10.24573 -10.22044
 Alpha  occ. eigenvalues --   -0.92898  -0.82707  -0.65330  -0.57022  -0.51714
 Alpha  occ. eigenvalues --   -0.46769  -0.46566  -0.43768  -0.35904  -0.32729
 Alpha  occ. eigenvalues --   -0.30521  -0.26858  -0.22692
 Alpha virt. eigenvalues --   -0.09819  -0.03343  -0.00565   0.00738   0.02078
 Alpha virt. eigenvalues --    0.03121   0.04208   0.06333   0.06529   0.07565
 Alpha virt. eigenvalues --    0.07943   0.08876   0.09520   0.10126   0.10973

  Beta  occ. eigenvalues --  -10.25566 -10.24291 -10.24178 -10.23120 -10.22187
  Beta  occ. eigenvalues --   -0.90343  -0.81027  -0.62240  -0.55178  -0.48052
  Beta  occ. eigenvalues --   -0.44821  -0.41893  -0.40511  -0.30554  -0.28417
  Beta virt. eigenvalues --   -0.19696  -0.13890  -0.08098  -0.07587  -0.01267
  Beta virt. eigenvalues --   -0.00053   0.00918   0.02361   0.03645   0.04773
  Beta virt. eigenvalues --    0.06687   0.07141   0.08080   0.08640   0.09419

 Mulliken charges and spin densities:
               1          2
     1  C    0.324001   0.300875
     2  H    0.215232  -0.015768
     3  C   -0.147108   0.838571
     4  C   -0.104826   0.863128
     5  C    0.050790  -0.044316
     6  H    0.161217   0.016938
     7  H    0.187771   0.055443
     8  C   -0.687076   0.985128
 Sum of Mulliken charges =  -0.00000   3.00000

 Dipole moment (field-independent basis, Debye):
    X=              0.9943    Y=              1.2064    Z=              0.4787  Tot=              1.6350
 Quadrupole moment (field-independent basis, Debye-Ang):
   XX=            -40.8195   YY=            -29.8981   ZZ=            -29.3687
   XY=             -3.6060   XZ=              0.7239   YZ=              0.3309

  Exact polarizability:  82.068  -0.487  56.076   0.354  -3.277  56.756
 Approx polarizability: 105.791   6.444  94.640  -6.295  12.945  79.228

                      1                      2                      3
                      A                      A                      A
 Frequencies --     93.6461               243.8121               345.4151
 Red. masses --      4.4092                 4.6015                 3.7205
 Frc consts  --      0.0228                 0.1612                 0.2615
 IR Inten    --     16.8258                11.0849                 7.7771

                      4                      5                      6
                      A                      A                      A
 Frequencies --    374.4667               458.1314               624.3484
 Red. masses --      1.6802                 5.1535                 6.6642
 Frc consts  --      0.1388                 0.6373                 1.5306
 IR Inten    --     21.6733                 6.6250                 5.9915

                      7                      8                      9
                      A                      A                      A
 Frequencies --    800.2040               887.7678               971.8890
 Red. masses --      1.4687                 2.5195                 1.8304
 Frc consts  --      0.5541                 1.1699                 1.0187
 IR Inten    --     20.1039                39.3119                25.6437

                     10                     11                     12
                      A                      A                      A
 Frequencies --   1010.3558              1111.9027              1243.4274
 Red. masses --      3.9713                 1.4623                 2.2670
 Frc consts  --      2.3885                 1.0652                 2.0651
 IR Inten    --     24.0422                15.0797                34.6044

                     13                     14                     15
                      A                      A                      A
 Frequencies --   1281.5430              1357.2111              1720.4998
 Red. masses --      1.1068                 1.2561                11.4711
 Frc consts  --      1.0710                 1.3632                20.0062
 IR Inten    --     32.0910                22.6558                57.5758

                     16                     17                     18
                      A                      A                      A
 Frequencies --   2704.8624              2970.3547              3085.7356
 Red. masses --      1.0691                 1.0809                 1.0823
 Frc consts  --      4.6086                 5.6190                 6.0720
 IR Inten    --     41.5643                 4.6288                 6.9667

 - Thermochemistry -
 -------------------
 Temperature   298.150 Kelvin.  Pressure   1.00000 Atm.
 Atom     1 has atomic number  6 and mass  12.00000

 Molecular mass:    63.02348 amu.
 Principal axes and moments of inertia in atomic units:
                           1         2         3
     Eigenvalues --    79.01596 514.70386 531.57145
           X            0.99980  -0.01798   0.00922
           Y            0.01993   0.95234  -0.30438
           Z           -0.00331   0.30450   0.95251
 This molecule is an asymmetric top.
 Rotational symmetry number  1.
 Rotational temperatures (Kelvin)      1.09616     0.16828     0.16294
 Rotational constants (GHZ):          22.84021     3.50637     3.39511
 Zero-point vibrational energy     127316.0 (Joules/Mol)
                                   30.42925 (Kcal/Mol)
 Warning -- explicit consideration of   5 degrees of freedom as
           vibrations may cause significant error
 Vibrational temperatures:    134.74   350.79   496.97   538.77   659.15
          (Kelvin)            898.30  1151.31  1277.30  1398.33  1453.67
                             1599.78  1789.01  1843.85  1952.72  2475.41
                             3891.69  4273.67  4439.68

 Zero-point correction=                           0.048492 (Hartree/Particle)
 Thermal correction to Energy=                    0.053944
 Thermal correction to Enthalpy=                  0.054888
 Thermal correction to Gibbs Free Energy=         0.019175
 Sum of electronic and zero-point Energies=           -191.889297
 Sum of electronic and thermal Energies=              -191.883844
 Sum of electronic and thermal Enthalpies=            -191.882900
 Sum of electronic and thermal Free Energies=         -191.918614

                     E (Thermal)             CV                S
                      KCal/Mol        Cal/Mol-Kelvin    Cal/Mol-Kelvin
 Total                   33.851             17.826             75.166
 Electronic               0.000              0.000              2.755
 Translational            0.889              2.981             38.342
 Rotational               0.889              2.981             24.584
 Vibrational             32.073             11.865              9.485
 Vibration     1          0.603              1.954              3.582
 Vibration     2          0.659              1.773              1.775
 Vibration     3          0.724              1.585              1.187
 Vibration     4          0.746              1.524              1.061
 Vibration     5          0.816              1.343              0.772

 Normal termination of Gaussian 09 at Sun Jun 19 08:30:51 2016.
