 Gaussian 09, Revision E.01,
 Gaussian 09:  EM64L-G09RevE.01 30-Nov-2015

 ---------------------------------------------
 #p b3lyp/6-311++G(3df,2p) freq symmetry=Loose
 ---------------------------------------------

 ---------
 b3lyp opt
 ---------
 Symbolic Z-matrix:
 Charge =  0 Multiplicity = 2

                         Standard orientation:
 ---------------------------------------------------------------------
 Center     Atomic      Atomic             Coordinates (Angstroms)
 Number     Number       Type             X           Y           Z
 ---------------------------------------------------------------------
      1          6           0       -1.851170   -0.031119   -0.079379
      2          1           0       -2.399708    0.878845   -0.272873
      3          1           0       -2.402710   -0.957071   -0.012224
      4          6           0       -0.538065   -0.012087    0.044459
      5          6           0        0.676322    0.793846    0.022457
      6          1           0        0.874411    1.698201    0.593602
      7          6           0        1.715666   -0.202012   -0.294576
      8          6           0        0.651914   -0.818624    0.255622
 ---------------------------------------------------------------------

 SCF Done:  E(UB3LYP) =  -192.129210759     A.U. after   19 cycles

 The electronic state is 2-A.
 Alpha  occ. eigenvalues --  -10.27186 -10.25545 -10.24770 -10.21404 -10.19757
 Alpha  occ. eigenvalues --   -0.98198  -0.78658  -0.65772  -0.63699  -0.50479
 Alpha  occ. eigenvalues --   -0.50165  -0.46915  -0.40967  -0.38706  -0.30935
 Alpha  occ. eigenvalues --   -0.27257  -0.25067
 Alpha virt. eigenvalues --   -0.06750  -0.04288  -0.00822   0.00598   0.02526
 Alpha virt. eigenvalues --    0.03184   0.04863   0.05071   0.05740   0.07390
 Alpha virt. eigenvalues --    0.08636   0.08971   0.10554   0.10757   0.11586

  Beta  occ. eigenvalues --  -10.26551 -10.24720 -10.24551 -10.21187 -10.19740
  Beta  occ. eigenvalues --   -0.97365  -0.78543  -0.65148  -0.62196  -0.50286
  Beta  occ. eigenvalues --   -0.48845  -0.44565  -0.39834  -0.38083  -0.29637
  Beta  occ. eigenvalues --   -0.25766
  Beta virt. eigenvalues --   -0.13973  -0.06241  -0.02746  -0.00728   0.00884
  Beta virt. eigenvalues --    0.02807   0.03553   0.05057   0.05482   0.06110
  Beta virt. eigenvalues --    0.07456   0.08952   0.09341   0.10667   0.10996

 Mulliken charges and spin densities:
               1          2
     1  C   -0.510163   0.034041
     2  H    0.177434   0.000364
     3  H    0.179338   0.001850
     4  C    0.428691  -0.061366
     5  C   -0.051581   0.394415
     6  H    0.193175   0.033455
     7  C   -0.554469   0.017882
     8  C    0.137576   0.579359
 Sum of Mulliken charges =  -0.00000   1.00000

 Dipole moment (field-independent basis, Debye):
    X=             -2.7932    Y=              1.2519    Z=              0.6892  Tot=              3.1376
 Quadrupole moment (field-independent basis, Debye-Ang):
   XX=            -34.1174   YY=            -26.9866   ZZ=            -31.1964
   XY=              1.7240   XZ=              2.0115   YZ=              0.8073

  Exact polarizability:  87.945  -1.127  51.056  -1.920  -0.880  40.321
 Approx polarizability: 147.799  -2.741  89.306  -7.010  -4.254  60.496

                      1                      2                      3
                      A                      A                      A
 Frequencies --    256.6718               344.0975               576.4871
 Red. masses --      5.8276                 2.7204                 7.5199
 Frc consts  --      0.2262                 0.1898                 1.4725
 IR Inten    --     18.3093                 0.5849                41.4536

                      4                      5                      6
                      A                      A                      A
 Frequencies --    642.1708               665.1670               768.8113
 Red. masses --      4.5935                 1.2530                 3.5365
 Frc consts  --      1.1161                 0.3266                 1.2316
 IR Inten    --      9.7193                 2.9936                 6.5881

                      7                      8                      9
                      A                      A                      A
 Frequencies --    804.3683               883.0534               934.9202
 Red. masses --      2.9609                 1.3230                 1.7458
 Frc consts  --      1.1287                 0.6078                 0.8991
 IR Inten    --     10.0238                51.3279                 4.4181

                     10                     11                     12
                      A                      A                      A
 Frequencies --    967.9236              1096.4614              1131.9150
 Red. masses --      2.7140                 1.9092                 1.3802
 Frc consts  --      1.4981                 1.3524                 1.0419
 IR Inten    --      4.5603                 1.9403                 4.7058

                     13                     14                     15
                      A                      A                      A
 Frequencies --   1402.9984              1451.7439              1784.3045
 Red. masses --      8.1598                 1.1768                 8.6567
 Frc consts  --      9.4633                 1.4613                16.2382
 IR Inten    --      9.8136                 0.4049                86.2368

                     16                     17                     18
                      A                      A                      A
 Frequencies --   3102.6766              3156.1611              3243.8957
 Red. masses --      1.0903                 1.0581                 1.1174
 Frc consts  --      6.1838                 6.2103                 6.9279
 IR Inten    --      0.9069                 0.1433                 0.4871

 - Thermochemistry -
 -------------------
 Temperature   298.150 Kelvin.  Pressure   1.00000 Atm.
 Atom     1 has atomic number  6 and mass  12.00000

 Molecular mass:    63.02348 amu.
 Principal axes and moments of inertia in atomic units:
                           1         2         3
     Eigenvalues --    82.10084 375.00710 440.60267
           X            0.99975   0.01842   0.01238
           Y           -0.01894   0.99887   0.04358
           Z           -0.01156  -0.04380   0.99897
 This molecule is an asymmetric top.
 Rotational symmetry number  1.
 Rotational temperatures (Kelvin)      1.05497     0.23097     0.19658
 Rotational constants (GHZ):          21.98201     4.81255     4.09607
 Zero-point vibrational energy     138849.5 (Joules/Mol)
                                   33.18583 (Kcal/Mol)
 Warning -- explicit consideration of   3 degrees of freedom as
           vibrations may cause significant error
 Vibrational temperatures:    369.29   495.08   829.44   923.94   957.03
          (Kelvin)           1106.15  1157.31  1270.52  1345.14  1392.62
                             1577.56  1628.57  2018.60  2088.73  2567.21
                             4464.05  4541.01  4667.24

 Zero-point correction=                           0.052885 (Hartree/Particle)
 Thermal correction to Energy=                    0.057375
 Thermal correction to Enthalpy=                  0.058319
 Thermal correction to Gibbs Free Energy=         0.025578
 Sum of electronic and zero-point Energies=           -192.076326
 Sum of electronic and thermal Energies=              -192.071835
 Sum of electronic and thermal Enthalpies=            -192.070891
 Sum of electronic and thermal Free Energies=         -192.103633

                     E (Thermal)             CV                S
                      KCal/Mol        Cal/Mol-Kelvin    Cal/Mol-Kelvin
 Total                   36.004             15.720             68.911
 Electronic               0.000              0.000              1.377
 Translational            0.889              2.981             38.342
 Rotational               0.889              2.981             24.121
 Vibrational             34.226              9.758              5.071
 Vibration     1          0.666              1.752              1.684
 Vibration     2          0.723              1.587              1.193
 Vibration     3          0.933              1.082              0.492

 Normal termination of Gaussian 09 at Sun Jun 19 07:32:10 2016.
