 Gaussian 09, Revision E.01,
 Gaussian 09:  EM64L-G09RevE.01 30-Nov-2015

 ---------------------------------------------
 #p b3lyp/6-311++G(3df,2p) freq symmetry=Loose
 ---------------------------------------------

 ---------
 b3lyp opt
 ---------
 Symbolic Z-matrix:
 Charge =  0 Multiplicity = 2

                         Standard orientation:
 ---------------------------------------------------------------------
 Center     Atomic      Atomic             Coordinates (Angstroms)
 Number     Number       Type             X           Y           Z
 ---------------------------------------------------------------------
      1          6           0        0.753409   -0.678282    0.000000
      2          6           0        1.286164    0.572048    0.000000
      3          1           0        2.265053    1.009437    0.000000
      4          6           0        0.000000    1.012698    0.000000
      5          6           0       -0.662947   -1.031235   -0.000000
      6          1           0       -1.050129   -2.036103   -0.000000
      7          6           0       -1.209779    0.198763   -0.000000
      8          1           0       -2.216004    0.582714   -0.000000
 ---------------------------------------------------------------------

 SCF Done:  E(UB3LYP) =  -192.161249460     A.U. after   18 cycles

 The electronic state is 2-A".
 Alpha  occ. eigenvalues --  -10.23720 -10.23712 -10.21380 -10.20595 -10.20521
 Alpha  occ. eigenvalues --   -0.93660  -0.77096  -0.67406  -0.57197  -0.53458
 Alpha  occ. eigenvalues --   -0.48332  -0.47329  -0.42436  -0.40920  -0.26814
 Alpha  occ. eigenvalues --   -0.25634  -0.22907
 Alpha virt. eigenvalues --   -0.07892  -0.00247   0.01247   0.01993   0.02412
 Alpha virt. eigenvalues --    0.02564   0.05429   0.05609   0.05763   0.07324
 Alpha virt. eigenvalues --    0.08908   0.09747   0.10958   0.11111   0.11549

  Beta  occ. eigenvalues --  -10.23032 -10.23026 -10.21584 -10.20419 -10.20343
  Beta  occ. eigenvalues --   -0.92623  -0.76814  -0.65553  -0.57096  -0.52527
  Beta  occ. eigenvalues --   -0.48237  -0.46677  -0.40454  -0.39212  -0.26048
  Beta  occ. eigenvalues --   -0.24598
  Beta virt. eigenvalues --   -0.12803  -0.07218  -0.00233   0.01230   0.02458
  Beta virt. eigenvalues --    0.03847   0.05321   0.05552   0.05737   0.06019
  Beta virt. eigenvalues --    0.07377   0.08860   0.10243   0.10987   0.11136

 Mulliken charges and spin densities:
               1          2
     1  C   -0.081939   0.456329
     2  C    0.009730  -0.122114
     3  H    0.236344   0.000538
     4  C   -0.077450   0.458179
     5  C   -0.242277   0.115750
     6  H    0.196922  -0.010314
     7  C   -0.238060   0.111834
     8  H    0.196729  -0.010202
 Sum of Mulliken charges =  -0.00000   1.00000

 Dipole moment (field-independent basis, Debye):
    X=             -0.4313    Y=             -0.1889    Z=             -0.0000  Tot=              0.4709
 Quadrupole moment (field-independent basis, Debye-Ang):
   XX=            -25.4567   YY=            -28.9715   ZZ=            -31.7895
   XY=              1.9616   XZ=             -0.0000   YZ=             -0.0000

  Exact polarizability:  64.489  -0.865  66.029   0.000   0.000  36.980
 Approx polarizability: 110.215 -26.852 158.594   0.000  -0.000  53.320

                      1                      2                      3
                     A"                     A"                     A'
 Frequencies --    319.9066               390.2820               527.0046
 Red. masses --     10.2900                 3.1095                 7.2477
 Frc consts  --      0.6205                 0.2791                 1.1860
 IR Inten    --      5.0203                 0.0002               139.5648

                      4                      5                      6
                     A'                     A"                     A"
 Frequencies --    594.3440               675.3231               771.3280
 Red. masses --      8.9234                 1.0622                 1.2345
 Frc consts  --      1.8572                 0.2854                 0.4327
 IR Inten    --      6.2628                59.3397                10.6971

                      7                      8                      9
                     A'                     A"                     A'
 Frequencies --    820.6462               846.7558              1026.9979
 Red. masses --      5.6851                 1.5427                 2.3839
 Frc consts  --      2.2558                 0.6517                 1.4814
 IR Inten    --     25.0931                 0.0028                17.0361

                     10                     11                     12
                     A'                     A'                     A'
 Frequencies --   1046.3763              1141.0013              1172.1381
 Red. masses --      3.6177                 1.3475                 1.4129
 Frc consts  --      2.3338                 1.0336                 1.1437
 IR Inten    --      2.9655                 4.4352                 6.8488

                     13                     14                     15
                     A'                     A'                     A'
 Frequencies --   1308.6992              1541.6576              1598.8596
 Red. masses --      1.4949                 5.7133                 6.3631
 Frc consts  --      1.5085                 8.0004                 9.5838
 IR Inten    --     20.8096                 0.3215                 0.9026

                     16                     17                     18
                     A'                     A'                     A'
 Frequencies --   3216.7884              3239.4832              3288.5577
 Red. masses --      1.0855                 1.1103                 1.1064
 Frc consts  --      6.6177                 6.8652                 7.0498
 IR Inten    --      3.0545                 6.2643                 3.9337

 - Thermochemistry -
 -------------------
 Temperature   298.150 Kelvin.  Pressure   1.00000 Atm.
 Atom     1 has atomic number  6 and mass  12.00000

 Molecular mass:    63.02348 amu.
 Principal axes and moments of inertia in atomic units:
                           1         2         3
     Eigenvalues --   127.03930 234.52514 361.56445
           X            0.91391  -0.40592   0.00000
           Y            0.40592   0.91391   0.00000
           Z           -0.00000   0.00000   1.00000
 This molecule is an asymmetric top.
 Rotational symmetry number  1.
 Rotational temperatures (Kelvin)      0.68179     0.36932     0.23955
 Rotational constants (GHZ):          14.20616     7.69530     4.99148
 Zero-point vibrational energy     140717.6 (Joules/Mol)
                                   33.63232 (Kcal/Mol)
 Warning -- explicit consideration of   4 degrees of freedom as
           vibrations may cause significant error
 Vibrational temperatures:    460.27   561.53   758.24   855.13   971.64
          (Kelvin)           1109.77  1180.73  1218.29  1477.62  1505.50
                             1641.64  1686.44  1882.92  2218.10  2300.40
                             4628.24  4660.89  4731.50

 Zero-point correction=                           0.053597 (Hartree/Particle)
 Thermal correction to Energy=                    0.057983
 Thermal correction to Enthalpy=                  0.058927
 Thermal correction to Gibbs Free Energy=         0.026518
 Sum of electronic and zero-point Energies=           -192.107653
 Sum of electronic and thermal Energies=              -192.103267
 Sum of electronic and thermal Enthalpies=            -192.102323
 Sum of electronic and thermal Free Energies=         -192.134732

                     E (Thermal)             CV                S
                      KCal/Mol        Cal/Mol-Kelvin    Cal/Mol-Kelvin
 Total                   36.385             15.502             68.211
 Electronic               0.000              0.000              1.377
 Translational            0.889              2.981             38.342
 Rotational               0.889              2.981             23.892
 Vibrational             34.607              9.541              4.600
 Vibration     1          0.706              1.635              1.311
 Vibration     2          0.758              1.491              0.999
 Vibration     3          0.882              1.190              0.594
 Vibration     4          0.952              1.044              0.459

 Normal termination of Gaussian 09 at Tue Jul 19 12:13:24 2016.
