 Gaussian 09, Revision E.01,
 Gaussian 09:  EM64L-G09RevE.01 30-Nov-2015

 ---------------------------------------------
 #p b3lyp/6-311++G(3df,2p) freq symmetry=Loose
 ---------------------------------------------

 ---------
 b3lyp opt
 ---------
 Symbolic Z-matrix:
 Charge =  0 Multiplicity = 4

                         Standard orientation:
 ---------------------------------------------------------------------
 Center     Atomic      Atomic             Coordinates (Angstroms)
 Number     Number       Type             X           Y           Z
 ---------------------------------------------------------------------
      1          6           0        0.656298   -0.050828    0.029790
      2          6           0       -0.453211   -0.885037   -0.174586
      3          6           0       -1.585145    0.041839    0.139367
      4          6           0       -0.384798    0.871950   -0.195961
      5          1           0        2.823806    0.607943    0.122021
      6          1           0       -1.879026    0.065290    1.186731
      7          1           0       -2.438627    0.067199   -0.531768
      8          6           0        2.015830   -0.101330    0.071894
 ---------------------------------------------------------------------

 SCF Done:  E(UB3LYP) =  -192.066269544     A.U. after   18 cycles

 The electronic state is 4-A.
 Alpha  occ. eigenvalues --  -10.24138 -10.23406 -10.23355 -10.23243 -10.22670
 Alpha  occ. eigenvalues --   -0.95120  -0.78418  -0.67927  -0.58383  -0.54097
 Alpha  occ. eigenvalues --   -0.49496  -0.45156  -0.42386  -0.37435  -0.31294
 Alpha  occ. eigenvalues --   -0.29080  -0.24985  -0.20877
 Alpha virt. eigenvalues --   -0.04638  -0.00535   0.00565   0.01786   0.02316
 Alpha virt. eigenvalues --    0.04135   0.05420   0.06411   0.07022   0.08764
 Alpha virt. eigenvalues --    0.09079   0.09743   0.11288   0.11499   0.11959

  Beta  occ. eigenvalues --  -10.23647 -10.22562 -10.22095 -10.22087 -10.21619
  Beta  occ. eigenvalues --   -0.93334  -0.75228  -0.65187  -0.55074  -0.51890
  Beta  occ. eigenvalues --   -0.47507  -0.43915  -0.40251  -0.34063  -0.27409
  Beta virt. eigenvalues --   -0.12266  -0.11741  -0.07501  -0.02463  -0.00082
  Beta virt. eigenvalues --    0.00887   0.02367   0.03206   0.04619   0.05726
  Beta virt. eigenvalues --    0.07349   0.07830   0.09248   0.10640   0.10805

 Mulliken charges and spin densities:
               1          2
     1  C    0.801519  -0.294896
     2  C   -0.289626   0.730109
     3  C   -0.399301   0.024275
     4  C   -0.325160   0.781994
     5  H    0.216375   0.003786
     6  H    0.195949   0.042218
     7  H    0.149305   0.026825
     8  C   -0.349063   1.685689
 Sum of Mulliken charges =  -0.00000   3.00000

 Dipole moment (field-independent basis, Debye):
    X=             -0.1103    Y=              0.5843    Z=              0.9588  Tot=              1.1282
 Quadrupole moment (field-independent basis, Debye-Ang):
   XX=            -22.8342   YY=            -34.3321   ZZ=            -30.2320
   XY=              1.5015   XZ=             -0.4288   YZ=              0.1218

  Exact polarizability:  80.097   0.351  59.665   0.609  -0.143  40.038
 Approx polarizability: 115.802   0.731 121.795   1.636  -0.539  57.115

                      1                      2                      3
                      A                      A                      A
 Frequencies --    266.1967               332.4547               489.6856
 Red. masses --      2.6860                 3.0619                 1.3122
 Frc consts  --      0.1121                 0.1994                 0.1854
 IR Inten    --      9.4856                13.3063                15.6762

                      4                      5                      6
                      A                      A                      A
 Frequencies --    558.5834               687.3267               720.7978
 Red. masses --      4.7167                 3.1625                 8.0326
 Frc consts  --      0.8671                 0.8802                 2.4589
 IR Inten    --     11.4959                62.5125                 6.9696

                      7                      8                      9
                      A                      A                      A
 Frequencies --    842.4467               952.0151               971.0753
 Red. masses --      2.0480                 2.4713                 2.0459
 Frc consts  --      0.8564                 1.3196                 1.1367
 IR Inten    --     13.5487                22.4249                19.2382

                     10                     11                     12
                      A                      A                      A
 Frequencies --   1013.1651              1029.3267              1142.1065
 Red. masses --      1.4349                 3.2060                 1.3347
 Frc consts  --      0.8678                 2.0014                 1.0258
 IR Inten    --      0.8631                 1.2718                 1.1078

                     13                     14                     15
                      A                      A                      A
 Frequencies --   1178.3308              1463.4714              1512.9961
 Red. masses --      6.5479                 1.2379                 5.2727
 Frc consts  --      5.3566                 1.5620                 7.1115
 IR Inten    --      1.7725                 1.5337                 1.0490

                     16                     17                     18
                      A                      A                      A
 Frequencies --   3070.9158              3138.2565              3258.1673
 Red. masses --      1.0576                 1.1081                 1.0947
 Frc consts  --      5.8766                 6.4300                 6.8470
 IR Inten    --      4.4691                 3.6385                 4.5095

 - Thermochemistry -
 -------------------
 Temperature   298.150 Kelvin.  Pressure   1.00000 Atm.
 Atom     1 has atomic number  6 and mass  12.00000

 Molecular mass:    63.02348 amu.
 Principal axes and moments of inertia in atomic units:
                           1         2         3
     Eigenvalues --    78.16030 388.32727 446.21895
           X            0.99985   0.01619  -0.00575
           Y           -0.01615   0.99984   0.00714
           Z            0.00586  -0.00705   0.99996
 This molecule is an asymmetric top.
 Rotational symmetry number  1.
 Rotational temperatures (Kelvin)      1.10816     0.22304     0.19411
 Rotational constants (GHZ):          23.09025     4.64747     4.04452
 Zero-point vibrational energy     135341.4 (Joules/Mol)
                                   32.34737 (Kcal/Mol)
 Warning -- explicit consideration of   4 degrees of freedom as
           vibrations may cause significant error
 Vibrational temperatures:    383.00   478.33   704.55   803.68   988.91
          (Kelvin)           1037.07  1212.09  1369.74  1397.16  1457.72
                             1480.97  1643.23  1695.35  2105.61  2176.86
                             4418.36  4515.25  4687.77

 Zero-point correction=                           0.051549 (Hartree/Particle)
 Thermal correction to Energy=                    0.056135
 Thermal correction to Enthalpy=                  0.057080
 Thermal correction to Gibbs Free Energy=         0.023541
 Sum of electronic and zero-point Energies=           -192.014721
 Sum of electronic and thermal Energies=              -192.010134
 Sum of electronic and thermal Enthalpies=            -192.009190
 Sum of electronic and thermal Free Energies=         -192.042729

                     E (Thermal)             CV                S
                      KCal/Mol        Cal/Mol-Kelvin    Cal/Mol-Kelvin
 Total                   35.225             16.102             70.588
 Electronic               0.000              0.000              2.755
 Translational            0.889              2.981             38.342
 Rotational               0.889              2.981             24.119
 Vibrational             33.448             10.141              5.372
 Vibration     1          0.672              1.735              1.621
 Vibration     2          0.714              1.611              1.248
 Vibration     3          0.846              1.273              0.684
 Vibration     4          0.914              1.121              0.527

 Optimization completed.
    -- Stationary point found.
 Normal termination of Gaussian 09 at Sun Jun 19 08:59:26 2016.
