 Gaussian 09, Revision E.01,
 Gaussian 09:  EM64L-G09RevE.01 30-Nov-2015

 ---------------------------------------------
 #p b3lyp/6-311++G(3df,2p) freq symmetry=Loose
 ---------------------------------------------

 ---------
 b3lyp opt
 ---------
 Symbolic Z-matrix:
 Charge =  3 Multiplicity = 3

                         Standard orientation:
 ---------------------------------------------------------------------
 Center     Atomic      Atomic             Coordinates (Angstroms)
 Number     Number       Type             X           Y           Z
 ---------------------------------------------------------------------
      1          6           0        0.337532    1.269855   -0.035123
      2          6           0        0.936997    0.031354    0.009756
      3          6           0       -0.495202    0.181458   -0.002708
      4          6           0        2.221729   -0.752630    0.022332
      5          6           0       -1.780407   -0.498666   -0.013393
      6          1           0       -2.639553    0.011398    0.712969
      7          1           0       -2.774586    0.168585   -0.355061
      8          1           0       -1.909750   -1.568209   -0.243094
 ---------------------------------------------------------------------

 SCF Done:  E(UB3LYP) =  -190.289312265     A.U. after   26 cycles

 The electronic state is 3-A.
 Alpha  occ. eigenvalues --  -11.10619 -11.02231 -11.01237 -10.99683 -10.97731
 Alpha  occ. eigenvalues --   -1.68182  -1.50123  -1.44674  -1.29418  -1.21179
 Alpha  occ. eigenvalues --   -1.17434  -1.13561  -1.12839  -1.04727  -1.03020
 Alpha  occ. eigenvalues --   -1.01072
 Alpha virt. eigenvalues --   -0.87097  -0.84233  -0.72861  -0.68908  -0.61311
 Alpha virt. eigenvalues --   -0.57553  -0.54256  -0.51812  -0.49784  -0.47188
 Alpha virt. eigenvalues --   -0.44127  -0.43303  -0.42097  -0.40880  -0.38545

  Beta  occ. eigenvalues --  -11.10408 -11.01271 -11.00244 -10.99357 -10.96621
  Beta  occ. eigenvalues --   -1.67110  -1.46866  -1.43366  -1.27530  -1.19149
  Beta  occ. eigenvalues --   -1.14229  -1.12258  -1.10482  -1.03525
  Beta virt. eigenvalues --   -0.90751  -0.86090  -0.84810  -0.80661  -0.70243
  Beta virt. eigenvalues --   -0.66665  -0.59620  -0.56312  -0.50494  -0.50386
  Beta virt. eigenvalues --   -0.47740  -0.46397  -0.43685  -0.42317  -0.41459

 Mulliken charges and spin densities:
               1          2
     1  C    0.392408   0.892199
     2  C    0.583427   0.100258
     3  C    0.460855   0.029667
     4  C    0.631163   0.117382
     5  C   -0.078926   0.691444
     6  H    0.321796   0.078784
     7  H    0.328723   0.103799
     8  H    0.360554  -0.013533
 Sum of Mulliken charges =   3.00000   2.00000

 Dipole moment (field-independent basis, Debye):
    X=             -3.8933    Y=             -1.2183    Z=              0.3450  Tot=              4.0941
 Quadrupole moment (field-independent basis, Debye-Ang):
   XX=             32.0429   YY=            -11.8399   ZZ=            -20.3947
   XY=             -0.9697   XZ=             -0.7312   YZ=              0.3019

  Exact polarizability:  79.173  -6.095  39.300  -0.194   0.062  24.971
 Approx polarizability: 130.708 -19.012  72.495  -1.051   0.053  37.355

                      1                      2                      3
                      A                      A                      A
 Frequencies --    158.4543               206.0258               310.5845
 Red. masses --      1.1169                 4.8159                 7.1826
 Frc consts  --      0.0165                 0.1204                 0.4082
 IR Inten    --     40.1038                11.5636                 1.0361

                      4                      5                      6
                      A                      A                      A
 Frequencies --    416.0606               429.5444               502.6826
 Red. masses --      3.6979                 2.9519                 1.1247
 Frc consts  --      0.3772                 0.3209                 0.1674
 IR Inten    --     20.5631                16.6596                28.9331

                      7                      8                      9
                      A                      A                      A
 Frequencies --    612.1964               771.1245               793.1447
 Red. masses --      4.7431                 1.9577                 3.6255
 Frc consts  --      1.0474                 0.6859                 1.3438
 IR Inten    --     73.4395                85.9169               131.6531

                     10                     11                     12
                      A                      A                      A
 Frequencies --    889.7532               958.4495              1143.7155
 Red. masses --      2.0912                 5.9945                 1.1619
 Frc consts  --      0.9754                 3.2444                 0.8955
 IR Inten    --     19.7034               193.6830               283.6234

                     13                     14                     15
                      A                      A                      A
 Frequencies --   1322.5648              1429.2416              1588.0349
 Red. masses --      5.1364                 1.1836                10.4472
 Frc consts  --      5.2935                 1.4245                15.5228
 IR Inten    --     75.9153               116.0722                59.1310

                     16                     17                     18
                      A                      A                      A
 Frequencies --   1778.1738              2249.6965              3014.7399
 Red. masses --      1.0271                 1.0917                 1.0956
 Frc consts  --      1.9134                 3.2553                 5.8668
 IR Inten    --    272.2002               608.6986               238.2084

 - Thermochemistry -
 -------------------
 Temperature   298.150 Kelvin.  Pressure   1.00000 Atm.
 Atom     1 has atomic number  6 and mass  12.00000

 Molecular mass:    63.02348 amu.
 Principal axes and moments of inertia in atomic units:
                           1         2         3
     Eigenvalues --   116.65300 466.11518 577.63884
           X            0.99963   0.02699  -0.00322
           Y           -0.02696   0.99959   0.01009
           Z            0.00349  -0.01000   0.99994
 This molecule is an asymmetric top.
 Rotational symmetry number  1.
 Rotational temperatures (Kelvin)      0.74249     0.18582     0.14994
 Rotational constants (GHZ):          15.47102     3.87188     3.12434
 Zero-point vibrational energy     111098.3 (Joules/Mol)
                                   26.55313 (Kcal/Mol)
 Warning -- explicit consideration of   7 degrees of freedom as
           vibrations may cause significant error
 Vibrational temperatures:    227.98   296.42   446.86   598.62   618.02
          (Kelvin)            723.25   880.81  1109.47  1141.16  1280.15
                             1378.99  1645.55  1902.87  2056.36  2284.83
                             2558.39  3236.81  4337.53

 Zero-point correction=                           0.042315 (Hartree/Particle)
 Thermal correction to Energy=                    0.047996
 Thermal correction to Enthalpy=                  0.048940
 Thermal correction to Gibbs Free Energy=         0.013239
 Sum of electronic and zero-point Energies=           -190.246997
 Sum of electronic and thermal Energies=              -190.241316
 Sum of electronic and thermal Enthalpies=            -190.240372
 Sum of electronic and thermal Free Energies=         -190.276073

                     E (Thermal)             CV                S
                      KCal/Mol        Cal/Mol-Kelvin    Cal/Mol-Kelvin
 Total                   30.118             19.297             75.138
 Electronic               0.000              0.000              2.183
 Translational            0.889              2.981             38.342
 Rotational               0.889              2.981             24.955
 Vibrational             28.340             13.335              9.658
 Vibration     1          0.621              1.893              2.568
 Vibration     2          0.641              1.831              2.079
 Vibration     3          0.699              1.654              1.359
 Vibration     4          0.779              1.435              0.905
 Vibration     5          0.791              1.406              0.860
 Vibration     6          0.858              1.244              0.651
 Vibration     7          0.971              1.006              0.429

 Normal termination of Gaussian 09 at Sun Jun 19 14:14:21 2016.
