 Gaussian 09, Revision E.01,
 Gaussian 09:  EM64L-G09RevE.01 30-Nov-2015

 ---------------------------------------------
 #p b3lyp/6-311++G(3df,2p) freq symmetry=Loose
 ---------------------------------------------

 ---------
 b3lyp opt
 ---------
 Symbolic Z-matrix:
 Charge =  0 Multiplicity = 4

                         Standard orientation:
 ---------------------------------------------------------------------
 Center     Atomic      Atomic             Coordinates (Angstroms)
 Number     Number       Type             X           Y           Z
 ---------------------------------------------------------------------
      1          6           0       -0.000000    0.423305    0.000000
      2          6           0       -0.997870    1.293994    0.000000
      3          1           0       -1.905596   -0.513704    0.917137
      4          6           0       -1.529942   -0.066886   -0.000000
      5          1           0       -1.905596   -0.513704   -0.917137
      6          6           0        1.270588   -0.098082   -0.000000
      7          1           0        2.077645    0.643509    0.000000
      8          6           0        1.546148   -1.488348   -0.000000
 ---------------------------------------------------------------------

 SCF Done:  E(UB3LYP) =  -192.021864040     A.U. after   16 cycles

 The electronic state is 4-A".
 Alpha  occ. eigenvalues --  -10.26973 -10.26530 -10.25364 -10.22811 -10.20955
 Alpha  occ. eigenvalues --   -0.94572  -0.81248  -0.66992  -0.61526  -0.53269
 Alpha  occ. eigenvalues --   -0.51125  -0.45215  -0.43423  -0.37165  -0.30208
 Alpha  occ. eigenvalues --   -0.28039  -0.28020  -0.20525
 Alpha virt. eigenvalues --   -0.08539  -0.01196   0.00446   0.01513   0.02726
 Alpha virt. eigenvalues --    0.03075   0.03487   0.06189   0.06614   0.07069
 Alpha virt. eigenvalues --    0.08241   0.09823   0.10140   0.10965   0.11400

  Beta  occ. eigenvalues --  -10.26276 -10.25165 -10.24919 -10.22462 -10.19238
  Beta  occ. eigenvalues --   -0.92293  -0.78743  -0.64575  -0.58159  -0.50850
  Beta  occ. eigenvalues --   -0.49478  -0.41529  -0.39410  -0.34279  -0.26467
  Beta virt. eigenvalues --   -0.17975  -0.16060  -0.04745  -0.03799  -0.00864
  Beta virt. eigenvalues --    0.00679   0.01823   0.03565   0.04073   0.04348
  Beta virt. eigenvalues --    0.06596   0.07025   0.07540   0.09102   0.10882

 Mulliken charges and spin densities:
               1          2
     1  C    0.519199   0.063893
     2  C   -0.040980   1.042501
     3  H    0.178418   0.031185
     4  C   -0.410862   0.221441
     5  H    0.178418   0.031185
     6  C    0.077897   0.351417
     7  H    0.165015   0.065429
     8  C   -0.667105   1.192949
 Sum of Mulliken charges =  -0.00000   3.00000

 Dipole moment (field-independent basis, Debye):
    X=             -2.3616    Y=              2.3222    Z=              0.0000  Tot=              3.3121
 Quadrupole moment (field-independent basis, Debye-Ang):
   XX=            -29.9956   YY=            -38.4954   ZZ=            -28.9881
   XY=              7.7750   XZ=             -0.0000   YZ=             -0.0000

  Exact polarizability:  86.097 -17.692  71.815  -0.000   0.000  44.528
 Approx polarizability: 129.676 -35.867 119.177   0.000  -0.000  61.479

                      1                      2                      3
                     A"                     A'                     A"
 Frequencies --    101.8696               206.1943               331.1394
 Red. masses --      5.1501                 5.1820                 3.3607
 Frc consts  --      0.0315                 0.1298                 0.2171
 IR Inten    --     39.2660                22.7972                 9.2431

                      4                      5                      6
                     A'                     A'                     A"
 Frequencies --    532.6872               593.6233               697.1870
 Red. masses --      6.3290                 6.9462                 1.2164
 Frc consts  --      1.0581                 1.4422                 0.3483
 IR Inten    --      4.3196                22.2971                 2.4761

                      7                      8                      9
                     A"                     A"                     A'
 Frequencies --    874.1105               968.3495               974.3918
 Red. masses --      1.2444                 1.2998                 2.3359
 Frc consts  --      0.5602                 0.7181                 1.3067
 IR Inten    --      0.5308                 2.2861                52.8507

                     10                     11                     12
                     A'                     A'                     A'
 Frequencies --   1008.5519              1067.2521              1158.1151
 Red. masses --      2.2127                 7.1072                 1.4281
 Frc consts  --      1.3261                 4.7696                 1.1285
 IR Inten    --      6.1685                51.5356                35.4486

                     13                     14                     15
                     A'                     A'                     A'
 Frequencies --   1318.6632              1452.6822              1657.7491
 Red. masses --      3.4358                 1.1112                10.7584
 Frc consts  --      3.5200                 1.3816                17.4196
 IR Inten    --     93.5799                10.3753                31.4441

                     16                     17                     18
                     A'                     A'                     A"
 Frequencies --   2996.5070              3061.4203              3141.1737
 Red. masses --      1.0809                 1.0471                 1.1149
 Frc consts  --      5.7182                 5.7822                 6.4812
 IR Inten    --     12.5998                 0.6569                 0.8204

 - Thermochemistry -
 -------------------
 Temperature   298.150 Kelvin.  Pressure   1.00000 Atm.
 Atom     1 has atomic number  6 and mass  12.00000

 Molecular mass:    63.02348 amu.
 Principal axes and moments of inertia in atomic units:
                           1         2         3
     Eigenvalues --   104.84065 441.71973 534.45129
           X            0.87398   0.48597   0.00000
           Y           -0.48597   0.87398   0.00000
           Z            0.00000  -0.00000   1.00000
 This molecule is an asymmetric top.
 Rotational symmetry number  1.
 Rotational temperatures (Kelvin)      0.82615     0.19608     0.16206
 Rotational constants (GHZ):          17.21414     4.08572     3.37681
 Zero-point vibrational energy     132436.6 (Joules/Mol)
                                   31.65310 (Kcal/Mol)
 Warning -- explicit consideration of   5 degrees of freedom as
           vibrations may cause significant error
 Vibrational temperatures:    146.57   296.67   476.44   766.42   854.09
          (Kelvin)           1003.10  1257.65  1393.24  1401.93  1451.08
                             1535.54  1666.27  1897.26  2090.08  2385.13
                             4311.30  4404.70  4519.44

 Zero-point correction=                           0.050442 (Hartree/Particle)
 Thermal correction to Energy=                    0.055663
 Thermal correction to Enthalpy=                  0.056607
 Thermal correction to Gibbs Free Energy=         0.021192
 Sum of electronic and zero-point Energies=           -191.971422
 Sum of electronic and thermal Energies=              -191.966201
 Sum of electronic and thermal Enthalpies=            -191.965257
 Sum of electronic and thermal Free Energies=         -192.000672

                     E (Thermal)             CV                S
                      KCal/Mol        Cal/Mol-Kelvin    Cal/Mol-Kelvin
 Total                   34.929             16.949             74.538
 Electronic               0.000              0.000              2.755
 Translational            0.889              2.981             38.342
 Rotational               0.889              2.981             24.718
 Vibrational             33.151             10.987              8.722
 Vibration     1          0.604              1.948              3.418
 Vibration     2          0.641              1.831              2.077
 Vibration     3          0.714              1.613              1.255
 Vibration     4          0.888              1.178              0.581
 Vibration     5          0.951              1.045              0.461

 Optimization completed.
    -- Stationary point found.
 Normal termination of Gaussian 09 at Tue Jul 19 13:08:51 2016.
