 Gaussian 09, Revision E.01,
 Gaussian 09:  EM64L-G09RevE.01 30-Nov-2015

 ---------------------------------------------
 #p b3lyp/6-311++G(3df,2p) freq symmetry=Loose
 ---------------------------------------------

 ---------
 b3lyp opt
 ---------
 Symbolic Z-matrix:
 Charge =  2 Multiplicity = 2

                         Standard orientation:
 ---------------------------------------------------------------------
 Center     Atomic      Atomic             Coordinates (Angstroms)
 Number     Number       Type             X           Y           Z
 ---------------------------------------------------------------------
      1          6           0       -2.283967    0.825268   -0.000000
      2          6           0       -1.284479   -0.125197   -0.000000
      3          1           0       -1.592685   -1.180282    0.000000
      4          6           0        0.000000    0.364362   -0.000000
      5          1           0        0.201804    1.434395   -0.000000
      6          6           0        1.169812   -0.510666    0.000000
      7          1           0        1.147094   -1.642451    0.000000
      8          6           0        2.439265   -0.322378    0.000000
 ---------------------------------------------------------------------

 SCF Done:  E(UB3LYP) =  -191.152264783     A.U. after   30 cycles

 The electronic state is 2-A'.
 Alpha  occ. eigenvalues --  -10.84637 -10.76574 -10.73667 -10.72113 -10.65865
 Alpha  occ. eigenvalues --   -1.34684  -1.29178  -1.16543  -1.02293  -0.99996
 Alpha  occ. eigenvalues --   -0.95910  -0.89813  -0.87788  -0.84934  -0.77759
 Alpha  occ. eigenvalues --   -0.75123
 Alpha virt. eigenvalues --   -0.62106  -0.60628  -0.55584  -0.46525  -0.39726
 Alpha virt. eigenvalues --   -0.33688  -0.31251  -0.29798  -0.26214  -0.25633
 Alpha virt. eigenvalues --   -0.24189  -0.23312  -0.22082  -0.20560  -0.19881

  Beta  occ. eigenvalues --  -10.82418 -10.76599 -10.73596 -10.71981 -10.65891
  Beta  occ. eigenvalues --   -1.33638  -1.28306  -1.15880  -1.01895  -0.98918
  Beta  occ. eigenvalues --   -0.95194  -0.87886  -0.84234  -0.76981  -0.74859
  Beta virt. eigenvalues --   -0.68936  -0.59750  -0.58829  -0.55476  -0.45372
  Beta virt. eigenvalues --   -0.39510  -0.33580  -0.30975  -0.29745  -0.26138
  Beta virt. eigenvalues --   -0.25616  -0.23862  -0.23214  -0.21970  -0.20520

 Mulliken charges and spin densities:
               1          2
     1  C    0.028848   0.003979
     2  C    0.167490  -0.042181
     3  H    0.247492   0.006118
     4  C    0.443284   0.029130
     5  H    0.257953  -0.001892
     6  C    0.409911   0.020405
     7  H    0.252135   0.000429
     8  C    0.192888   0.984013
 Sum of Mulliken charges =   2.00000   1.00000

 Dipole moment (field-independent basis, Debye):
    X=              3.1382    Y=             -1.7273    Z=              0.0000  Tot=              3.5821
 Quadrupole moment (field-independent basis, Debye-Ang):
   XX=             10.1767   YY=            -15.0461   ZZ=            -25.6862
   XY=             -4.0463   XZ=              0.0000   YZ=             -0.0000

  Exact polarizability: 119.784 -19.639  42.489   0.000  -0.000  37.420
 Approx polarizability: 286.885 -38.775  67.464   0.000  -0.000  41.518

                      1                      2                      3
                     A"                     A'                     A"
 Frequencies --    109.2067               164.1420               208.0120
 Red. masses --      5.7762                 9.0553                 4.3354
 Frc consts  --      0.0406                 0.1437                 0.1105
 IR Inten    --      1.4094                 0.6636                 1.3623

                      4                      5                      6
                     A'                     A"                     A'
 Frequencies --    264.1693               294.6489               404.2556
 Red. masses --      6.4382                 1.3578                 3.8955
 Frc consts  --      0.2647                 0.0695                 0.3751
 IR Inten    --     10.4840                16.1204                 3.3843

                      7                      8                      9
                     A"                     A'                     A"
 Frequencies --    776.4605               864.6856               959.6344
 Red. masses --      1.5889                 1.9790                 1.1942
 Frc consts  --      0.5644                 0.8718                 0.6480
 IR Inten    --      1.3108                20.9977                54.5099

                     10                     11                     12
                     A'                     A'                     A'
 Frequencies --    977.3420              1089.6632              1294.6562
 Red. masses --      1.4108                 1.8312                 2.3765
 Frc consts  --      0.7940                 1.2810                 2.3469
 IR Inten    --      0.6508                 1.0582                18.7278

                     13                     14                     15
                     A'                     A'                     A'
 Frequencies --   1355.2116              1526.0246              1659.6126
 Red. masses --      1.7813                 3.6652                 9.9427
 Frc consts  --      1.9276                 5.0288                16.1350
 IR Inten    --    135.4552               182.7283                37.9640

                     16                     17                     18
                     A'                     A'                     A'
 Frequencies --   2741.4967              3021.2114              3135.3033
 Red. masses --      1.0743                 1.0879                 1.0945
 Frc consts  --      4.7571                 5.8504                 6.3392
 IR Inten    --    270.3495               156.1865                63.0047

 - Thermochemistry -
 -------------------
 Temperature   298.150 Kelvin.  Pressure   1.00000 Atm.
 Atom     1 has atomic number  6 and mass  12.00000

 Molecular mass:    63.02348 amu.
 Principal axes and moments of inertia in atomic units:
                           1         2         3
     Eigenvalues --    43.01611 652.04818 695.06429
           X            0.97491   0.22260   0.00000
           Y           -0.22260   0.97491   0.00000
           Z            0.00000  -0.00000   1.00000
 This molecule is an asymmetric top.
 Rotational symmetry number  1.
 Rotational temperatures (Kelvin)      2.01352     0.13283     0.12461
 Rotational constants (GHZ):          41.95501     2.76780     2.59651
 Zero-point vibrational energy     124685.2 (Joules/Mol)
                                   29.80048 (Kcal/Mol)
 Warning -- explicit consideration of   6 degrees of freedom as
           vibrations may cause significant error
 Vibrational temperatures:    157.12   236.16   299.28   380.08   423.93
          (Kelvin)            581.63  1117.15  1244.09  1380.70  1406.18
                             1567.78  1862.72  1949.84  2195.61  2387.81
                             3944.40  4346.84  4511.00

 Zero-point correction=                           0.047490 (Hartree/Particle)
 Thermal correction to Energy=                    0.053690
 Thermal correction to Enthalpy=                  0.054634
 Thermal correction to Gibbs Free Energy=         0.018141
 Sum of electronic and zero-point Energies=           -191.104775
 Sum of electronic and thermal Energies=              -191.098575
 Sum of electronic and thermal Enthalpies=            -191.097631
 Sum of electronic and thermal Free Energies=         -191.134124

                     E (Thermal)             CV                S
                      KCal/Mol        Cal/Mol-Kelvin    Cal/Mol-Kelvin
 Total                   33.691             19.243             76.806
 Electronic               0.000              0.000              1.377
 Translational            0.889              2.981             38.342
 Rotational               0.889              2.981             24.481
 Vibrational             31.913             13.281             12.606
 Vibration     1          0.606              1.942              3.283
 Vibration     2          0.623              1.886              2.502
 Vibration     3          0.641              1.828              2.061
 Vibration     4          0.671              1.739              1.634
 Vibration     5          0.689              1.684              1.447
 Vibration     6          0.769              1.461              0.947

 Optimization completed.
    -- Stationary point found.
 Normal termination of Gaussian 09 at Sun Jun 19 11:35:38 2016.
