 Gaussian 09, Revision E.01,
 Gaussian 09:  EM64L-G09RevE.01 30-Nov-2015

 ---------------------------------------------
 #p b3lyp/6-311++G(3df,2p) freq symmetry=Loose
 ---------------------------------------------

 ---------
 b3lyp opt
 ---------
 Symbolic Z-matrix:
 Charge =  3 Multiplicity = 3

                         Standard orientation:
 ---------------------------------------------------------------------
 Center     Atomic      Atomic             Coordinates (Angstroms)
 Number     Number       Type             X           Y           Z
 ---------------------------------------------------------------------
      1          6           0        0.414295   -0.144618    0.032964
      2          6           0        1.252247   -1.339921   -0.044233
      3          6           0        1.207137    1.084140    0.004390
      4          1           0        2.299647    1.050681   -0.178502
      5          1           0        0.760496    2.076319    0.202879
      6          6           0       -1.010460   -0.320369    0.059897
      7          6           0       -2.120814    0.425834   -0.087763
      8          1           0       -1.514567   -1.357395    0.184098
 ---------------------------------------------------------------------

 SCF Done:  E(UB3LYP) =  -190.293264621     A.U. after   29 cycles

 The electronic state is 3-A.
 Alpha  occ. eigenvalues --  -11.12909 -11.07232 -11.00246 -10.98016 -10.97948
 Alpha  occ. eigenvalues --   -1.60124  -1.53278  -1.39092  -1.32883  -1.22276
 Alpha  occ. eigenvalues --   -1.16732  -1.13693  -1.11835  -1.10288  -1.03092
 Alpha  occ. eigenvalues --   -1.02132
 Alpha virt. eigenvalues --   -0.86760  -0.83405  -0.82825  -0.78999  -0.64906
 Alpha virt. eigenvalues --   -0.56421  -0.49623  -0.47371  -0.47192  -0.45988
 Alpha virt. eigenvalues --   -0.43997  -0.42243  -0.42029  -0.39462  -0.38338

  Beta  occ. eigenvalues --  -11.09884 -11.06858 -11.00043 -10.97772 -10.97649
  Beta  occ. eigenvalues --   -1.58228  -1.50155  -1.38024  -1.31324  -1.21086
  Beta  occ. eigenvalues --   -1.15253  -1.10915  -1.06840  -1.01308
  Beta virt. eigenvalues --   -0.91899  -0.91596  -0.82714  -0.82037  -0.81123
  Beta virt. eigenvalues --   -0.73617  -0.61696  -0.56143  -0.49428  -0.46970
  Beta virt. eigenvalues --   -0.46140  -0.45356  -0.43336  -0.41819  -0.41050

 Mulliken charges and spin densities:
               1          2
     1  C    1.237339   0.213883
     2  C    0.411519   0.204679
     3  C   -0.280722   0.031509
     4  H    0.334092  -0.001694
     5  H    0.319747   0.007023
     6  C    0.115297   0.137628
     7  C    0.542084   1.414314
     8  H    0.320644  -0.007342
 Sum of Mulliken charges =   3.00000   2.00000

 Dipole moment (field-independent basis, Debye):
    X=             -2.0048    Y=              1.1260    Z=              0.0802  Tot=              2.3008
 Quadrupole moment (field-independent basis, Debye-Ang):
   XX=             17.2574   YY=             -3.2765   ZZ=            -22.3112
   XY=              2.7274   XZ=              0.0209   YZ=             -0.5363

  Exact polarizability:  86.542 -10.956  52.005   3.674  -1.606  24.847
 Approx polarizability: 174.915 -40.496  98.438   4.501  -1.958  35.890

                      1                      2                      3
                      A                      A                      A
 Frequencies --    104.9809               234.1179               254.9503
 Red. masses --      2.7889                 6.7794                 3.6107
 Frc consts  --      0.0181                 0.2189                 0.1383
 IR Inten    --      9.7158                 7.7383                 5.6109

                      4                      5                      6
                      A                      A                      A
 Frequencies --    329.3722               406.6906               421.7925
 Red. masses --      1.2128                 2.9172                 4.4333
 Frc consts  --      0.0775                 0.2843                 0.4647
 IR Inten    --      7.7945                22.3488                15.3779

                      7                      8                      9
                      A                      A                      A
 Frequencies --    702.9560               758.0459               888.4607
 Red. masses --      2.1657                 5.2881                 1.5929
 Frc consts  --      0.6305                 1.7904                 0.7408
 IR Inten    --     40.5363                15.4564                37.1085

                     10                     11                     12
                      A                      A                      A
 Frequencies --    923.4141              1130.4796              1168.3949
 Red. masses --      1.6340                 1.7283                 2.3530
 Frc consts  --      0.8209                 1.3013                 1.8925
 IR Inten    --     40.2449                99.4616               102.8649

                     13                     14                     15
                      A                      A                      A
 Frequencies --   1191.1060              1355.9027              1430.0102
 Red. masses --      3.4766                 5.0410                 1.0985
 Frc consts  --      2.9060                 5.4604                 1.3235
 IR Inten    --    201.1658                28.4305                37.3996

                     16                     17                     18
                      A                      A                      A
 Frequencies --   2482.3068              2916.3754              3026.5768
 Red. masses --      1.0769                 1.0532                 1.1275
 Frc consts  --      3.9097                 5.2776                 6.0852
 IR Inten    --    487.8126               273.5915               127.6888

 - Thermochemistry -
 -------------------
 Temperature   298.150 Kelvin.  Pressure   1.00000 Atm.
 Atom     1 has atomic number  6 and mass  12.00000

 Molecular mass:    63.02348 amu.
 Principal axes and moments of inertia in atomic units:
                           1         2         3
     Eigenvalues --   165.34821 405.68727 569.05845
           X            0.99591   0.09020  -0.00472
           Y           -0.09021   0.99592  -0.00084
           Z            0.00462   0.00126   0.99999
 This molecule is an asymmetric top.
 Rotational symmetry number  1.
 Rotational temperatures (Kelvin)      0.52383     0.21350     0.15221
 Rotational constants (GHZ):          10.91479     4.44860     3.17145
 Zero-point vibrational energy     117987.3 (Joules/Mol)
                                   28.19964 (Kcal/Mol)
 Warning -- explicit consideration of   6 degrees of freedom as
           vibrations may cause significant error
 Vibrational temperatures:    151.04   336.84   366.82   473.89   585.14
          (Kelvin)            606.86  1011.40  1090.66  1278.30  1328.59
                             1626.51  1681.06  1713.73  1950.84  2057.46
                             3571.48  4196.01  4354.56

 Zero-point correction=                           0.044939 (Hartree/Particle)
 Thermal correction to Energy=                    0.050845
 Thermal correction to Enthalpy=                  0.051789
 Thermal correction to Gibbs Free Energy=         0.015362
 Sum of electronic and zero-point Energies=           -190.248326
 Sum of electronic and thermal Energies=              -190.242420
 Sum of electronic and thermal Enthalpies=            -190.241476
 Sum of electronic and thermal Free Energies=         -190.277903

                     E (Thermal)             CV                S
                      KCal/Mol        Cal/Mol-Kelvin    Cal/Mol-Kelvin
 Total                   31.905             19.389             76.667
 Electronic               0.000              0.000              2.183
 Translational            0.889              2.981             38.342
 Rotational               0.889              2.981             25.149
 Vibrational             30.128             13.427             10.993
 Vibration     1          0.605              1.945              3.360
 Vibration     2          0.654              1.789              1.847
 Vibration     3          0.665              1.754              1.696
 Vibration     4          0.712              1.617              1.263
 Vibration     5          0.771              1.456              0.938
 Vibration     6          0.784              1.423              0.886

 Optimization completed.
    -- Stationary point found.
 Normal termination of Gaussian 09 at Sun Jun 19 14:29:54 2016.
