 Gaussian 09, Revision E.01,
 Gaussian 09:  EM64L-G09RevE.01 30-Nov-2015

 ---------------------------------------------
 #p b3lyp/6-311++G(3df,2p) freq symmetry=Loose
 ---------------------------------------------

 ---------
 b3lyp opt
 ---------
 Symbolic Z-matrix:
 Charge =  0 Multiplicity = 4

                         Standard orientation:
 ---------------------------------------------------------------------
 Center     Atomic      Atomic             Coordinates (Angstroms)
 Number     Number       Type             X           Y           Z
 ---------------------------------------------------------------------
      1          6           0       -2.295941   -0.339586    0.000000
      2          1           0       -3.180458   -0.954073    0.000000
      3          6           0       -0.970865   -0.533248    0.000000
      4          1           0       -0.604297   -1.562107    0.000000
      5          6           0        0.000000    0.493073   -0.000000
      6          1           0       -0.328217    1.525633    0.000000
      7          6           0        1.358723    0.243385   -0.000000
      8          6           0        2.593578    0.301467   -0.000000
 ---------------------------------------------------------------------

 SCF Done:  E(UB3LYP) =  -192.079795014     A.U. after   21 cycles

 The electronic state is 4-A".
 Alpha  occ. eigenvalues --  -10.24120 -10.22244 -10.22071 -10.21349 -10.20867
 Alpha  occ. eigenvalues --   -0.84881  -0.79233  -0.71915  -0.59103  -0.54151
 Alpha  occ. eigenvalues --   -0.47497  -0.44356  -0.39283  -0.38588  -0.32089
 Alpha  occ. eigenvalues --   -0.31277  -0.26876  -0.22273
 Alpha virt. eigenvalues --   -0.01645  -0.01472  -0.00110   0.01560   0.02404
 Alpha virt. eigenvalues --    0.04776   0.04853   0.05708   0.07118   0.07649
 Alpha virt. eigenvalues --    0.08253   0.08357   0.09402   0.10936   0.10945

  Beta  occ. eigenvalues --  -10.21805 -10.21360 -10.21303 -10.21182 -10.19945
  Beta  occ. eigenvalues --   -0.83200  -0.76509  -0.67985  -0.56566  -0.52953
  Beta  occ. eigenvalues --   -0.45783  -0.42938  -0.35879  -0.29556  -0.28880
  Beta virt. eigenvalues --   -0.19721  -0.10796  -0.10251  -0.00312   0.00704
  Beta virt. eigenvalues --    0.00766   0.01915   0.03313   0.05111   0.05626
  Beta virt. eigenvalues --    0.06710   0.07793   0.08276   0.08463   0.09853

 Mulliken charges and spin densities:
               1          2
     1  C   -0.405114   1.448276
     2  H    0.219200   0.006702
     3  C    0.012057  -0.318987
     4  H    0.147198   0.076163
     5  C   -0.245786   0.601445
     6  H    0.151925  -0.018027
     7  C    0.442019  -0.139471
     8  C   -0.321498   1.343898
 Sum of Mulliken charges =  -0.00000   3.00000

 Dipole moment (field-independent basis, Debye):
    X=             -1.4327    Y=             -0.9460    Z=              0.0000  Tot=              1.7169
 Quadrupole moment (field-independent basis, Debye-Ang):
   XX=            -29.6319   YY=            -27.6063   ZZ=            -32.1143
   XY=              0.2560   XZ=              0.0000   YZ=              0.0000

  Exact polarizability: 147.054  22.498  51.324  -0.000  -0.000  40.976
 Approx polarizability: 196.516  19.721  67.321  -0.000  -0.000  54.486

                      1                      2                      3
                     A'                     A"                     A'
 Frequencies --     92.9581               165.1776               341.4604
 Red. masses --      7.1507                 4.7328                 3.4836
 Frc consts  --      0.0364                 0.0761                 0.2393
 IR Inten    --    112.1084                 0.0759                77.9370

                      4                      5                      6
                     A"                     A'                     A"
 Frequencies --    389.1030               503.8736               605.8164
 Red. masses --      7.3586                 5.9590                 1.1607
 Frc consts  --      0.6564                 0.8914                 0.2510
 IR Inten    --      0.0256                77.4081                38.9529

                      7                      8                      9
                     A"                     A'                     A"
 Frequencies --    763.8074               792.0830               869.2256
 Red. masses --      1.5139                 1.4592                 1.3874
 Frc consts  --      0.5204                 0.5394                 0.6176
 IR Inten    --     14.1588               107.6450                 5.0510

                     10                     11                     12
                     A'                     A'                     A'
 Frequencies --    979.3272              1179.0300              1235.8950
 Red. masses --      3.2127                 2.0351                 1.3287
 Frc consts  --      1.8154                 1.6668                 1.1957
 IR Inten    --    503.2381                 2.2771                21.3235

                     13                     14                     15
                     A'                     A'                     A'
 Frequencies --   1360.9304              1459.5962              1539.4018
 Red. masses --      2.9533                 3.0547                 8.5945
 Frc consts  --      3.2227                 3.8343                11.9998
 IR Inten    --     79.7396               162.0828              1469.2018

                     16                     17                     18
                     A'                     A'                     A'
 Frequencies --   3047.5703              3154.7476              3246.9901
 Red. masses --      1.0826                 1.0858                 1.0974
 Frc consts  --      5.9241                 6.3670                 6.8165
 IR Inten    --      2.7474                 0.3926                 1.6531

 - Thermochemistry -
 -------------------
 Temperature   298.150 Kelvin.  Pressure   1.00000 Atm.
 Atom     1 has atomic number  6 and mass  12.00000

 Molecular mass:    63.02348 amu.
 Principal axes and moments of inertia in atomic units:
                           1         2         3
     Eigenvalues --    33.40751 691.76579 725.17330
           X            0.98396  -0.17839   0.00000
           Y            0.17839   0.98396   0.00000
           Z            0.00000  -0.00000   1.00000
 This molecule is an asymmetric top.
 Rotational symmetry number  1.
 Rotational temperatures (Kelvin)      2.59264     0.12521     0.11944
 Rotational constants (GHZ):          54.02202     2.60889     2.48870
 Zero-point vibrational energy     129956.3 (Joules/Mol)
                                   31.06030 (Kcal/Mol)
 Warning -- explicit consideration of   6 degrees of freedom as
           vibrations may cause significant error
 Vibrational temperatures:    133.75   237.65   491.28   559.83   724.96
          (Kelvin)            871.63  1098.95  1139.63  1250.62  1409.03
                             1696.36  1778.18  1958.07  2100.03  2214.85
                             4384.77  4538.97  4671.69

 Zero-point correction=                           0.049498 (Hartree/Particle)
 Thermal correction to Energy=                    0.055087
 Thermal correction to Enthalpy=                  0.056031
 Thermal correction to Gibbs Free Energy=         0.020088
 Sum of electronic and zero-point Energies=           -192.030297
 Sum of electronic and thermal Energies=              -192.024708
 Sum of electronic and thermal Enthalpies=            -192.023764
 Sum of electronic and thermal Free Energies=         -192.059707

                     E (Thermal)             CV                S
                      KCal/Mol        Cal/Mol-Kelvin    Cal/Mol-Kelvin
 Total                   34.568             18.142             75.649
 Electronic               0.000              0.000              2.755
 Translational            0.889              2.981             38.342
 Rotational               0.889              2.981             24.331
 Vibrational             32.790             12.181             10.222
 Vibration     1          0.602              1.954              3.597
 Vibration     2          0.624              1.885              2.490
 Vibration     3          0.721              1.593              1.205
 Vibration     4          0.757              1.493              1.004
 Vibration     5          0.859              1.241              0.649
 Vibration     6          0.964              1.019              0.440

 Normal termination of Gaussian 09 at Sun Jun 19 09:10:29 2016.
