 Gaussian 09, Revision E.01,
 Gaussian 09:  EM64L-G09RevE.01 30-Nov-2015

 ---------------------------------------------
 #p b3lyp/6-311++G(3df,2p) freq symmetry=Loose
 ---------------------------------------------

 ---------
 b3lyp opt
 ---------
 Symbolic Z-matrix:
 Charge =  2 Multiplicity = 2

                         Standard orientation:
 ---------------------------------------------------------------------
 Center     Atomic      Atomic             Coordinates (Angstroms)
 Number     Number       Type             X           Y           Z
 ---------------------------------------------------------------------
      1          6           0       -0.587906   -0.798058    0.000000
      2          1           0       -1.303252   -0.924884    0.855687
      3          1           0       -1.303252   -0.924884   -0.855687
      4          6           0        0.261005   -1.882917    0.000000
      5          1           0        1.224951   -2.410951    0.000000
      6          6           0        0.035150    0.689673   -0.000000
      7          6           0        0.261005    1.350711   -1.177809
      8          6           0        0.261005    1.350711    1.177809
 ---------------------------------------------------------------------

 SCF Done:  E(UB3LYP) =  -191.082875204     A.U. after   22 cycles

 The electronic state is 2-A'.
 Alpha  occ. eigenvalues --  -10.80973 -10.77744 -10.77741 -10.73188 -10.68378
 Alpha  occ. eigenvalues --   -1.35222  -1.28793  -1.13194  -1.10798  -0.99242
 Alpha  occ. eigenvalues --   -0.96138  -0.92817  -0.80663  -0.79052  -0.76234
 Alpha  occ. eigenvalues --   -0.75364
 Alpha virt. eigenvalues --   -0.62397  -0.60599  -0.58273  -0.55697  -0.41779
 Alpha virt. eigenvalues --   -0.35752  -0.32146  -0.31650  -0.31209  -0.27679
 Alpha virt. eigenvalues --   -0.26487  -0.24731  -0.22261  -0.20414  -0.19744

  Beta  occ. eigenvalues --  -10.79394 -10.77664 -10.77661 -10.73266 -10.68214
  Beta  occ. eigenvalues --   -1.34376  -1.27320  -1.12711  -1.08630  -0.98225
  Beta  occ. eigenvalues --   -0.95046  -0.92631  -0.80390  -0.78474  -0.75455
  Beta virt. eigenvalues --   -0.63271  -0.60553  -0.57983  -0.56298  -0.54566
  Beta virt. eigenvalues --   -0.41474  -0.35224  -0.31614  -0.31526  -0.30671
  Beta virt. eigenvalues --   -0.27365  -0.26096  -0.24367  -0.21860  -0.19703

 Mulliken charges and spin densities:
               1          2
     1  C   -0.248303  -0.048913
     2  H    0.298252   0.004530
     3  H    0.298252   0.004530
     4  C    0.222590   0.886032
     5  H    0.394490  -0.003726
     6  C    1.057002   0.083777
     7  C   -0.011141   0.036886
     8  C   -0.011141   0.036886
 Sum of Mulliken charges =   2.00000   1.00000

 Dipole moment (field-independent basis, Debye):
    X=             -0.1768    Y=             -4.5964    Z=              0.0000  Tot=              4.5998
 Quadrupole moment (field-independent basis, Debye-Ang):
   XX=            -18.0470   YY=             -1.3042   ZZ=            -20.5999
   XY=             -1.3192   XZ=              0.0000   YZ=              0.0000

  Exact polarizability:  36.230   0.503  64.183   0.000  -0.000  47.577
 Approx polarizability:  57.521  -0.854 105.575  -0.000  -0.000 111.888

                      1                      2                      3
                     A"                     A"                     A'
 Frequencies --     41.6453               181.5145               240.6303
 Red. masses --      2.1345                 1.9521                 3.8443
 Frc consts  --      0.0022                 0.0379                 0.1311
 IR Inten    --      1.2737                20.1644                27.8141

                      4                      5                      6
                     A"                     A'                     A'
 Frequencies --    276.1552               322.8829               408.8423
 Red. masses --      2.1526                 8.5724                 2.3417
 Frc consts  --      0.0967                 0.5266                 0.2306
 IR Inten    --     41.8844                27.3033                24.0652

                      7                      8                      9
                     A'                     A'                     A"
 Frequencies --    563.8866               667.6254               861.4229
 Red. masses --      2.3312                 8.9827                 1.5109
 Frc consts  --      0.4367                 2.3590                 0.6606
 IR Inten    --    116.9266                53.9632                 0.0689

                     10                     11                     12
                     A'                     A"                     A'
 Frequencies --   1065.4510              1156.2748              1164.9859
 Red. masses --      1.4411                 1.1539                 1.1261
 Frc consts  --      0.9639                 0.9089                 0.9004
 IR Inten    --     42.3502                 5.4416               109.9469

                     13                     14                     15
                     A'                     A'                     A"
 Frequencies --   1214.4147              1328.0298              1520.3410
 Red. masses --      6.0987                 2.9574                11.2421
 Frc consts  --      5.2993                 3.0731                15.3101
 IR Inten    --    174.0012                47.1017               576.9595

                     16                     17                     18
                     A"                     A'                     A'
 Frequencies --   2777.0114              2802.3899              3077.8037
 Red. masses --      1.0858                 1.0635                 1.1056
 Frc consts  --      4.9333                 4.9210                 6.1705
 IR Inten    --    183.9410               251.6005               266.7667

 - Thermochemistry -
 -------------------
 Temperature   298.150 Kelvin.  Pressure   1.00000 Atm.
 Atom     1 has atomic number  6 and mass  12.00000

 Molecular mass:    63.02348 amu.
 Principal axes and moments of inertia in atomic units:
                           1         2         3
     Eigenvalues --   163.01815 423.17413 508.48415
           X            0.08137  -0.00000   0.99668
           Y            0.99668   0.00000  -0.08137
           Z           -0.00000   1.00000   0.00000
 This molecule is an asymmetric top.
 Rotational symmetry number  1.
 Rotational temperatures (Kelvin)      0.53131     0.20468     0.17034
 Rotational constants (GHZ):          11.07080     4.26477     3.54926
 Zero-point vibrational energy     117660.5 (Joules/Mol)
                                   28.12155 (Kcal/Mol)
 Warning -- explicit consideration of   7 degrees of freedom as
           vibrations may cause significant error
 Vibrational temperatures:     59.92   261.16   346.21   397.33   464.56
          (Kelvin)            588.23   811.31   960.56  1239.39  1532.94
                             1663.62  1676.15  1747.27  1910.74  2187.43
                             3995.49  4032.01  4428.27

 Zero-point correction=                           0.044815 (Hartree/Particle)
 Thermal correction to Energy=                    0.051202
 Thermal correction to Enthalpy=                  0.052146
 Thermal correction to Gibbs Free Energy=         0.014550
 Sum of electronic and zero-point Energies=           -191.038061
 Sum of electronic and thermal Energies=              -191.031674
 Sum of electronic and thermal Enthalpies=            -191.030729
 Sum of electronic and thermal Free Energies=         -191.068325

                     E (Thermal)             CV                S
                      KCal/Mol        Cal/Mol-Kelvin    Cal/Mol-Kelvin
 Total                   32.129             20.117             79.127
 Electronic               0.000              0.000              1.377
 Translational            0.889              2.981             38.342
 Rotational               0.889              2.981             25.065
 Vibrational             30.352             14.155             14.343
 Vibration     1          0.594              1.981              5.179
 Vibration     2          0.630              1.865              2.313
 Vibration     3          0.658              1.778              1.798
 Vibration     4          0.678              1.717              1.557
 Vibration     5          0.708              1.630              1.295
 Vibration     6          0.773              1.451              0.931
 Vibration     7          0.920              1.109              0.516

 Normal termination of Gaussian 09 at Tue Jul 19 11:30:46 2016.
