 Gaussian 09, Revision E.01,
 Gaussian 09:  EM64L-G09RevE.01 30-Nov-2015

 ---------------------------------------------
 #p b3lyp/6-311++G(3df,2p) freq symmetry=Loose
 ---------------------------------------------

 ---------
 b3lyp opt
 ---------
 Symbolic Z-matrix:
 Charge =  0 Multiplicity = 4

                         Standard orientation:
 ---------------------------------------------------------------------
 Center     Atomic      Atomic             Coordinates (Angstroms)
 Number     Number       Type             X           Y           Z
 ---------------------------------------------------------------------
      1          6           0       -2.418932    0.220644    0.000291
      2          1           0       -2.492784    1.308864   -0.000550
      3          1           0       -3.352628   -0.328915    0.001359
      4          6           0       -1.246292   -0.391111    0.000051
      5          6           0        0.093735   -0.175479   -0.000748
      6          6           0        1.331608    0.006693   -0.000346
      7          1           0        3.556242   -0.303989    0.001342
      8          6           0        2.621409    0.226593    0.000394
 ---------------------------------------------------------------------

 SCF Done:  E(UB3LYP) =  -192.131961127     A.U. after   16 cycles

 The electronic state is 4-A.
 Alpha  occ. eigenvalues --  -10.22810 -10.22737 -10.22278 -10.20865 -10.20238
 Alpha  occ. eigenvalues --   -0.84122  -0.79579  -0.72615  -0.63732  -0.52471
 Alpha  occ. eigenvalues --   -0.50060  -0.47083  -0.39218  -0.38521  -0.31974
 Alpha  occ. eigenvalues --   -0.30425  -0.22135  -0.19498
 Alpha virt. eigenvalues --   -0.03020  -0.00463   0.00365   0.02326   0.03300
 Alpha virt. eigenvalues --    0.05201   0.05353   0.06828   0.07766   0.07888
 Alpha virt. eigenvalues --    0.09134   0.09479   0.09779   0.11910   0.12785

  Beta  occ. eigenvalues --  -10.21705 -10.21234 -10.21008 -10.20658 -10.19751
  Beta  occ. eigenvalues --   -0.81274  -0.77045  -0.68895  -0.61358  -0.50584
  Beta  occ. eigenvalues --   -0.48463  -0.44783  -0.36245  -0.33269  -0.28672
  Beta virt. eigenvalues --   -0.16515  -0.11812  -0.06116  -0.00212  -0.00194
  Beta virt. eigenvalues --    0.00726   0.02504   0.03746   0.05539   0.06412
  Beta virt. eigenvalues --    0.08415   0.08681   0.08878   0.09693   0.09999

 Mulliken charges and spin densities:
               1          2
     1  C   -0.549524   0.263743
     2  H    0.149049   0.072087
     3  H    0.179796   0.019363
     4  C    0.239223   0.693524
     5  C   -0.277303   0.667998
     6  C    0.456442  -0.068923
     7  H    0.220376   0.006397
     8  C   -0.418059   1.345812
 Sum of Mulliken charges =  -0.00000   3.00000

 Dipole moment (field-independent basis, Debye):
    X=             -0.4231    Y=              0.0118    Z=              0.0012  Tot=              0.4233
 Quadrupole moment (field-independent basis, Debye-Ang):
   XX=            -21.6115   YY=            -29.8661   ZZ=            -31.8238
   XY=             -2.6651   XZ=              0.0021   YZ=             -0.0022

  Exact polarizability: 150.229   1.337  44.381   0.005   0.000  38.748
 Approx polarizability: 275.026   8.813  63.985   0.015   0.004  52.974

                      1                      2                      3
                      A                      A                      A
 Frequencies --    116.5075               166.0277               318.2417
 Red. masses --      3.3077                 2.3037                 3.5541
 Frc consts  --      0.0265                 0.0374                 0.2121
 IR Inten    --      4.9868                 5.0199                 1.9703

                      4                      5                      6
                      A                      A                      A
 Frequencies --    419.7443               432.4888               493.6281
 Red. masses --      5.0712                 5.2070                 2.6554
 Frc consts  --      0.5264                 0.5738                 0.3812
 IR Inten    --      2.6211                 4.1733                15.4125

                      7                      8                      9
                      A                      A                      A
 Frequencies --    512.2236               683.6007               774.4302
 Red. masses --      1.1455                 1.7447                 3.1992
 Frc consts  --      0.1771                 0.4804                 1.1305
 IR Inten    --     14.8995                31.9807                13.0475

                     10                     11                     12
                      A                      A                      A
 Frequencies --    845.6794               985.6404              1277.1703
 Red. masses --      1.3378                 1.5700                 4.4127
 Frc consts  --      0.5637                 0.8987                 4.2408
 IR Inten    --     45.1629                 0.2140                 2.1292

                     13                     14                     15
                      A                      A                      A
 Frequencies --   1418.3174              1595.6894              1946.3948
 Red. masses --      1.2316                 7.6143                11.4600
 Frc consts  --      1.4597                11.4229                25.5797
 IR Inten    --      3.8627                25.7961                21.5896

                     16                     17                     18
                      A                      A                      A
 Frequencies --   3045.9350              3164.0530              3262.1038
 Red. masses --      1.0619                 1.1011                 1.0992
 Frc consts  --      5.8044                 6.4950                 6.8916
 IR Inten    --      3.0207                 1.7470                 3.3439

 - Thermochemistry -
 -------------------
 Temperature   298.150 Kelvin.  Pressure   1.00000 Atm.
 Atom     1 has atomic number  6 and mass  12.00000

 Molecular mass:    63.02348 amu.
 Principal axes and moments of inertia in atomic units:
                           1         2         3
     Eigenvalues --    18.85292 796.35315 815.20597
           X            0.99989  -0.01488   0.00001
           Y            0.01488   0.99989  -0.00030
           Z           -0.00001   0.00030   1.00000
 This molecule is an asymmetric top.
 Rotational symmetry number  1.
 Rotational temperatures (Kelvin)      4.59419     0.10876     0.10625
 Rotational constants (GHZ):          95.72742     2.26626     2.21385
 Zero-point vibrational energy     128346.6 (Joules/Mol)
                                   30.67557 (Kcal/Mol)
 Warning -- explicit consideration of   7 degrees of freedom as
           vibrations may cause significant error
 Vibrational temperatures:    167.63   238.88   457.88   603.92   622.25
          (Kelvin)            710.22   736.97   983.55  1114.23  1216.74
                             1418.11  1837.56  2040.64  2295.84  2800.42
                             4382.42  4552.36  4693.43

 Zero-point correction=                           0.048885 (Hartree/Particle)
 Thermal correction to Energy=                    0.054782
 Thermal correction to Enthalpy=                  0.055726
 Thermal correction to Gibbs Free Energy=         0.019615
 Sum of electronic and zero-point Energies=           -192.083076
 Sum of electronic and thermal Energies=              -192.077179
 Sum of electronic and thermal Enthalpies=            -192.076235
 Sum of electronic and thermal Free Energies=         -192.112346

                     E (Thermal)             CV                S
                      KCal/Mol        Cal/Mol-Kelvin    Cal/Mol-Kelvin
 Total                   34.376             19.588             76.002
 Electronic               0.000              0.000              2.755
 Translational            0.889              2.981             38.342
 Rotational               0.889              2.981             24.019
 Vibrational             32.599             13.626             10.886
 Vibration     1          0.608              1.936              3.158
 Vibration     2          0.624              1.884              2.480
 Vibration     3          0.705              1.639              1.319
 Vibration     4          0.782              1.427              0.893
 Vibration     5          0.793              1.399              0.851
 Vibration     6          0.849              1.264              0.674
 Vibration     7          0.867              1.223              0.628

 Normal termination of Gaussian 09 at Sun Jun 19 08:42:49 2016.
