 Gaussian 09, Revision E.01,
 Gaussian 09:  EM64L-G09RevE.01 30-Nov-2015

 ------------------------------------------------------
 #p b3lyp/6-311++G(3df,2p) freq IOp(2/17=3) IOp(2/18=3)
 ------------------------------------------------------

 ---------
 b3lyp opt
 ---------
 Symbolic Z-matrix:
 Charge =  2 Multiplicity = 4

                         Standard orientation:
 ---------------------------------------------------------------------
 Center     Atomic      Atomic             Coordinates (Angstroms)
 Number     Number       Type             X           Y           Z
 ---------------------------------------------------------------------
      1          6           0        1.303250    0.194199    0.000000
      2          1           0        1.910055    0.360643   -0.912001
      3          1           0        1.910055    0.360643    0.912001
      4          6           0        0.000000    0.867235    0.000000
      5          6           0       -1.274079    0.571994    0.000000
      6          1           0       -2.277770    1.016243    0.000000
      7          6           0        0.563356   -1.114731    0.000000
      8          6           0       -0.849537   -0.808278    0.000000
 ---------------------------------------------------------------------

 SCF Done:  E(UB3LYP) =  -191.181314260     A.U. after   16 cycles

 The electronic state is 4-A".
 Alpha  occ. eigenvalues --  -10.83257 -10.81748 -10.80769 -10.75087 -10.71402
 Alpha  occ. eigenvalues --   -1.47376  -1.29490  -1.21986  -1.06609  -1.03554
 Alpha  occ. eigenvalues --   -0.98669  -0.97349  -0.95847  -0.85793  -0.85237
 Alpha  occ. eigenvalues --   -0.78095  -0.76445
 Alpha virt. eigenvalues --   -0.60613  -0.58432  -0.47833  -0.36158  -0.33990
 Alpha virt. eigenvalues --   -0.31961  -0.28930  -0.28556  -0.28021  -0.24999
 Alpha virt. eigenvalues --   -0.24343  -0.23468  -0.23378  -0.21468  -0.21027

  Beta  occ. eigenvalues --  -10.82253 -10.79756 -10.77984 -10.75043 -10.71282
  Beta  occ. eigenvalues --   -1.44814  -1.27650  -1.17192  -1.04567  -0.99409
  Beta  occ. eigenvalues --   -0.96360  -0.94829  -0.93535  -0.83851
  Beta virt. eigenvalues --   -0.69450  -0.64968  -0.57219  -0.54013  -0.53016
  Beta virt. eigenvalues --   -0.42737  -0.35325  -0.33096  -0.30053  -0.28702
  Beta virt. eigenvalues --   -0.27651  -0.27503  -0.24026  -0.23634  -0.22675

 Mulliken charges and spin densities:
               1          2
     1  C   -0.358474  -0.007772
     2  H    0.300499   0.009706
     3  H    0.300499   0.009706
     4  C    0.666211   0.496947
     5  C    0.131281  -0.027149
     6  H    0.360019   0.034379
     7  C    0.339339   1.452428
     8  C    0.260626   1.031755
 Sum of Mulliken charges =   2.00000   3.00000

 Dipole moment (field-independent basis, Debye):
    X=             -0.0357    Y=              1.1485    Z=             -0.0000  Tot=              1.1491
 Quadrupole moment (field-independent basis, Debye-Ang):
   XX=             -3.7332   YY=            -15.2756   ZZ=            -22.4613
   XY=             -1.9633   XZ=             -0.0000   YZ=             -0.0000

  Exact polarizability:  52.058  -1.303  40.660  -0.000   0.000  26.198
 Approx polarizability:  98.274   4.357  87.235  -0.000   0.000  39.537

                      1                      2                      3
                     A"                     A'                     A"
 Frequencies --    301.2557               327.0372               445.0311
 Red. masses --      2.7750                 8.2598                 2.9558
 Frc consts  --      0.1484                 0.5205                 0.3449
 IR Inten    --     11.9708                22.5703                 0.0015

                      4                      5                      6
                     A'                     A"                     A'
 Frequencies --    658.8505               730.9160               805.6815
 Red. masses --      5.9510                 1.2934                 4.9734
 Frc consts  --      1.5220                 0.4071                 1.9021
 IR Inten    --      6.4239                59.4327                 1.4573

                      7                      8                      9
                     A"                     A'                     A'
 Frequencies --    868.7293               927.2316               968.9154
 Red. masses --      1.7340                 4.9821                 3.4760
 Frc consts  --      0.7710                 2.5237                 1.9227
 IR Inten    --      1.6553                 4.5860                32.7924

                     10                     11                     12
                     A'                     A"                     A'
 Frequencies --   1013.3767              1054.5172              1143.9454
 Red. masses --      1.6633                 1.1470                 1.4860
 Frc consts  --      1.0064                 0.7515                 1.1457
 IR Inten    --     31.4064                 0.0015                30.8529

                     13                     14                     15
                     A'                     A'                     A'
 Frequencies --   1246.5709              1326.8651              1632.0339
 Red. masses --      3.5213                 1.2300                 7.3988
 Frc consts  --      3.2240                 1.2759                11.6109
 IR Inten    --     57.2268                42.1330                19.5022

                     16                     17                     18
                     A'                     A"                     A'
 Frequencies --   2898.4874              2941.4377              3057.7660
 Red. masses --      1.0532                 1.1060                 1.1136
 Frc consts  --      5.2132                 5.6382                 6.1346
 IR Inten    --    384.1772               171.9792               367.6402

 - Thermochemistry -
 -------------------
 Temperature   298.150 Kelvin.  Pressure   1.00000 Atm.
 Atom     1 has atomic number  6 and mass  12.00000

 Molecular mass:    63.02348 amu.
 Principal axes and moments of inertia in atomic units:
                           1         2         3
     Eigenvalues --   135.12116 242.12354 365.27087
           X            0.97892   0.20422   0.00000
           Y           -0.20422   0.97892   0.00000
           Z            0.00000  -0.00000   1.00000
 This molecule is an asymmetric top.
 Rotational symmetry number  1.
 Rotational temperatures (Kelvin)      0.64101     0.35773     0.23712
 Rotational constants (GHZ):          13.35647     7.45380     4.94083
 Zero-point vibrational energy     133674.6 (Joules/Mol)
                                   31.94900 (Kcal/Mol)
 Warning -- explicit consideration of   3 degrees of freedom as
           vibrations may cause significant error
 Vibrational temperatures:    433.44   470.53   640.30   947.94  1051.62
          (Kelvin)           1159.19  1249.91  1334.08  1394.05  1458.02
                             1517.21  1645.88  1793.54  1909.06  2348.13
                             4170.27  4232.07  4399.44

 Zero-point correction=                           0.050914 (Hartree/Particle)
 Thermal correction to Energy=                    0.055392
 Thermal correction to Enthalpy=                  0.056336
 Thermal correction to Gibbs Free Energy=         0.023034
 Sum of electronic and zero-point Energies=           -191.130400
 Sum of electronic and thermal Energies=              -191.125922
 Sum of electronic and thermal Enthalpies=            -191.124978
 Sum of electronic and thermal Free Energies=         -191.158280

                     E (Thermal)             CV                S
                      KCal/Mol        Cal/Mol-Kelvin    Cal/Mol-Kelvin
 Total                   34.759             15.657             70.091
 Electronic               0.000              0.000              2.755
 Translational            0.889              2.981             38.342
 Rotational               0.889              2.981             23.995
 Vibrational             32.982              9.696              4.999
 Vibration     1          0.693              1.671              1.410
 Vibration     2          0.711              1.621              1.275
 Vibration     3          0.804              1.372              0.811

 Optimization completed.
    -- Stationary point found.
 Normal termination of Gaussian 09 at Thu Jan 31 06:02:16 2019.
