 Gaussian 09, Revision E.01,
 Gaussian 09:  EM64L-G09RevE.01 30-Nov-2015

 ---------------------------------------------
 #p b3lyp/6-311++G(3df,2p) freq symmetry=Loose
 ---------------------------------------------

 ---------
 b3lyp opt
 ---------
 Symbolic Z-matrix:
 Charge =  3 Multiplicity = 3

                         Standard orientation:
 ---------------------------------------------------------------------
 Center     Atomic      Atomic             Coordinates (Angstroms)
 Number     Number       Type             X           Y           Z
 ---------------------------------------------------------------------
      1          6           0       -1.343891   -2.064677   -0.000000
      2          1           0       -1.649401   -2.568145    0.956939
      3          1           0       -1.649401   -2.568145   -0.956939
      4          6           0       -0.639755   -0.899047   -0.000000
      5          6           0        0.000000    0.194709    0.000000
      6          6           0        0.626182    1.411592    0.000000
      7          1           0        0.014977    2.399808    0.000000
      8          6           0        1.904768    1.813503    0.000000
 ---------------------------------------------------------------------

 SCF Done:  E(UB3LYP) =  -190.440711830     A.U. after   19 cycles

 The electronic state is 3-A".
 Alpha  occ. eigenvalues --  -11.11239 -10.98807 -10.97208 -10.96369 -10.94964
 Alpha  occ. eigenvalues --   -1.57260  -1.51613  -1.42514  -1.34038  -1.19294
 Alpha  occ. eigenvalues --   -1.16709  -1.12962  -1.12423  -1.07832  -1.02898
 Alpha  occ. eigenvalues --   -0.99378
 Alpha virt. eigenvalues --   -0.85250  -0.82012  -0.77558  -0.62134  -0.61154
 Alpha virt. eigenvalues --   -0.50726  -0.49619  -0.46359  -0.42963  -0.41232
 Alpha virt. eigenvalues --   -0.40955  -0.39853  -0.38378  -0.37087  -0.36492

  Beta  occ. eigenvalues --  -11.08072 -10.98315 -10.97158 -10.95931 -10.94945
  Beta  occ. eigenvalues --   -1.55198  -1.49352  -1.41022  -1.32200  -1.18394
  Beta  occ. eigenvalues --   -1.16147  -1.10501  -1.04145  -1.02550
  Beta virt. eigenvalues --   -0.89542  -0.88020  -0.81488  -0.80277  -0.71749
  Beta virt. eigenvalues --   -0.61520  -0.57649  -0.49956  -0.48999  -0.45966
  Beta virt. eigenvalues --   -0.42534  -0.40943  -0.40553  -0.39597  -0.38026

 Mulliken charges and spin densities:
               1          2
     1  C   -0.109498   0.024494
     2  H    0.369103   0.027149
     3  H    0.369103   0.027149
     4  C    0.910146   0.207337
     5  C    0.199517   0.365020
     6  C    0.384767  -0.133920
     7  H    0.338951  -0.007899
     8  C    0.537912   1.490670
 Sum of Mulliken charges =   3.00000   2.00000

 Dipole moment (field-independent basis, Debye):
    X=              0.5254    Y=              0.5995    Z=              0.0000  Tot=              0.7972
 Quadrupole moment (field-independent basis, Debye-Ang):
   XX=              7.3073   YY=             33.0183   ZZ=            -19.7818
   XY=             34.3495   XZ=             -0.0000   YZ=             -0.0000

  Exact polarizability:  56.319  39.342  82.336   0.000   0.000  24.425
 Approx polarizability: 111.009  83.217 153.562   0.000  -0.000  33.585

                      1                      2                      3
                     A'                     A"                     A'
 Frequencies --    165.0920               192.1921               308.8654
 Red. masses --      5.1639                 2.7136                 6.4890
 Frc consts  --      0.0829                 0.0591                 0.3647
 IR Inten    --     23.9134                34.8418                 3.8129

                      4                      5                      6
                     A"                     A"                     A'
 Frequencies --    379.8006               435.4195               514.0439
 Red. masses --      1.5031                 2.1028                 5.2927
 Frc consts  --      0.1277                 0.2349                 0.8240
 IR Inten    --      0.2583                 0.7911                 4.3410

                      7                      8                      9
                     A"                     A'                     A"
 Frequencies --    679.8966               743.2426               866.1554
 Red. masses --      1.8067                 6.4239                 1.6942
 Frc consts  --      0.4921                 2.0908                 0.7489
 IR Inten    --     40.2116                11.0041                 6.7373

                     10                     11                     12
                     A'                     A'                     A'
 Frequencies --    937.8716              1074.3518              1213.4970
 Red. masses --      1.3471                 1.3752                 3.7408
 Frc consts  --      0.6981                 0.9352                 3.2456
 IR Inten    --     17.0470                22.2553               260.1602

                     13                     14                     15
                     A'                     A'                     A'
 Frequencies --   1261.0083              1407.8331              1955.0527
 Red. masses --      1.2247                 7.3912                11.5823
 Frc consts  --      1.1474                 8.6312                26.0832
 IR Inten    --     88.4610                31.3331                11.7864

                     16                     17                     18
                     A'                     A'                     A"
 Frequencies --   2447.7559              2744.8367              2826.3063
 Red. masses --      1.0743                 1.0451                 1.1154
 Frc consts  --      3.7925                 4.6390                 5.2495
 IR Inten    --    778.2203              1061.3786               370.0014

 - Thermochemistry -
 -------------------
 Temperature   298.150 Kelvin.  Pressure   1.00000 Atm.
 Atom     1 has atomic number  6 and mass  12.00000

 Molecular mass:    63.02348 amu.
 Principal axes and moments of inertia in atomic units:
                           1         2         3
     Eigenvalues --    29.17043 783.24928 799.23679
           X            0.59126   0.80648   0.00000
           Y            0.80648  -0.59126   0.00000
           Z            0.00000   0.00000   1.00000
 This molecule is an asymmetric top.
 Rotational symmetry number  1.
 Rotational temperatures (Kelvin)      2.96923     0.11058     0.10837
 Rotational constants (GHZ):          61.86887     2.30417     2.25808
 Zero-point vibrational energy     120543.0 (Joules/Mol)
                                   28.81048 (Kcal/Mol)
 Warning -- explicit consideration of   6 degrees of freedom as
           vibrations may cause significant error
 Vibrational temperatures:    237.53   276.52   444.39   546.45   626.47
          (Kelvin)            739.59   978.22  1069.36  1246.20  1349.39
                             1545.75  1745.95  1814.31  2025.56  2812.88
                             3521.77  3949.20  4066.42

 Zero-point correction=                           0.045912 (Hartree/Particle)
 Thermal correction to Energy=                    0.051555
 Thermal correction to Enthalpy=                  0.052499
 Thermal correction to Gibbs Free Energy=         0.017082
 Sum of electronic and zero-point Energies=           -190.394799
 Sum of electronic and thermal Energies=              -190.389157
 Sum of electronic and thermal Enthalpies=            -190.388213
 Sum of electronic and thermal Free Energies=         -190.423630

                     E (Thermal)             CV                S
                      KCal/Mol        Cal/Mol-Kelvin    Cal/Mol-Kelvin
 Total                   32.351             18.882             74.541
 Electronic               0.000              0.000              2.183
 Translational            0.889              2.981             38.342
 Rotational               0.889              2.981             24.416
 Vibrational             30.574             12.921              9.600
 Vibration     1          0.623              1.885              2.491
 Vibration     2          0.634              1.851              2.207
 Vibration     3          0.698              1.657              1.368
 Vibration     4          0.750              1.513              1.040
 Vibration     5          0.796              1.393              0.841
 Vibration     6          0.869              1.219              0.624

 Optimization completed.
    -- Stationary point found.
 Normal termination of Gaussian 09 at Tue Jul 19 16:55:33 2016.
