 Gaussian 09, Revision E.01,
 Gaussian 09:  EM64L-G09RevE.01 30-Nov-2015

 ---------------------------------------------
 #p b3lyp/6-311++G(3df,2p) freq symmetry=Loose
 ---------------------------------------------

 ---------
 b3lyp opt
 ---------
 Symbolic Z-matrix:
 Charge =  2 Multiplicity = 4

                         Standard orientation:
 ---------------------------------------------------------------------
 Center     Atomic      Atomic             Coordinates (Angstroms)
 Number     Number       Type             X           Y           Z
 ---------------------------------------------------------------------
      1          1           0        0.469546    1.868709   -0.429801
      2          6           0        0.487581    0.862344    0.005733
      3          6           0       -0.686971   -0.072104    0.315170
      4          1           0       -1.019975   -0.187207    1.386489
      5          6           0        0.410850   -0.933851   -0.212399
      6          6           0       -2.038573    0.009381   -0.276751
      7          6           0        1.489496   -0.120465    0.015211
      8          1           0        2.576132   -0.153330   -0.038475
 ---------------------------------------------------------------------

 SCF Done:  E(UB3LYP) =  -191.131142072     A.U. after   21 cycles

 The electronic state is 4-A.
 Alpha  occ. eigenvalues --  -10.85029 -10.76878 -10.75951 -10.74654 -10.71000
 Alpha  occ. eigenvalues --   -1.44705  -1.28202  -1.11706  -1.10519  -1.00974
 Alpha  occ. eigenvalues --   -0.95737  -0.92779  -0.91821  -0.89049  -0.80871
 Alpha  occ. eigenvalues --   -0.77522  -0.74108
 Alpha virt. eigenvalues --   -0.63375  -0.54619  -0.49264  -0.33944  -0.32677
 Alpha virt. eigenvalues --   -0.30501  -0.29402  -0.27655  -0.26014  -0.25296
 Alpha virt. eigenvalues --   -0.24421  -0.23889  -0.23550  -0.20255  -0.20115

  Beta  occ. eigenvalues --  -10.81852 -10.75608 -10.75113 -10.74181 -10.70881
  Beta  occ. eigenvalues --   -1.43011  -1.24473  -1.09274  -1.07307  -0.98595
  Beta  occ. eigenvalues --   -0.92568  -0.90820  -0.89833  -0.80702
  Beta virt. eigenvalues --   -0.68157  -0.60346  -0.58945  -0.57173  -0.50583
  Beta virt. eigenvalues --   -0.47448  -0.32515  -0.31146  -0.29441  -0.28822
  Beta virt. eigenvalues --   -0.26979  -0.24768  -0.24270  -0.23508  -0.23136

 Mulliken charges and spin densities:
               1          2
     1  H    0.307273   0.031633
     2  C   -0.033459   0.275015
     3  C    0.464992  -0.034869
     4  H    0.309222   0.009639
     5  C    0.124436   1.019348
     6  C    0.052224   1.725062
     7  C    0.398367  -0.036429
     8  H    0.376945   0.010601
 Sum of Mulliken charges =   2.00000   3.00000

 Dipole moment (field-independent basis, Debye):
    X=             -1.4298    Y=              0.9008    Z=              0.2859  Tot=              1.7140
 Quadrupole moment (field-independent basis, Debye-Ang):
   XX=              1.2266   YY=            -18.0448   ZZ=            -20.6460
   XY=              0.3656   XZ=             -0.6722   YZ=             -1.2687

  Exact polarizability:  72.567  -0.658  38.182   4.153   0.055  29.226
 Approx polarizability: 128.623  -1.807  73.215  13.395   2.205  48.724

                      1                      2                      3
                      A                      A                      A
 Frequencies --    251.3960               353.1143               480.6281
 Red. masses --      5.1750                 5.1080                 3.7141
 Frc consts  --      0.1927                 0.3753                 0.5055
 IR Inten    --      3.5325                 0.9652                 3.8918

                      4                      5                      6
                      A                      A                      A
 Frequencies --    626.2726               691.6093               801.6772
 Red. masses --      4.1589                 2.7703                 2.3088
 Frc consts  --      0.9611                 0.7807                 0.8743
 IR Inten    --     18.0682                28.0634                 9.2393

                      7                      8                      9
                      A                      A                      A
 Frequencies --    838.4705               912.0587               953.6480
 Red. masses --      1.8940                 1.5269                 1.6299
 Frc consts  --      0.7845                 0.7484                 0.8733
 IR Inten    --     34.7257                42.7858                19.3685

                     10                     11                     12
                      A                      A                      A
 Frequencies --   1020.7148              1091.5613              1112.5110
 Red. masses --      1.3501                 1.2329                 2.3988
 Frc consts  --      0.8288                 0.8655                 1.7492
 IR Inten    --     10.2968                17.1583                21.7804

                     13                     14                     15
                      A                      A                      A
 Frequencies --   1150.3856              1219.9318              1451.8212
 Red. masses --      1.8776                 3.5895                 5.8645
 Frc consts  --      1.4640                 3.1474                 7.2829
 IR Inten    --     41.5496                54.3828               108.6027

                     16                     17                     18
                      A                      A                      A
 Frequencies --   2749.6901              3067.1606              3166.1903
 Red. masses --      1.0799                 1.0969                 1.1149
 Frc consts  --      4.8108                 6.0796                 6.5850
 IR Inten    --    236.8997               156.2660               250.6693

 - Thermochemistry -
 -------------------
 Temperature   298.150 Kelvin.  Pressure   1.00000 Atm.
 Atom     1 has atomic number  1 and mass   1.00783

 Molecular mass:    63.02348 amu.
 Principal axes and moments of inertia in atomic units:
                           1         2         3
     Eigenvalues --    99.62488 355.83823 422.05226
           X            0.99978   0.00866  -0.01895
           Y           -0.00971   0.99837  -0.05616
           Z            0.01843   0.05633   0.99824
 This molecule is an asymmetric top.
 Rotational symmetry number  1.
 Rotational temperatures (Kelvin)      0.86940     0.24341     0.20522
 Rotational constants (GHZ):          18.11537     5.07180     4.27611
 Zero-point vibrational energy     131223.4 (Joules/Mol)
                                   31.36315 (Kcal/Mol)
 Warning -- explicit consideration of   3 degrees of freedom as
           vibrations may cause significant error
 Vibrational temperatures:    361.70   508.05   691.52   901.07   995.07
          (Kelvin)           1153.43  1206.37  1312.25  1372.08  1468.58
                             1570.51  1600.65  1655.15  1755.21  2088.84
                             3956.19  4412.95  4555.44

 Zero-point correction=                           0.049980 (Hartree/Particle)
 Thermal correction to Energy=                    0.054523
 Thermal correction to Enthalpy=                  0.055467
 Thermal correction to Gibbs Free Energy=         0.021941
 Sum of electronic and zero-point Energies=           -191.081162
 Sum of electronic and thermal Energies=              -191.076619
 Sum of electronic and thermal Enthalpies=            -191.075675
 Sum of electronic and thermal Free Energies=         -191.109201

                     E (Thermal)             CV                S
                      KCal/Mol        Cal/Mol-Kelvin    Cal/Mol-Kelvin
 Total                   34.214             15.991             70.562
 Electronic               0.000              0.000              2.755
 Translational            0.889              2.981             38.342
 Rotational               0.889              2.981             24.218
 Vibrational             32.436             10.029              5.247
 Vibration     1          0.663              1.760              1.721
 Vibration     2          0.729              1.569              1.152
 Vibration     3          0.837              1.293              0.708

 Optimization completed.
    -- Stationary point found.
 Normal termination of Gaussian 09 at Sun Jun 19 13:21:39 2016.
