 Gaussian 09, Revision E.01,
 Gaussian 09:  EM64L-G09RevE.01 30-Nov-2015

 ---------------------------------------------
 #p b3lyp/6-311++G(3df,2p) freq symmetry=Loose
 ---------------------------------------------

 ---------
 b3lyp opt
 ---------
 Symbolic Z-matrix:
 Charge =  3 Multiplicity = 1

                         Standard orientation:
 ---------------------------------------------------------------------
 Center     Atomic      Atomic             Coordinates (Angstroms)
 Number     Number       Type             X           Y           Z
 ---------------------------------------------------------------------
      1          6           0        0.000000    0.000000   -1.062406
      2          6           0        0.000000    0.000000    0.288189
      3          6           0        0.000000    0.000000    1.529331
      4          6           0        0.000000    0.000000    3.039438
      5          6           0        0.000000    0.000000   -2.376545
      6          1           0       -0.000000    1.073872   -2.836016
      7          1           0        0.930000   -0.536936   -2.836016
      8          1           0       -0.930000   -0.536936   -2.836016
 ---------------------------------------------------------------------

 SCF Done:  E(RB3LYP) =  -190.416522276     A.U. after   13 cycles

 The electronic state is 1-A1.
 Alpha  occ. eigenvalues --  -11.09342 -11.05885 -10.97785 -10.96846 -10.88685
 Alpha  occ. eigenvalues --   -1.55860  -1.50065  -1.42716  -1.35947  -1.18104
 Alpha  occ. eigenvalues --   -1.11905  -1.11905  -1.04026  -1.04026  -1.02004
 Alpha virt. eigenvalues --   -0.88547  -0.88547  -0.77749  -0.77749  -0.58926
 Alpha virt. eigenvalues --   -0.58926  -0.55439  -0.51023  -0.49219  -0.44535
 Alpha virt. eigenvalues --   -0.44535  -0.42402  -0.40526  -0.40526  -0.39019

 Mulliken charges:
               1
     1  C    0.347094
     2  C   -0.013305
     3  C    1.120666
     4  C    0.470186
     5  C   -0.042960
     6  H    0.372773
     7  H    0.372773
     8  H    0.372773
 Sum of Mulliken charges =   3.00000

 Dipole moment (field-independent basis, Debye):
    X=             -0.0000    Y=             -0.0000    Z=             -2.2683  Tot=              2.2683
 Quadrupole moment (field-independent basis, Debye-Ang):
   XX=            -18.9752   YY=            -18.9752   ZZ=             57.8778
   XY=             -0.0000   XZ=              0.0000   YZ=              0.0000

  Exact polarizability:  27.148   0.000  27.150   0.000  -0.000 125.714
 Approx polarizability:  41.415  -0.000  41.415  -0.000  -0.000 348.743

                      1                      2                      3
                      E                      E                      E
 Frequencies --    128.1908               128.2110               272.9823
 Red. masses --      5.6965                 5.6946                 3.2660
 Frc consts  --      0.0552                 0.0552                 0.1434
 IR Inten    --      9.5165                 9.5193                15.7045

                      4                      5                      6
                      E                      E                      E
 Frequencies --    273.0212               426.9306               426.9360
 Red. masses --      3.2667                 2.2888                 2.2886
 Frc consts  --      0.1435                 0.2458                 0.2458
 IR Inten    --     15.7090                10.6508                10.6542

                      7                      8                      9
                     A1                      E                      E
 Frequencies --    632.1995               719.0730               719.1101
 Red. masses --      6.6226                 2.8197                 2.8199
 Frc consts  --      1.5595                 0.8590                 0.8591
 IR Inten    --    209.8789                95.2240                95.1988

                     10                     11                     12
                      E                      E                     A1
 Frequencies --    858.0397               858.0470               961.3071
 Red. masses --      1.1387                 1.1387                 2.9131
 Frc consts  --      0.4939                 0.4940                 1.5861
 IR Inten    --     58.2722                58.2725              1465.5763

                     13                     14                     15
                     A1                     A1                     A1
 Frequencies --   1125.1583              1699.0768              2153.8490
 Red. masses --      1.5449                11.1066                11.8991
 Frc consts  --      1.1524                18.8912                32.5232
 IR Inten    --      8.7786              1197.0147                42.7203

                     16                     17                     18
                      E                      E                     A1
 Frequencies --   2344.7892              2344.7918              2423.7488
 Red. masses --      1.0791                 1.0791                 1.0432
 Frc consts  --      3.4955                 3.4955                 3.6107
 IR Inten    --    540.2689               540.2518              2634.2982

 - Thermochemistry -
 -------------------
 Temperature   298.150 Kelvin.  Pressure   1.00000 Atm.
 Atom     1 has atomic number  6 and mass  12.00000

 Molecular mass:    63.02348 amu.
 Principal axes and moments of inertia in atomic units:
                           1         2         3
     Eigenvalues --    12.45114 879.09472 879.09472
           X            0.00000   0.94270  -0.33364
           Y            0.00000   0.33364   0.94270
           Z            1.00000   0.00000  -0.00000
 This molecule is a prolate symmetric top.
 Rotational symmetry number  3.
 Rotational temperatures (Kelvin)      6.95629     0.09853     0.09853
 Rotational constants (GHZ):         144.94584     2.05295     2.05295
 Zero-point vibrational energy     110627.4 (Joules/Mol)
                                   26.44059 (Kcal/Mol)
 Warning -- explicit consideration of   6 degrees of freedom as
           vibrations may cause significant error
 Vibrational temperatures:    184.44   184.47   392.76   392.82   614.26
          (Kelvin)            614.26   909.59  1034.58  1034.64  1234.53
                             1234.54  1383.10  1618.85  2444.59  3098.90
                             3373.62  3373.63  3487.23

 Zero-point correction=                           0.042136 (Hartree/Particle)
 Thermal correction to Energy=                    0.048359
 Thermal correction to Enthalpy=                  0.049303
 Thermal correction to Gibbs Free Energy=         0.014977
 Sum of electronic and zero-point Energies=           -190.374387
 Sum of electronic and thermal Energies=              -190.368164
 Sum of electronic and thermal Enthalpies=            -190.367219
 Sum of electronic and thermal Free Energies=         -190.401545

                     E (Thermal)             CV                S
                      KCal/Mol        Cal/Mol-Kelvin    Cal/Mol-Kelvin
 Total                   30.345             20.484             72.244
 Electronic               0.000              0.000              0.000
 Translational            0.889              2.981             38.342
 Rotational               0.889              2.981             21.596
 Vibrational             28.568             14.522             12.305
 Vibration     1          0.611              1.925              2.973
 Vibration     2          0.611              1.925              2.973
 Vibration     3          0.676              1.723              1.577
 Vibration     4          0.676              1.723              1.577
 Vibration     5          0.789              1.412              0.869
 Vibration     6          0.789              1.412              0.869

 Optimization completed.
    -- Stationary point found.
 Normal termination of Gaussian 09 at Sun Jun 19 13:39:08 2016.
