 Gaussian 09, Revision E.01,
 Gaussian 09:  EM64L-G09RevE.01 30-Nov-2015

 ---------------------------------------------
 #p b3lyp/6-311++G(3df,2p) freq symmetry=Loose
 ---------------------------------------------

 ---------
 b3lyp opt
 ---------
 Symbolic Z-matrix:
 Charge =  2 Multiplicity = 4

                         Standard orientation:
 ---------------------------------------------------------------------
 Center     Atomic      Atomic             Coordinates (Angstroms)
 Number     Number       Type             X           Y           Z
 ---------------------------------------------------------------------
      1          6           0       -2.074864   -0.515585    0.019262
      2          1           0       -1.903273   -1.454407   -0.514716
      3          1           0       -2.951479   -0.438622    0.673395
      4          6           0       -1.153628    0.573059   -0.057546
      5          1           0       -1.497724    1.616823   -0.034669
      6          6           0        0.186911    0.269917   -0.040748
      7          6           0        1.419041   -0.017230    0.012654
      8          6           0        2.681286   -0.264127    0.045710
 ---------------------------------------------------------------------

 SCF Done:  E(UB3LYP) =  -191.211287668     A.U. after   22 cycles

 The electronic state is 4-A.
 Alpha  occ. eigenvalues --  -10.78938 -10.72561 -10.72098 -10.72033 -10.70393
 Alpha  occ. eigenvalues --   -1.32334  -1.27940  -1.18594  -1.10383  -0.98395
 Alpha  occ. eigenvalues --   -0.93093  -0.88913  -0.87759  -0.84615  -0.82267
 Alpha  occ. eigenvalues --   -0.77233  -0.69113
 Alpha virt. eigenvalues --   -0.61325  -0.52387  -0.38532  -0.34521  -0.32263
 Alpha virt. eigenvalues --   -0.29516  -0.27772  -0.26653  -0.24960  -0.23865
 Alpha virt. eigenvalues --   -0.22482  -0.22106  -0.20639  -0.20324  -0.18904

  Beta  occ. eigenvalues --  -10.75103 -10.72014 -10.71552 -10.71469 -10.70225
  Beta  occ. eigenvalues --   -1.30178  -1.24594  -1.14854  -1.08482  -0.96911
  Beta  occ. eigenvalues --   -0.91808  -0.87766  -0.81037  -0.78824
  Beta virt. eigenvalues --   -0.66170  -0.62219  -0.56277  -0.55609  -0.46360
  Beta virt. eigenvalues --   -0.34438  -0.32015  -0.30162  -0.28693  -0.27121
  Beta virt. eigenvalues --   -0.25545  -0.24458  -0.23032  -0.22227  -0.21468

 Mulliken charges and spin densities:
               1          2
     1  C   -0.168474   0.345221
     2  H    0.294034   0.005545
     3  H    0.273442   0.010221
     4  C    0.114808   0.335082
     5  H    0.284088   0.035963
     6  C    0.143481   0.322058
     7  C    0.687158   0.164290
     8  C    0.371463   1.781621
 Sum of Mulliken charges =   2.00000   3.00000

 Dipole moment (field-independent basis, Debye):
    X=             -1.2249    Y=             -0.6577    Z=              0.1424  Tot=              1.3976
 Quadrupole moment (field-independent basis, Debye-Ang):
   XX=             22.3042   YY=            -18.1646   ZZ=            -23.1501
   XY=             -0.3028   XZ=             -0.5549   YZ=             -0.1399

  Exact polarizability: 131.534   6.296  36.078  -0.660   0.091  25.478
 Approx polarizability: 253.698  -6.280  51.049   1.721  -0.821  36.031

                      1                      2                      3
                      A                      A                      A
 Frequencies --    112.0216               177.7063               265.2380
 Red. masses --      4.0018                 2.6710                 2.9378
 Frc consts  --      0.0296                 0.0497                 0.1218
 IR Inten    --      4.4183                10.6907                 6.4447

                      4                      5                      6
                      A                      A                      A
 Frequencies --    395.3807               465.9347               533.3161
 Red. masses --      4.4115                 2.2634                 6.9501
 Frc consts  --      0.4063                 0.2895                 1.1647
 IR Inten    --     17.1901                25.0261                 0.1590

                      7                      8                      9
                      A                      A                      A
 Frequencies --    770.3620               848.5385              1013.6464
 Red. masses --      1.2876                 3.3302                 1.6100
 Frc consts  --      0.4502                 1.4128                 0.9746
 IR Inten    --     29.3726                 9.2914                 1.4448

                     10                     11                     12
                      A                      A                      A
 Frequencies --   1044.4197              1157.4454              1307.7949
 Red. masses --      1.5599                 2.3285                 1.5090
 Frc consts  --      1.0026                 1.8379                 1.5206
 IR Inten    --      9.3109                58.4879               121.5284

                     13                     14                     15
                      A                      A                      A
 Frequencies --   1419.7567              1459.1472              1928.8260
 Red. masses --      1.1688                 9.2151                11.6760
 Frc consts  --      1.3881                11.5597                25.5936
 IR Inten    --     29.6946                74.4307                17.3245

                     16                     17                     18
                      A                      A                      A
 Frequencies --   3015.0586              3018.1589              3139.1987
 Red. masses --      1.0864                 1.0519                 1.1204
 Frc consts  --      5.8185                 5.6456                 6.5052
 IR Inten    --    133.6033               329.2108                93.2777

 - Thermochemistry -
 -------------------
 Temperature   298.150 Kelvin.  Pressure   1.00000 Atm.
 Atom     1 has atomic number  6 and mass  12.00000

 Molecular mass:    63.02348 amu.
 Principal axes and moments of inertia in atomic units:
                           1         2         3
     Eigenvalues --    52.14009 690.52450 736.95191
           X            0.99994   0.00942  -0.00475
           Y           -0.00927   0.99952   0.02964
           Z            0.00503  -0.02960   0.99955
 This molecule is an asymmetric top.
 Rotational symmetry number  1.
 Rotational temperatures (Kelvin)      1.66117     0.12543     0.11753
 Rotational constants (GHZ):          34.61331     2.61358     2.44893
 Zero-point vibrational energy     132019.6 (Joules/Mol)
                                   31.55344 (Kcal/Mol)
 Warning -- explicit consideration of   6 degrees of freedom as
           vibrations may cause significant error
 Vibrational temperatures:    161.17   255.68   381.62   568.86   670.38
          (Kelvin)            767.32  1108.38  1220.86  1458.41  1502.69
                             1665.30  1881.62  2042.71  2099.38  2775.15
                             4337.99  4342.45  4516.60

 Zero-point correction=                           0.050284 (Hartree/Particle)
 Thermal correction to Energy=                    0.055918
 Thermal correction to Enthalpy=                  0.056862
 Thermal correction to Gibbs Free Energy=         0.020712
 Sum of electronic and zero-point Energies=           -191.161004
 Sum of electronic and thermal Energies=              -191.155370
 Sum of electronic and thermal Enthalpies=            -191.154425
 Sum of electronic and thermal Free Energies=         -191.190576

                     E (Thermal)             CV                S
                      KCal/Mol        Cal/Mol-Kelvin    Cal/Mol-Kelvin
 Total                   35.089             18.038             76.085
 Electronic               0.000              0.000              2.755
 Translational            0.889              2.981             38.342
 Rotational               0.889              2.981             24.787
 Vibrational             33.312             12.077             10.201
 Vibration     1          0.607              1.940              3.234
 Vibration     2          0.628              1.870              2.352
 Vibration     3          0.671              1.737              1.627
 Vibration     4          0.762              1.480              0.980
 Vibration     5          0.823              1.326              0.749
 Vibration     6          0.888              1.176              0.580

 Normal termination of Gaussian 09 at Sun Jun 19 13:06:10 2016.
