 Gaussian 09, Revision E.01,
 Gaussian 09:  EM64L-G09RevE.01 30-Nov-2015

 ---------------------------------------------
 #p b3lyp/6-311++G(3df,2p) freq symmetry=Loose
 ---------------------------------------------

 ---------
 b3lyp opt
 ---------
 Symbolic Z-matrix:
 Charge =  0 Multiplicity = 2

                         Standard orientation:
 ---------------------------------------------------------------------
 Center     Atomic      Atomic             Coordinates (Angstroms)
 Number     Number       Type             X           Y           Z
 ---------------------------------------------------------------------
      1          6           0        0.953558   -0.713402    0.000297
      2          1           0        1.386358   -1.168381    0.891151
      3          1           0        1.388975   -1.168145   -0.889343
      4          6           0       -0.565192   -0.828924   -0.000987
      5          6           0       -1.558967   -0.014156    0.000508
      6          6           0        0.882846    0.797982    0.000129
      7          1           0        1.654965    1.546954   -0.000870
      8          6           0       -0.450627    0.890096   -0.000103
 ---------------------------------------------------------------------

 SCF Done:  E(UB3LYP) =  -192.120577036     A.U. after   17 cycles

 The electronic state is 2-A.
 Alpha  occ. eigenvalues --  -10.25331 -10.24091 -10.23904 -10.21710 -10.19836
 Alpha  occ. eigenvalues --   -0.94810  -0.78355  -0.70254  -0.54760  -0.53498
 Alpha  occ. eigenvalues --   -0.48824  -0.46512  -0.42559  -0.36534  -0.34646
 Alpha  occ. eigenvalues --   -0.24848  -0.23094
 Alpha virt. eigenvalues --   -0.06151  -0.03933  -0.01064   0.01627   0.01886
 Alpha virt. eigenvalues --    0.04033   0.04127   0.05922   0.06172   0.06517
 Alpha virt. eigenvalues --    0.08292   0.09101   0.10520   0.11272   0.11758

  Beta  occ. eigenvalues --  -10.24524 -10.23785 -10.23606 -10.20945 -10.19837
  Beta  occ. eigenvalues --   -0.94367  -0.77946  -0.69458  -0.54110  -0.51720
  Beta  occ. eigenvalues --   -0.48692  -0.44962  -0.42020  -0.35835  -0.30421
  Beta  occ. eigenvalues --   -0.24485
  Beta virt. eigenvalues --   -0.12445  -0.03694  -0.03091  -0.00938   0.01713
  Beta virt. eigenvalues --    0.02260   0.04342   0.05069   0.06071   0.06280
  Beta virt. eigenvalues --    0.07092   0.08386   0.09111   0.10672   0.11372

 Mulliken charges and spin densities:
               1          2
     1  C   -0.424386   0.037437
     2  H    0.162559  -0.000876
     3  H    0.162339  -0.000882
     4  C    0.037032   0.261023
     5  C   -0.229189   0.267730
     6  C   -0.056747  -0.059953
     7  H    0.206485   0.013452
     8  C    0.141907   0.482068
 Sum of Mulliken charges =  -0.00000   1.00000

 Dipole moment (field-independent basis, Debye):
    X=              3.1878    Y=             -0.7568    Z=             -0.0004  Tot=              3.2764
 Quadrupole moment (field-independent basis, Debye-Ang):
   XX=            -31.7239   YY=            -28.0946   ZZ=            -30.2902
   XY=             -0.7337   XZ=             -0.0006   YZ=             -0.0046

  Exact polarizability:  70.177   2.672  57.829  -0.005   0.007  38.232
 Approx polarizability: 120.689   1.148 109.783  -0.017   0.034  55.911

                      1                      2                      3
                      A                      A                      A
 Frequencies --    251.0232               381.7919               437.2558
 Red. masses --      3.0905                 8.6786                 3.3842
 Frc consts  --      0.1147                 0.7453                 0.3812
 IR Inten    --      0.0417                96.4180                 8.9567

                      4                      5                      6
                      A                      A                      A
 Frequencies --    582.4111               603.3573               829.3347
 Red. masses --     10.3972                 1.1680                 5.1395
 Frc consts  --      2.0779                 0.2505                 2.0827
 IR Inten    --     10.4513                46.3821                 7.4864

                      7                      8                      9
                      A                      A                      A
 Frequencies --    904.2341               934.2495               989.8838
 Red. masses --      1.9590                 2.6516                 4.6852
 Frc consts  --      0.9437                 1.3636                 2.7049
 IR Inten    --      2.3364                21.4067                 7.9239

                     10                     11                     12
                      A                      A                      A
 Frequencies --   1095.8987              1174.8270              1211.7737
 Red. masses --      1.0952                 1.5175                 1.4409
 Frc consts  --      0.7750                 1.2341                 1.2466
 IR Inten    --      0.0309                48.2402                 0.8137

                     13                     14                     15
                      A                      A                      A
 Frequencies --   1421.3375              1541.9271              1744.0205
 Red. masses --      1.1323                 6.4945                10.3368
 Frc consts  --      1.3478                 9.0975                18.5241
 IR Inten    --      2.6041                35.2178                70.2690

                     16                     17                     18
                      A                      A                      A
 Frequencies --   3057.7542              3105.2962              3242.4925
 Red. masses --      1.0558                 1.1055                 1.0960
 Frc consts  --      5.8164                 6.2810                 6.7893
 IR Inten    --      4.4560                 0.5382                 0.1289

 - Thermochemistry -
 -------------------
 Temperature   298.150 Kelvin.  Pressure   1.00000 Atm.
 Atom     1 has atomic number  6 and mass  12.00000

 Molecular mass:    63.02348 amu.
 Principal axes and moments of inertia in atomic units:
                           1         2         3
     Eigenvalues --   136.53315 227.30758 352.43117
           X            0.99959  -0.02879  -0.00002
           Y            0.02879   0.99959  -0.00010
           Z            0.00002   0.00010   1.00000
 This molecule is an asymmetric top.
 Rotational symmetry number  1.
 Rotational temperatures (Kelvin)      0.63438     0.38104     0.24576
 Rotational constants (GHZ):          13.21834     7.93964     5.12083
 Zero-point vibrational energy     140614.3 (Joules/Mol)
                                   33.60761 (Kcal/Mol)
 Warning -- explicit consideration of   5 degrees of freedom as
           vibrations may cause significant error
 Vibrational temperatures:    361.17   549.31   629.11   837.96   868.10
          (Kelvin)           1193.23  1300.99  1344.18  1424.22  1576.75
                             1690.31  1743.47  2044.99  2218.49  2509.25
                             4399.42  4467.82  4665.22

 Zero-point correction=                           0.053557 (Hartree/Particle)
 Thermal correction to Energy=                    0.058087
 Thermal correction to Enthalpy=                  0.059031
 Thermal correction to Gibbs Free Energy=         0.026312
 Sum of electronic and zero-point Energies=           -192.067020
 Sum of electronic and thermal Energies=              -192.062490
 Sum of electronic and thermal Enthalpies=            -192.061546
 Sum of electronic and thermal Free Energies=         -192.094265

                     E (Thermal)             CV                S
                      KCal/Mol        Cal/Mol-Kelvin    Cal/Mol-Kelvin
 Total                   36.450             15.553             68.862
 Electronic               0.000              0.000              1.377
 Translational            0.889              2.981             38.342
 Rotational               0.889              2.981             23.907
 Vibrational             34.673              9.592              5.236
 Vibration     1          0.663              1.761              1.723
 Vibration     2          0.751              1.509              1.032
 Vibration     3          0.798              1.389              0.835
 Vibration     4          0.939              1.069              0.481
 Vibration     5          0.962              1.025              0.444

 Normal termination of Gaussian 09 at Sun Jun 19 07:47:32 2016.
