 Gaussian 09, Revision E.01,
 Gaussian 09:  EM64L-G09RevE.01 30-Nov-2015

 ---------------------------------------------
 #p b3lyp/6-311++G(3df,2p) freq symmetry=Loose
 ---------------------------------------------

 ---------
 b3lyp opt
 ---------
 Symbolic Z-matrix:
 Charge =  0 Multiplicity = 2

                         Standard orientation:
 ---------------------------------------------------------------------
 Center     Atomic      Atomic             Coordinates (Angstroms)
 Number     Number       Type             X           Y           Z
 ---------------------------------------------------------------------
      1          6           0       -0.391712   -0.045912    0.006329
      2          6           0        0.916490   -0.006170   -0.004182
      3          6           0       -1.682126   -0.789529    0.087979
      4          6           0        2.221309    0.027341   -0.000365
      5          6           0       -1.641179    0.549030   -0.068982
      6          1           0        2.807381   -0.545151   -0.713790
      7          1           0        2.778183    0.625305    0.715354
      8          1           0       -2.122255    1.511282   -0.126239
 ---------------------------------------------------------------------

 SCF Done:  E(UB3LYP) =  -192.162341163     A.U. after   18 cycles

 The electronic state is 2-A.
 Alpha  occ. eigenvalues --  -10.24315 -10.22879 -10.22651 -10.21020 -10.20952
 Alpha  occ. eigenvalues --   -0.92966  -0.81216  -0.70070  -0.59314  -0.52239
 Alpha  occ. eigenvalues --   -0.48079  -0.46870  -0.40772  -0.37588  -0.31490
 Alpha  occ. eigenvalues --   -0.25915  -0.22677
 Alpha virt. eigenvalues --   -0.05209  -0.02437  -0.00914   0.00513   0.02051
 Alpha virt. eigenvalues --    0.03274   0.04292   0.04442   0.06497   0.08376
 Alpha virt. eigenvalues --    0.08727   0.09077   0.09585   0.10208   0.11381

  Beta  occ. eigenvalues --  -10.24181 -10.22624 -10.22053 -10.20788 -10.20726
  Beta  occ. eigenvalues --   -0.92166  -0.79737  -0.68973  -0.58732  -0.51360
  Beta  occ. eigenvalues --   -0.46859  -0.45740  -0.39338  -0.36740  -0.30062
  Beta  occ. eigenvalues --   -0.24399
  Beta virt. eigenvalues --   -0.14232  -0.03935  -0.01437  -0.00827   0.00587
  Beta virt. eigenvalues --    0.02235   0.04097   0.04389   0.04585   0.06689
  Beta virt. eigenvalues --    0.08621   0.08910   0.09632   0.09898   0.10303

 Mulliken charges and spin densities:
               1          2
     1  C   -0.129555   0.091136
     2  C    0.235716   0.325244
     3  C   -0.543126   0.205551
     4  C   -0.347823   0.137123
     5  C    0.180429   0.177578
     6  H    0.181242   0.030081
     7  H    0.179887   0.030377
     8  H    0.243230   0.002908
 Sum of Mulliken charges =  -0.00000   1.00000

 Dipole moment (field-independent basis, Debye):
    X=              1.9282    Y=              2.7085    Z=             -0.1738  Tot=              3.3293
 Quadrupole moment (field-independent basis, Debye-Ang):
   XX=            -26.7882   YY=            -31.1143   ZZ=            -29.6888
   XY=             -6.0203   XZ=              0.3794   YZ=              1.0708

  Exact polarizability: 119.464   6.239  49.538  -1.417  -1.182  38.355
 Approx polarizability: 206.242  12.165  75.261  -2.183  -1.733  55.845

                      1                      2                      3
                      A                      A                      A
 Frequencies --    158.5282               195.0990               408.5802
 Red. masses --      3.2681                 4.3836                 5.3031
 Frc consts  --      0.0484                 0.0983                 0.5216
 IR Inten    --      2.5214                 2.0750                 0.6646

                      4                      5                      6
                      A                      A                      A
 Frequencies --    495.0169               537.8589               655.7153
 Red. masses --      1.3783                 3.9982                 4.6601
 Frc consts  --      0.1990                 0.6815                 1.1805
 IR Inten    --      1.8478                 2.1271                14.7495

                      7                      8                      9
                      A                      A                      A
 Frequencies --    780.0149               866.2295               888.8259
 Red. masses --      1.4827                 1.3382                 5.0152
 Frc consts  --      0.5315                 0.5916                 2.3344
 IR Inten    --     24.5684                51.6000                37.0420

                     10                     11                     12
                      A                      A                      A
 Frequencies --    940.7452               982.2473              1034.9650
 Red. masses --      1.6733                 1.4829                 2.6985
 Frc consts  --      0.8725                 0.8430                 1.7030
 IR Inten    --     50.9726                 6.0155                28.9921

                     13                     14                     15
                      A                      A                      A
 Frequencies --   1419.3343              1580.0443              1841.9280
 Red. masses --      1.1751                 5.9805                 9.6097
 Frc consts  --      1.3947                 8.7969                19.2091
 IR Inten    --      0.5094                 6.7459                80.5293

                     16                     17                     18
                      A                      A                      A
 Frequencies --   3083.0769              3148.6600              3240.5978
 Red. masses --      1.0541                 1.1134                 1.1100
 Frc consts  --      5.9033                 6.5038                 6.8676
 IR Inten    --      0.8147                 0.2117                 3.2994

 - Thermochemistry -
 -------------------
 Temperature   298.150 Kelvin.  Pressure   1.00000 Atm.
 Atom     1 has atomic number  6 and mass  12.00000

 Molecular mass:    63.02348 amu.
 Principal axes and moments of inertia in atomic units:
                           1         2         3
     Eigenvalues --    54.36987 566.74219 612.79717
           X            0.99980  -0.02021   0.00064
           Y            0.02016   0.99859   0.04912
           Z           -0.00163  -0.04910   0.99879
 This molecule is an asymmetric top.
 Rotational symmetry number  1.
 Rotational temperatures (Kelvin)      1.59305     0.15283     0.14134
 Rotational constants (GHZ):          33.19378     3.18441     2.94509
 Zero-point vibrational energy     133129.2 (Joules/Mol)
                                   31.81865 (Kcal/Mol)
 Warning -- explicit consideration of   5 degrees of freedom as
           vibrations may cause significant error
 Vibrational temperatures:    228.09   280.70   587.86   712.22   773.86
          (Kelvin)            943.43  1122.27  1246.31  1278.82  1353.52
                             1413.23  1489.08  2042.10  2273.33  2650.12
                             4435.85  4530.21  4662.49

 Zero-point correction=                           0.050706 (Hartree/Particle)
 Thermal correction to Energy=                    0.055926
 Thermal correction to Enthalpy=                  0.056870
 Thermal correction to Gibbs Free Energy=         0.022514
 Sum of electronic and zero-point Energies=           -192.111635
 Sum of electronic and thermal Energies=              -192.106416
 Sum of electronic and thermal Enthalpies=            -192.105471
 Sum of electronic and thermal Free Energies=         -192.139827

                     E (Thermal)             CV                S
                      KCal/Mol        Cal/Mol-Kelvin    Cal/Mol-Kelvin
 Total                   35.094             17.606             72.308
 Electronic               0.000              0.000              1.377
 Translational            0.889              2.981             38.342
 Rotational               0.889              2.981             24.449
 Vibrational             33.316             11.644              8.139
 Vibration     1          0.621              1.893              2.567
 Vibration     2          0.636              1.847              2.179
 Vibration     3          0.773              1.452              0.932
 Vibration     4          0.851              1.261              0.671
 Vibration     5          0.893              1.166              0.570

 Optimization completed.
    -- Stationary point found.
 Normal termination of Gaussian 09 at Sun Jun 19 07:03:08 2016.
