 Gaussian 09, Revision E.01,
 Gaussian 09:  EM64L-G09RevE.01 30-Nov-2015

 ---------------------------------------------
 #p b3lyp/6-311++G(3df,2p) freq symmetry=Loose
 ---------------------------------------------

 ---------
 b3lyp opt
 ---------
 Symbolic Z-matrix:
 Charge =  3 Multiplicity = 1

                         Standard orientation:
 ---------------------------------------------------------------------
 Center     Atomic      Atomic             Coordinates (Angstroms)
 Number     Number       Type             X           Y           Z
 ---------------------------------------------------------------------
      1          6           0       -0.629102    0.061782    0.229956
      2          1           0       -0.723391    0.156152    1.385861
      3          6           0       -1.134876    1.412532   -0.203898
      4          6           0       -1.490619   -1.151539   -0.018829
      5          6           0        0.897776   -0.338234   -0.257191
      6          1           0        1.147281   -1.432873   -0.029490
      7          1           0        1.070013   -0.235725   -1.378546
      8          6           0        2.107837    0.267534    0.253658
 ---------------------------------------------------------------------

 SCF Done:  E(RB3LYP) =  -190.166177489     A.U. after   14 cycles

 The electronic state is 1-A.
 Alpha  occ. eigenvalues --  -11.12521 -11.12416 -11.06836 -10.98628 -10.94382
 Alpha  occ. eigenvalues --   -1.59335  -1.50012  -1.39946  -1.26477  -1.23182
 Alpha  occ. eigenvalues --   -1.15992  -1.13331  -1.06802  -1.03740  -1.00185
 Alpha virt. eigenvalues --   -0.88892  -0.87181  -0.85327  -0.84576  -0.80944
 Alpha virt. eigenvalues --   -0.79867  -0.56946  -0.54141  -0.53917  -0.51895
 Alpha virt. eigenvalues --   -0.48551  -0.46239  -0.45102  -0.42240  -0.40775

 Mulliken charges:
               1
     1  C    0.221638
     2  H    0.358118
     3  C    0.574891
     4  C    0.580006
     5  C    0.168670
     6  H    0.335385
     7  H    0.343378
     8  C    0.417913
 Sum of Mulliken charges =   3.00000

 Dipole moment (field-independent basis, Debye):
    X=             -0.8796    Y=             -0.3594    Z=              0.3966  Tot=              1.0296
 Quadrupole moment (field-independent basis, Debye-Ang):
   XX=              5.9017   YY=            -10.6551   ZZ=            -15.6933
   XY=             -1.7282   XZ=             -2.0447   YZ=              0.3226

  Exact polarizability:  64.639   3.456  48.891   2.132  -0.201  33.379
 Approx polarizability: 123.761  18.713 113.725   9.527  -0.562  58.640

                      1                      2                      3
                      A                      A                      A
 Frequencies --     58.9462               188.6454               268.4926
 Red. masses --      2.6637                 6.6998                 7.7691
 Frc consts  --      0.0055                 0.1405                 0.3300
 IR Inten    --      6.6560                 9.4461                 1.5875

                      4                      5                      6
                      A                      A                      A
 Frequencies --    310.0030               414.5280               518.2840
 Red. masses --      5.9830                 5.8390                 1.7900
 Frc consts  --      0.3388                 0.5911                 0.2833
 IR Inten    --      8.8527                12.7239                10.5060

                      7                      8                      9
                      A                      A                      A
 Frequencies --    587.3630               740.5407               772.8546
 Red. masses --      7.1368                 1.3869                 2.9850
 Frc consts  --      1.4507                 0.4481                 1.0505
 IR Inten    --     23.4905                59.1697               144.4284

                     10                     11                     12
                      A                      A                      A
 Frequencies --    892.2115               953.0179              1027.4377
 Red. masses --      2.0688                 1.1531                 2.0709
 Frc consts  --      0.9703                 0.6171                 1.2880
 IR Inten    --      5.2634                59.2851               375.0575

                     13                     14                     15
                      A                      A                      A
 Frequencies --   1104.1745              1227.2747              1302.0390
 Red. masses --      1.5332                 1.1174                 2.2941
 Frc consts  --      1.1013                 0.9917                 2.2914
 IR Inten    --    192.4532               130.5586               167.3623

                     16                     17                     18
                      A                      A                      A
 Frequencies --   2432.2233              2596.1201              2654.3679
 Red. masses --      1.0740                 1.0722                 1.0783
 Frc consts  --      3.7435                 4.2579                 4.4763
 IR Inten    --    349.3917               263.2776               254.3872

 - Thermochemistry -
 -------------------
 Temperature   298.150 Kelvin.  Pressure   1.00000 Atm.
 Atom     1 has atomic number  6 and mass  12.00000

 Molecular mass:    63.02348 amu.
 Principal axes and moments of inertia in atomic units:
                           1         2         3
     Eigenvalues --   180.99897 426.50160 561.17307
           X            0.99930  -0.02891  -0.02374
           Y            0.02931   0.99943   0.01662
           Z            0.02325  -0.01730   0.99958
 This molecule is an asymmetric top.
 Rotational symmetry number  1.
 Rotational temperatures (Kelvin)      0.47853     0.20308     0.15434
 Rotational constants (GHZ):           9.97100     4.23150     3.21602
 Zero-point vibrational energy     107954.1 (Joules/Mol)
                                   25.80166 (Kcal/Mol)
 Warning -- explicit consideration of   7 degrees of freedom as
           vibrations may cause significant error
 Vibrational temperatures:     84.81   271.42   386.30   446.02   596.41
          (Kelvin)            745.69   845.08  1065.47  1111.96  1283.69
                             1371.18  1478.25  1588.66  1765.77  1873.34
                             3499.42  3735.23  3819.04

 Zero-point correction=                           0.041118 (Hartree/Particle)
 Thermal correction to Energy=                    0.047255
 Thermal correction to Enthalpy=                  0.048199
 Thermal correction to Gibbs Free Energy=         0.011959
 Sum of electronic and zero-point Energies=           -190.125060
 Sum of electronic and thermal Energies=              -190.118922
 Sum of electronic and thermal Enthalpies=            -190.117978
 Sum of electronic and thermal Free Energies=         -190.154218

                     E (Thermal)             CV                S
                      KCal/Mol        Cal/Mol-Kelvin    Cal/Mol-Kelvin
 Total                   29.653             20.240             76.273
 Electronic               0.000              0.000              0.000
 Translational            0.889              2.981             38.342
 Rotational               0.889              2.981             25.275
 Vibrational             27.876             14.278             12.657
 Vibration     1          0.596              1.974              4.492
 Vibration     2          0.633              1.855              2.241
 Vibration     3          0.673              1.731              1.606
 Vibration     4          0.699              1.655              1.362
 Vibration     5          0.778              1.439              0.911
 Vibration     6          0.873              1.209              0.614
 Vibration     7          0.945              1.059              0.472

 Optimization completed.
    -- Stationary point found.
 Normal termination of Gaussian 09 at Sun Jun 19 13:41:34 2016.
