 Gaussian 09, Revision E.01,
 Gaussian 09:  EM64L-G09RevE.01 30-Nov-2015

 ---------------------------------------------
 #p b3lyp/6-311++G(3df,2p) freq symmetry=Loose
 ---------------------------------------------

 ---------
 b3lyp opt
 ---------
 Symbolic Z-matrix:
 Charge =  1 Multiplicity = 1

                         Standard orientation:
 ---------------------------------------------------------------------
 Center     Atomic      Atomic             Coordinates (Angstroms)
 Number     Number       Type             X           Y           Z
 ---------------------------------------------------------------------
      1          6           0       -0.720418   -0.776691   -0.004331
      2          6           0       -0.722092    0.777072   -0.003985
      3          6           0       -1.966664   -0.001017    0.009653
      4          6           0        0.429333    0.001520   -0.015747
      5          6           0        1.864193    0.001345   -0.009833
      6          1           0        2.167458   -0.043792    1.053579
      7          1           0        2.260715   -0.896345   -0.486222
      8          1           0        2.265716    0.926767   -0.421903
 ---------------------------------------------------------------------

 SCF Done:  E(RB3LYP) =  -191.797635854     A.U. after   12 cycles

 The electronic state is 1-A.
 Alpha  occ. eigenvalues --  -10.57327 -10.53488 -10.53467 -10.52733 -10.43804
 Alpha  occ. eigenvalues --   -1.27904  -1.05362  -0.95182  -0.82950  -0.74452
 Alpha  occ. eigenvalues --   -0.72277  -0.70296  -0.64645  -0.63904  -0.58054
 Alpha  occ. eigenvalues --   -0.51901
 Alpha virt. eigenvalues --   -0.40349  -0.33761  -0.28528  -0.20214  -0.17055
 Alpha virt. eigenvalues --   -0.12501  -0.12047  -0.11460  -0.10421  -0.09971
 Alpha virt. eigenvalues --   -0.08581  -0.07450  -0.07203  -0.06118  -0.04219

 Mulliken charges:
               1
     1  C    0.474709
     2  C    0.478604
     3  C   -0.432191
     4  C    0.339231
     5  C   -0.525114
     6  H    0.232068
     7  H    0.217070
     8  H    0.215622
 Sum of Mulliken charges =   1.00000

 Dipole moment (field-independent basis, Debye):
    X=              3.6257    Y=             -0.0155    Z=              0.1547  Tot=              3.6291
 Quadrupole moment (field-independent basis, Debye-Ang):
   XX=            -17.8961   YY=            -26.3838   ZZ=            -24.3256
   XY=             -0.0456   XZ=              0.4399   YZ=             -0.0041

  Exact polarizability:  65.770  -0.108  42.937   0.854  -0.000  31.776
 Approx polarizability: 104.542  -0.299  95.121   2.168  -0.002  51.436

                      1                      2                      3
                      A                      A                      A
 Frequencies --     32.2572               191.0175               329.1952
 Red. masses --      1.2150                 5.6233                 3.6494
 Frc consts  --      0.0007                 0.1209                 0.2330
 IR Inten    --      3.1450                 7.8115                 2.2010

                      4                      5                      6
                      A                      A                      A
 Frequencies --    474.2764               594.2038               701.9827
 Red. masses --      3.0173                 5.6990                 5.5647
 Frc consts  --      0.3999                 1.1855                 1.6156
 IR Inten    --      5.9555                53.8256                 5.5952

                      7                      8                      9
                      A                      A                      A
 Frequencies --    928.1377               993.5258              1048.5303
 Red. masses --      2.3535                 3.5479                 1.6694
 Frc consts  --      1.1945                 2.0634                 1.0813
 IR Inten    --     29.0623                 6.0267                19.9788

                     10                     11                     12
                      A                      A                      A
 Frequencies --   1163.5486              1252.6885              1336.4141
 Red. masses --      6.7162                10.0344                 1.1524
 Frc consts  --      5.3573                 9.2774                 1.2126
 IR Inten    --      0.1240               277.6022                65.5097

                     13                     14                     15
                      A                      A                      A
 Frequencies --   1384.8407              1445.4508              1643.3586
 Red. masses --      1.0393                 1.1190                10.3264
 Frc consts  --      1.1743                 1.3775                16.4309
 IR Inten    --     22.3887                12.8823               409.8364

                     16                     17                     18
                      A                      A                      A
 Frequencies --   2932.4188              3062.3316              3134.4896
 Red. masses --      1.0606                 1.0638                 1.1077
 Frc consts  --      5.3734                 5.8776                 6.4121
 IR Inten    --    165.1138                35.7145                23.3536

 - Thermochemistry -
 -------------------
 Temperature   298.150 Kelvin.  Pressure   1.00000 Atm.
 Atom     1 has atomic number  6 and mass  12.00000

 Molecular mass:    63.02348 amu.
 Principal axes and moments of inertia in atomic units:
                           1         2         3
     Eigenvalues --    63.22073 423.93420 476.14745
           X            1.00000  -0.00022   0.00209
           Y            0.00023   1.00000  -0.00010
           Z           -0.00209   0.00010   1.00000
 This molecule is an asymmetric top.
 Rotational symmetry number  1.
 Rotational temperatures (Kelvin)      1.37002     0.20431     0.18191
 Rotational constants (GHZ):          28.54667     4.25713     3.79030
 Zero-point vibrational energy     135469.1 (Joules/Mol)
                                   32.37790 (Kcal/Mol)
 Warning -- explicit consideration of   5 degrees of freedom as
           vibrations may cause significant error
 Vibrational temperatures:     46.41   274.83   473.64   682.38   854.93
          (Kelvin)           1010.00  1335.38  1429.46  1508.60  1674.08
                             1802.34  1922.80  1992.47  2079.68  2364.42
                             4219.09  4406.01  4509.83

 Zero-point correction=                           0.051597 (Hartree/Particle)
 Thermal correction to Energy=                    0.056958
 Thermal correction to Enthalpy=                  0.057902
 Thermal correction to Gibbs Free Energy=         0.022979
 Sum of electronic and zero-point Energies=           -191.746038
 Sum of electronic and thermal Energies=              -191.740678
 Sum of electronic and thermal Enthalpies=            -191.739734
 Sum of electronic and thermal Free Energies=         -191.774657

                     E (Thermal)             CV                S
                      KCal/Mol        Cal/Mol-Kelvin    Cal/Mol-Kelvin
 Total                   35.741             16.547             73.502
 Electronic               0.000              0.000              0.000
 Translational            0.889              2.981             38.342
 Rotational               0.889              2.981             24.060
 Vibrational             33.964             10.585             11.100
 Vibration     1          0.594              1.983              5.686
 Vibration     2          0.634              1.852              2.218
 Vibration     3          0.712              1.617              1.264
 Vibration     4          0.831              1.307              0.726
 Vibration     5          0.952              1.044              0.460

 Normal termination of Gaussian 09 at Sun Jun 19 09:46:25 2016.
