 Gaussian 09, Revision E.01,
 Gaussian 09:  EM64L-G09RevE.01 30-Nov-2015

 ---------------------------------------------
 #p b3lyp/6-311++G(3df,2p) freq symmetry=Loose
 ---------------------------------------------

 ---------
 b3lyp opt
 ---------
 Symbolic Z-matrix:
 Charge =  3 Multiplicity = 1

                         Standard orientation:
 ---------------------------------------------------------------------
 Center     Atomic      Atomic             Coordinates (Angstroms)
 Number     Number       Type             X           Y           Z
 ---------------------------------------------------------------------
      1          6           0        2.304510   -0.244980   -0.272428
      2          1           0        3.333179   -0.497751   -0.647701
      3          6           0        1.209895    0.101150    0.322655
      4          1           0        1.610392    0.431375    1.370363
      5          6           0       -0.137884    0.204347    0.032361
      6          1           0       -1.847994    1.294841   -0.647145
      7          6           0       -1.403226    0.340336   -0.186296
      8          6           0       -2.489225   -0.605597    0.091122
 ---------------------------------------------------------------------

 SCF Done:  E(RB3LYP) =  -190.435537358     A.U. after   14 cycles

 The electronic state is 1-A.
 Alpha  occ. eigenvalues --  -11.06709 -11.04649 -11.02686 -10.94189 -10.91706
 Alpha  occ. eigenvalues --   -1.56695  -1.51772  -1.40032  -1.31791  -1.22797
 Alpha  occ. eigenvalues --   -1.17249  -1.16781  -1.05346  -1.02551  -0.99604
 Alpha virt. eigenvalues --   -0.84661  -0.83499  -0.81677  -0.80170  -0.65419
 Alpha virt. eigenvalues --   -0.64765  -0.53885  -0.49000  -0.47827  -0.45252
 Alpha virt. eigenvalues --   -0.43313  -0.41829  -0.41136  -0.40549  -0.38117

 Mulliken charges:
               1
     1  C    0.288021
     2  H    0.489030
     3  C    0.166469
     4  H    0.314512
     5  C    0.678484
     6  H    0.310958
     7  C    0.271756
     8  C    0.480771
 Sum of Mulliken charges =   3.00000

 Dipole moment (field-independent basis, Debye):
    X=              3.1454    Y=              0.1770    Z=             -0.4028  Tot=              3.1760
 Quadrupole moment (field-independent basis, Debye-Ang):
   XX=             45.5813   YY=            -17.5413   ZZ=            -16.8110
   XY=             -4.0300   XZ=              0.0609   YZ=              0.3679

  Exact polarizability:  98.911   1.132  30.355  -1.113   0.145  29.293
 Approx polarizability: 231.890  10.408  53.283  -9.044   0.939  48.509

                      1                      2                      3
                      A                      A                      A
 Frequencies --    131.6021               200.9249               217.2747
 Red. masses --      3.7507                 2.8416                 3.6430
 Frc consts  --      0.0383                 0.0676                 0.1013
 IR Inten    --      5.8884                32.3065                 2.9391

                      4                      5                      6
                      A                      A                      A
 Frequencies --    409.4104               466.0450               602.8509
 Red. masses --      2.3487                 2.4172                 2.0659
 Frc consts  --      0.2320                 0.3093                 0.4424
 IR Inten    --      1.0923                55.6034                36.4081

                      7                      8                      9
                      A                      A                      A
 Frequencies --    681.9869               791.7060               805.4778
 Red. masses --      1.7361                 4.8843                 1.4279
 Frc consts  --      0.4757                 1.8038                 0.5458
 IR Inten    --     43.3674                61.1308                13.8976

                     10                     11                     12
                      A                      A                      A
 Frequencies --    857.9311               921.1160              1019.7621
 Red. masses --      1.4917                 1.3441                 1.4189
 Frc consts  --      0.6469                 0.6719                 0.8694
 IR Inten    --     21.4111                18.2848                 3.3100

                     13                     14                     15
                      A                      A                      A
 Frequencies --   1140.2185              1694.2577              1887.0667
 Red. masses --      4.1442                 5.6549                 9.4891
 Frc consts  --      3.1744                 9.5638                19.9090
 IR Inten    --    482.5830               178.9860              1423.5991

                     16                     17                     18
                      A                      A                      A
 Frequencies --   2401.5495              2540.9846              2877.6714
 Red. masses --      1.0695                 1.0857                 1.1624
 Frc consts  --      3.6341                 4.1302                 5.6716
 IR Inten    --    642.5327               779.9012               538.7713

 - Thermochemistry -
 -------------------
 Temperature   298.150 Kelvin.  Pressure   1.00000 Atm.
 Atom     1 has atomic number  6 and mass  12.00000

 Molecular mass:    63.02348 amu.
 Principal axes and moments of inertia in atomic units:
                           1         2         3
     Eigenvalues --    52.06318 721.61208 735.12839
           X            0.99983  -0.01755   0.00622
           Y            0.01745   0.99974   0.01460
           Z           -0.00648  -0.01449   0.99987
 This molecule is an asymmetric top.
 Rotational symmetry number  1.
 Rotational temperatures (Kelvin)      1.66363     0.12003     0.11782
 Rotational constants (GHZ):          34.66444     2.50099     2.45500
 Zero-point vibrational energy     117520.2 (Joules/Mol)
                                   28.08799 (Kcal/Mol)
 Warning -- explicit consideration of   6 degrees of freedom as
           vibrations may cause significant error
 Vibrational temperatures:    189.35   289.09   312.61   589.05   670.53
          (Kelvin)            867.37   981.23  1139.09  1158.90  1234.37
                             1325.28  1467.21  1640.52  2437.66  2715.06
                             3455.29  3655.91  4140.32

 Zero-point correction=                           0.044761 (Hartree/Particle)
 Thermal correction to Energy=                    0.050522
 Thermal correction to Enthalpy=                  0.051466
 Thermal correction to Gibbs Free Energy=         0.016541
 Sum of electronic and zero-point Energies=           -190.390776
 Sum of electronic and thermal Energies=              -190.385016
 Sum of electronic and thermal Enthalpies=            -190.384071
 Sum of electronic and thermal Free Energies=         -190.418996

                     E (Thermal)             CV                S
                      KCal/Mol        Cal/Mol-Kelvin    Cal/Mol-Kelvin
 Total                   31.703             19.203             73.506
 Electronic               0.000              0.000              0.000
 Translational            0.889              2.981             38.342
 Rotational               0.889              2.981             24.827
 Vibrational             29.925             13.242             10.337
 Vibration     1          0.612              1.922              2.923
 Vibration     2          0.638              1.839              2.125
 Vibration     3          0.646              1.815              1.982
 Vibration     4          0.774              1.450              0.929
 Vibration     5          0.823              1.325              0.749
 Vibration     6          0.961              1.026              0.445

 Optimization completed.
    -- Stationary point found.
 Normal termination of Gaussian 09 at Sun Jun 19 13:59:44 2016.
