 Gaussian 09, Revision E.01,
 Gaussian 09:  EM64L-G09RevE.01 30-Nov-2015

 ---------------------------------------------
 #p b3lyp/6-311++G(3df,2p) freq symmetry=Loose
 ---------------------------------------------

 ---------
 b3lyp opt
 ---------
 Symbolic Z-matrix:
 Charge =  0 Multiplicity = 2

                         Standard orientation:
 ---------------------------------------------------------------------
 Center     Atomic      Atomic             Coordinates (Angstroms)
 Number     Number       Type             X           Y           Z
 ---------------------------------------------------------------------
      1          6           0        0.826666   -0.896144    0.000000
      2          1           0        1.194247   -1.417780    0.882587
      3          1           0        1.194247   -1.417780   -0.882587
      4          6           0       -0.724726   -0.831321   -0.000000
      5          6           0        0.000000    1.101203    0.000000
      6          6           0        1.142550    0.582690    0.000000
      7          6           0       -1.263061    0.392054   -0.000000
      8          1           0       -2.277062    0.744663   -0.000000
 ---------------------------------------------------------------------

 SCF Done:  E(UB3LYP) =  -192.113289056     A.U. after   19 cycles

 The electronic state is 2-A'.
 Alpha  occ. eigenvalues --  -10.23195 -10.22759 -10.22238 -10.21721 -10.18913
 Alpha  occ. eigenvalues --   -0.90808  -0.75073  -0.70691  -0.56776  -0.51461
 Alpha  occ. eigenvalues --   -0.47135  -0.46343  -0.42535  -0.34622  -0.31944
 Alpha  occ. eigenvalues --   -0.25453  -0.24392
 Alpha virt. eigenvalues --   -0.10641  -0.04130  -0.00390   0.01332   0.02545
 Alpha virt. eigenvalues --    0.04633   0.05464   0.05549   0.06032   0.07261
 Alpha virt. eigenvalues --    0.07750   0.09420   0.11297   0.11434   0.11786

  Beta  occ. eigenvalues --  -10.23031 -10.22234 -10.22177 -10.21502 -10.17953
  Beta  occ. eigenvalues --   -0.90050  -0.74315  -0.69977  -0.56025  -0.50572
  Beta  occ. eigenvalues --   -0.46895  -0.45184  -0.41720  -0.34820  -0.28329
  Beta  occ. eigenvalues --   -0.24542
  Beta virt. eigenvalues --   -0.11495  -0.10277  -0.03005  -0.00251   0.01353
  Beta virt. eigenvalues --    0.02573   0.05195   0.05511   0.05612   0.06079
  Beta virt. eigenvalues --    0.07368   0.07715   0.09521   0.11352   0.11636

 Mulliken charges and spin densities:
               1          2
     1  C   -0.416722   0.000959
     2  H    0.164020  -0.002825
     3  H    0.164020  -0.002825
     4  C   -0.206060   0.896769
     5  C    0.419379  -0.483563
     6  C   -0.293770   0.686099
     7  C   -0.050672  -0.098982
     8  H    0.219805   0.004367
 Sum of Mulliken charges =  -0.00000   1.00000

 Dipole moment (field-independent basis, Debye):
    X=             -0.7080    Y=             -0.6508    Z=              0.0000  Tot=              0.9616
 Quadrupole moment (field-independent basis, Debye-Ang):
   XX=            -28.8211   YY=            -28.9643   ZZ=            -30.4785
   XY=             -4.8577   XZ=              0.0000   YZ=             -0.0000

  Exact polarizability:  68.552   2.749  62.188  -0.000   0.000  39.242
 Approx polarizability: 120.503   3.658 118.955   0.000  -0.000  56.599

                      1                      2                      3
                     A"                     A'                     A"
 Frequencies --    242.7927               375.4640               393.2322
 Red. masses --      2.5190                10.0629                 3.8369
 Frc consts  --      0.0875                 0.8358                 0.3496
 IR Inten    --     19.7985                88.4971                 6.3168

                      4                      5                      6
                     A'                     A"                     A'
 Frequencies --    642.1476               764.5662               817.8160
 Red. masses --      8.2149                 1.2486                 4.2827
 Frc consts  --      1.9958                 0.4300                 1.6876
 IR Inten    --      3.0718                25.0465                54.8696

                      7                      8                      9
                     A"                     A'                     A'
 Frequencies --    849.3649               985.9937               999.5592
 Red. masses --      1.9032                 7.3502                 7.6094
 Frc consts  --      0.8090                 4.2101                 4.4794
 IR Inten    --      2.8795                36.4975                 1.0825

                     10                     11                     12
                     A"                     A'                     A'
 Frequencies --   1111.5262              1167.5912              1191.1964
 Red. masses --      1.0654                 1.1630                 1.3201
 Frc consts  --      0.7755                 0.9341                 1.1037
 IR Inten    --      2.2075                 0.1295                 0.3849

                     13                     14                     15
                     A'                     A'                     A'
 Frequencies --   1404.9518              1512.7893              1743.3458
 Red. masses --      1.1277                 6.0254                10.6447
 Frc consts  --      1.3115                 8.1244                19.0611
 IR Inten    --      8.1792                 2.0189                 3.3743

                     16                     17                     18
                     A'                     A"                     A'
 Frequencies --   3069.9915              3112.8784              3279.4293
 Red. masses --      1.0575                 1.1039                 1.0999
 Frc consts  --      5.8723                 6.3022                 6.9692
 IR Inten    --      2.9400                 0.2803                 0.9823

 - Thermochemistry -
 -------------------
 Temperature   298.150 Kelvin.  Pressure   1.00000 Atm.
 Atom     1 has atomic number  6 and mass  12.00000

 Molecular mass:    63.02348 amu.
 Principal axes and moments of inertia in atomic units:
                           1         2         3
     Eigenvalues --   153.92438 215.66436 358.37481
           X            0.95836   0.28555   0.00000
           Y           -0.28555   0.95836   0.00000
           Z            0.00000  -0.00000   1.00000
 This molecule is an asymmetric top.
 Rotational symmetry number  1.
 Rotational temperatures (Kelvin)      0.56270     0.40161     0.24168
 Rotational constants (GHZ):          11.72486     8.36829     5.03590
 Zero-point vibrational energy     141546.0 (Joules/Mol)
                                   33.83030 (Kcal/Mol)
 Warning -- explicit consideration of   3 degrees of freedom as
           vibrations may cause significant error
 Vibrational temperatures:    349.32   540.21   565.77   923.91  1100.04
          (Kelvin)           1176.65  1222.05  1418.62  1438.14  1599.24
                             1679.90  1713.86  2021.41  2176.56  2508.28
                             4417.03  4478.73  4718.36

 Zero-point correction=                           0.053912 (Hartree/Particle)
 Thermal correction to Energy=                    0.058407
 Thermal correction to Enthalpy=                  0.059351
 Thermal correction to Gibbs Free Energy=         0.026616
 Sum of electronic and zero-point Energies=           -192.059377
 Sum of electronic and thermal Energies=              -192.054882
 Sum of electronic and thermal Enthalpies=            -192.053938
 Sum of electronic and thermal Free Energies=         -192.086673

                     E (Thermal)             CV                S
                      KCal/Mol        Cal/Mol-Kelvin    Cal/Mol-Kelvin
 Total                   36.651             15.278             68.897
 Electronic               0.000              0.000              1.377
 Translational            0.889              2.981             38.342
 Rotational               0.889              2.981             23.990
 Vibrational             34.874              9.317              5.187
 Vibration     1          0.659              1.775              1.782
 Vibration     2          0.746              1.522              1.057
 Vibration     3          0.760              1.485              0.988

 Optimization completed.
    -- Stationary point found.
 Normal termination of Gaussian 09 at Tue Jul 19 12:13:27 2016.
