 Gaussian 09, Revision E.01,
 Gaussian 09:  EM64L-G09RevE.01 30-Nov-2015

 ---------------------------------------------
 #p b3lyp/6-311++G(3df,2p) freq symmetry=Loose
 ---------------------------------------------

 ---------
 b3lyp opt
 ---------
 Symbolic Z-matrix:
 Charge =  3 Multiplicity = 1

                         Standard orientation:
 ---------------------------------------------------------------------
 Center     Atomic      Atomic             Coordinates (Angstroms)
 Number     Number       Type             X           Y           Z
 ---------------------------------------------------------------------
      1          6           0        0.787130   -0.804838    0.000000
      2          6           0       -0.769837   -0.815001    0.000000
      3          6           0        0.015876   -1.847102    0.000000
      4          6           0        0.000000    0.473056   -0.000000
      5          6           0        0.070517    1.809343   -0.000000
      6          1           0       -0.829902    2.379907    0.584855
      7          1           0        1.037688    2.347433   -0.000000
      8          1           0       -0.829902    2.379907   -0.584855
 ---------------------------------------------------------------------

 SCF Done:  E(RB3LYP) =  -190.308068551     A.U. after   15 cycles

 The electronic state is 1-A'.
 Alpha  occ. eigenvalues --  -11.11469 -11.11352 -11.09124 -11.06265 -10.93586
 Alpha  occ. eigenvalues --   -1.80777  -1.54827  -1.44245  -1.35149  -1.26341
 Alpha  occ. eigenvalues --   -1.21787  -1.21315  -1.12678  -1.11897  -1.05153
 Alpha virt. eigenvalues --   -0.96126  -0.84804  -0.84418  -0.79432  -0.67262
 Alpha virt. eigenvalues --   -0.58429  -0.55799  -0.53209  -0.51190  -0.49873
 Alpha virt. eigenvalues --   -0.45011  -0.43706  -0.42880  -0.41168  -0.40538

 Mulliken charges:
               1
     1  C    1.395976
     2  C    1.440973
     3  C   -0.393541
     4  C    0.123777
     5  C   -0.611145
     6  H    0.337012
     7  H    0.369935
     8  H    0.337012
 Sum of Mulliken charges =   3.00000

 Dipole moment (field-independent basis, Debye):
    X=             -1.3885    Y=              2.4183    Z=              0.0000  Tot=              2.7886
 Quadrupole moment (field-independent basis, Debye-Ang):
   XX=            -12.5683   YY=             24.8850   ZZ=            -20.7979
   XY=             -4.2003   XZ=             -0.0000   YZ=              0.0000

  Exact polarizability:  31.434  -2.377  67.659   0.000  -0.000  21.515
 Approx polarizability:  66.920  -6.337 157.758   0.000   0.000  32.588

                      1                      2                      3
                     A"                     A'                     A"
 Frequencies --    264.1393               362.8083               432.9701
 Red. masses --      4.4484                 2.5416                 1.3049
 Frc consts  --      0.1829                 0.1971                 0.1441
 IR Inten    --     13.0741                33.3531                36.4051

                      4                      5                      6
                     A"                     A'                     A"
 Frequencies --    482.9217               548.8361               643.4325
 Red. masses --      2.1717                 7.8177                 1.9831
 Frc consts  --      0.2984                 1.3874                 0.4837
 IR Inten    --     53.9208                 5.0888                 0.9294

                      7                      8                      9
                     A'                     A'                     A'
 Frequencies --    668.7302               690.0433               883.6142
 Red. masses --      5.0525                 1.2303                 1.6795
 Frc consts  --      1.3312                 0.3452                 0.7726
 IR Inten    --     10.4444               676.8965               176.3081

                     10                     11                     12
                     A'                     A"                     A'
 Frequencies --    939.6837               945.6438              1344.3387
 Red. masses --      5.0354                 1.1703                 1.1455
 Frc consts  --      2.6197                 0.6166                 1.2197
 IR Inten    --      4.9396                77.9400                 8.9577

                     13                     14                     15
                     A'                     A'                     A'
 Frequencies --   1498.6569              1641.7346              1772.1589
 Red. masses --     11.9427                 7.4787                11.7389
 Frc consts  --     15.8036                11.8763                21.7211
 IR Inten    --     18.3265                61.9582                67.1021

                     16                     17                     18
                     A"                     A'                     A'
 Frequencies --   1995.3731              2307.6321              2950.6229
 Red. masses --      1.0333                 1.1157                 1.0942
 Frc consts  --      2.4239                 3.5006                 5.6125
 IR Inten    --    291.1647               943.4242               361.1641

 - Thermochemistry -
 -------------------
 Temperature   298.150 Kelvin.  Pressure   1.00000 Atm.
 Atom     1 has atomic number  6 and mass  12.00000

 Molecular mass:    63.02348 amu.
 Principal axes and moments of inertia in atomic units:
                           1         2         3
     Eigenvalues --    63.43997 412.55525 471.07097
           X           -0.00359   0.99999   0.00000
           Y            0.99999   0.00359   0.00000
           Z           -0.00000   0.00000   1.00000
 This molecule is an asymmetric top.
 Rotational symmetry number  1.
 Rotational temperatures (Kelvin)      1.36529     0.20994     0.18387
 Rotational constants (GHZ):          28.44802     4.37454     3.83115
 Zero-point vibrational energy     121859.6 (Joules/Mol)
                                   29.12515 (Kcal/Mol)
 Warning -- explicit consideration of   5 degrees of freedom as
           vibrations may cause significant error
 Vibrational temperatures:    380.04   522.00   622.95   694.82   789.65
          (Kelvin)            925.75   962.15   992.82  1271.32  1351.99
                             1360.57  1934.20  2156.23  2362.09  2549.74
                             2870.89  3320.16  4245.28

 Zero-point correction=                           0.046414 (Hartree/Particle)
 Thermal correction to Energy=                    0.051316
 Thermal correction to Enthalpy=                  0.052260
 Thermal correction to Gibbs Free Energy=         0.019625
 Sum of electronic and zero-point Energies=           -190.261655
 Sum of electronic and thermal Energies=              -190.256753
 Sum of electronic and thermal Enthalpies=            -190.255809
 Sum of electronic and thermal Free Energies=         -190.288443

                     E (Thermal)             CV                S
                      KCal/Mol        Cal/Mol-Kelvin    Cal/Mol-Kelvin
 Total                   32.201             17.461             68.685
 Electronic               0.000              0.000              0.000
 Translational            0.889              2.981             38.342
 Rotational               0.889              2.981             24.026
 Vibrational             30.424             11.500              6.317
 Vibration     1          0.671              1.739              1.634
 Vibration     2          0.737              1.549              1.110
 Vibration     3          0.794              1.398              0.849
 Vibration     4          0.839              1.288              0.702
 Vibration     5          0.904              1.142              0.547

 Optimization completed.
    -- Stationary point found.
 Normal termination of Gaussian 09 at Tue Jul 19 14:59:08 2016.
