 Gaussian 09, Revision E.01,
 Gaussian 09:  EM64L-G09RevE.01 30-Nov-2015

 ---------------------------------------------
 #p b3lyp/6-311++G(3df,2p) freq symmetry=Loose
 ---------------------------------------------

 ---------
 b3lyp opt
 ---------
 Symbolic Z-matrix:
 Charge =  2 Multiplicity = 4

                         Standard orientation:
 ---------------------------------------------------------------------
 Center     Atomic      Atomic             Coordinates (Angstroms)
 Number     Number       Type             X           Y           Z
 ---------------------------------------------------------------------
      1          6           0       -1.837518    0.011327   -0.034660
      2          1           0       -2.352759    0.970053   -0.092229
      3          1           0       -2.420906   -0.910329   -0.042811
      4          6           0       -0.435321   -0.047243    0.011713
      5          6           0        0.693334    0.899549    0.029679
      6          1           0        0.773317    1.970514    0.261961
      7          6           0        1.645601   -0.136245   -0.143181
      8          6           0        0.600630   -1.065762    0.115295
 ---------------------------------------------------------------------

 SCF Done:  E(UB3LYP) =  -191.212139206     A.U. after   16 cycles

 The electronic state is 4-A.
 Alpha  occ. eigenvalues --  -10.80375 -10.78197 -10.77326 -10.75909 -10.71677
 Alpha  occ. eigenvalues --   -1.46144  -1.26404  -1.15829  -1.10978  -0.98303
 Alpha  occ. eigenvalues --   -0.96587  -0.95875  -0.91320  -0.87719  -0.81369
 Alpha  occ. eigenvalues --   -0.78471  -0.76419
 Alpha virt. eigenvalues --   -0.61400  -0.56576  -0.42316  -0.33814  -0.33237
 Alpha virt. eigenvalues --   -0.31593  -0.29010  -0.27895  -0.26499  -0.26077
 Alpha virt. eigenvalues --   -0.22883  -0.21724  -0.21371  -0.21065  -0.20255

  Beta  occ. eigenvalues --  -10.78576 -10.77133 -10.75686 -10.75193 -10.70963
  Beta  occ. eigenvalues --   -1.43275  -1.23074  -1.13493  -1.07343  -0.95564
  Beta  occ. eigenvalues --   -0.94058  -0.93560  -0.87662  -0.86345
  Beta virt. eigenvalues --   -0.65865  -0.62593  -0.59976  -0.58264  -0.49922
  Beta virt. eigenvalues --   -0.37423  -0.32752  -0.32396  -0.30079  -0.28253
  Beta virt. eigenvalues --   -0.26961  -0.25868  -0.25305  -0.21810  -0.21190

 Mulliken charges and spin densities:
               1          2
     1  C   -0.297779   0.453946
     2  H    0.295898  -0.011021
     3  H    0.294896  -0.005775
     4  C    0.511550   0.398994
     5  C    0.222006  -0.020362
     6  H    0.351251   0.040672
     7  C    0.203739   1.309369
     8  C    0.418438   0.834178
 Sum of Mulliken charges =   2.00000   3.00000

 Dipole moment (field-independent basis, Debye):
    X=             -1.1983    Y=              1.1770    Z=              0.0319  Tot=              1.6800
 Quadrupole moment (field-independent basis, Debye-Ang):
   XX=             -0.9428   YY=            -13.2676   ZZ=            -23.4523
   XY=              1.0017   XZ=              0.1866   YZ=              0.5409

  Exact polarizability:  64.755  -0.351  40.894  -0.371   0.195  24.245
 Approx polarizability: 108.363  -0.856  75.010  -2.687  -0.571  37.223

                      1                      2                      3
                      A                      A                      A
 Frequencies --    173.1194               333.0261               361.7883
 Red. masses --      4.1894                 1.1757                 2.2478
 Frc consts  --      0.0740                 0.0768                 0.1733
 IR Inten    --      1.1935                 1.5021                 1.3442

                      4                      5                      6
                      A                      A                      A
 Frequencies --    371.7330               700.8119               873.1354
 Red. masses --      3.5372                 5.9678                 2.4363
 Frc consts  --      0.2880                 1.7269                 1.0943
 IR Inten    --     10.5892                20.7948                 7.0499

                      7                      8                      9
                      A                      A                      A
 Frequencies --    896.3261               969.8196              1065.3991
 Red. masses --      2.6426                 2.1956                 1.3840
 Frc consts  --      1.2509                 1.2167                 0.9256
 IR Inten    --      5.5347                10.9780                15.7119

                     10                     11                     12
                      A                      A                      A
 Frequencies --   1092.7094              1109.8880              1220.9742
 Red. masses --      2.1537                 1.6644                 5.7219
 Frc consts  --      1.5151                 1.2080                 5.0258
 IR Inten    --     20.2464                14.7048                56.0118

                     13                     14                     15
                      A                      A                      A
 Frequencies --   1295.1552              1443.4918              1533.5013
 Red. masses --      5.4731                 1.2056                 5.9537
 Frc consts  --      5.4091                 1.4801                 8.2491
 IR Inten    --     52.1483                29.8611                 3.3731

                     16                     17                     18
                      A                      A                      A
 Frequencies --   3054.2016              3076.7335              3191.7530
 Red. masses --      1.1005                 1.0542                 1.1258
 Frc consts  --      6.0486                 5.8797                 6.7574
 IR Inten    --    193.2148               132.2752                83.6648

 - Thermochemistry -
 -------------------
 Temperature   298.150 Kelvin.  Pressure   1.00000 Atm.
 Atom     1 has atomic number  6 and mass  12.00000

 Molecular mass:    63.02348 amu.
 Principal axes and moments of inertia in atomic units:
                           1         2         3
     Eigenvalues --   106.08832 349.07968 451.58986
           X            0.99980   0.01909   0.00551
           Y           -0.01918   0.99968   0.01648
           Z           -0.00519  -0.01658   0.99985
 This molecule is an asymmetric top.
 Rotational symmetry number  1.
 Rotational temperatures (Kelvin)      0.81643     0.24812     0.19180
 Rotational constants (GHZ):          17.01169     5.17000     3.99642
 Zero-point vibrational energy     136156.4 (Joules/Mol)
                                   32.54215 (Kcal/Mol)
 Warning -- explicit consideration of   4 degrees of freedom as
           vibrations may cause significant error
 Vibrational temperatures:    249.08   479.15   520.53   534.84  1008.31
          (Kelvin)           1256.25  1289.61  1395.35  1532.87  1572.16
                             1596.88  1756.71  1863.44  2076.86  2206.36
                             4394.31  4426.73  4592.21

 Zero-point correction=                           0.051859 (Hartree/Particle)
 Thermal correction to Energy=                    0.056746
 Thermal correction to Enthalpy=                  0.057691
 Thermal correction to Gibbs Free Energy=         0.023360
 Sum of electronic and zero-point Energies=           -191.160280
 Sum of electronic and thermal Energies=              -191.155393
 Sum of electronic and thermal Enthalpies=            -191.154449
 Sum of electronic and thermal Free Energies=         -191.188779

                     E (Thermal)             CV                S
                      KCal/Mol        Cal/Mol-Kelvin    Cal/Mol-Kelvin
 Total                   35.609             16.179             72.254
 Electronic               0.000              0.000              2.755
 Translational            0.889              2.981             38.342
 Rotational               0.889              2.981             24.329
 Vibrational             33.831             10.217              6.828
 Vibration     1          0.627              1.876              2.401
 Vibration     2          0.715              1.610              1.245
 Vibration     3          0.736              1.551              1.114
 Vibration     4          0.743              1.530              1.073

 Optimization completed.
    -- Stationary point found.
 Normal termination of Gaussian 09 at Sun Jun 19 12:50:49 2016.
