 Gaussian 09, Revision E.01,
 Gaussian 09:  EM64L-G09RevE.01 30-Nov-2015

 ---------------------------------------------
 #p b3lyp/6-311++G(3df,2p) freq symmetry=Loose
 ---------------------------------------------

 ---------
 b3lyp opt
 ---------
 Symbolic Z-matrix:
 Charge =  2 Multiplicity = 2

                         Standard orientation:
 ---------------------------------------------------------------------
 Center     Atomic      Atomic             Coordinates (Angstroms)
 Number     Number       Type             X           Y           Z
 ---------------------------------------------------------------------
      1          6           0        0.832419   -0.735305    0.000000
      2          6           0       -0.762923   -0.780884    0.000000
      3          6           0        0.067572   -1.859419    0.000000
      4          6           0        0.000000    0.439151   -0.000000
      5          6           0       -0.046796    1.826349   -0.000000
      6          1           0       -0.731898    2.165364    0.832338
      7          1           0        0.922164    2.329920   -0.000000
      8          1           0       -0.731898    2.165364   -0.832338
 ---------------------------------------------------------------------

 SCF Done:  E(UB3LYP) =  -191.202235841     A.U. after   16 cycles

 The electronic state is 2-A'.
 Alpha  occ. eigenvalues --  -10.83962 -10.83319 -10.82055 -10.82004 -10.65921
 Alpha  occ. eigenvalues --   -1.55002  -1.30513  -1.19714  -1.10160  -0.98515
 Alpha  occ. eigenvalues --   -0.97275  -0.96958  -0.88765  -0.86893  -0.86271
 Alpha  occ. eigenvalues --   -0.80734
 Alpha virt. eigenvalues --   -0.65789  -0.60064  -0.56107  -0.44777  -0.34467
 Alpha virt. eigenvalues --   -0.31694  -0.29818  -0.28399  -0.28206  -0.26875
 Alpha virt. eigenvalues --   -0.26821  -0.24370  -0.22957  -0.21829  -0.21650

  Beta  occ. eigenvalues --  -10.83815 -10.81670 -10.81618 -10.81463 -10.65941
  Beta  occ. eigenvalues --   -1.54620  -1.30076  -1.18800  -1.08860  -0.97900
  Beta  occ. eigenvalues --   -0.96650  -0.96395  -0.86826  -0.86122  -0.82748
  Beta virt. eigenvalues --   -0.66790  -0.64329  -0.59384  -0.53739  -0.42516
  Beta virt. eigenvalues --   -0.34350  -0.31589  -0.29739  -0.28391  -0.27665
  Beta virt. eigenvalues --   -0.26827  -0.26408  -0.23967  -0.22513  -0.21581

 Mulliken charges and spin densities:
               1          2
     1  C    1.039326   0.191657
     2  C    1.030355   0.204290
     3  C   -0.379515   0.707893
     4  C    0.029352  -0.075374
     5  C   -0.581806  -0.010550
     6  H    0.298607  -0.008517
     7  H    0.265074  -0.000881
     8  H    0.298607  -0.008517
 Sum of Mulliken charges =   2.00000   1.00000

 Dipole moment (field-independent basis, Debye):
    X=             -0.5008    Y=              1.2665    Z=              0.0000  Tot=              1.3619
 Quadrupole moment (field-independent basis, Debye-Ang):
   XX=            -20.0153   YY=              2.3756   ZZ=            -21.6215
   XY=             -2.0659   XZ=             -0.0000   YZ=              0.0000

  Exact polarizability:  37.565  -3.093  68.177  -0.000   0.000  26.215
 Approx polarizability:  85.692  -7.842 129.253   0.000   0.000  41.000

                      1                      2                      3
                     A"                     A"                     A'
 Frequencies --    117.4590               250.7676               363.5236
 Red. masses --      1.2146                 4.4124                 2.9374
 Frc consts  --      0.0099                 0.1635                 0.2287
 IR Inten    --     27.7206                 0.0024                 3.6802

                      4                      5                      6
                     A"                     A'                     A'
 Frequencies --    509.0235               623.3729               722.1926
 Red. masses --      2.5396                 7.6057                 5.5399
 Frc consts  --      0.3877                 1.7413                 1.7024
 IR Inten    --      6.5706                28.6575                13.1149

                      7                      8                      9
                     A"                     A'                     A'
 Frequencies --    831.4701               877.4506               972.5657
 Red. masses --      2.1354                 4.2257                 1.7314
 Frc consts  --      0.8698                 1.9169                 0.9649
 IR Inten    --     19.3446                72.8358               146.1129

                     10                     11                     12
                     A'                     A"                     A'
 Frequencies --   1099.4661              1228.6965              1264.1078
 Red. masses --      1.1536                 1.0588                11.9267
 Frc consts  --      0.8216                 0.9418                11.2290
 IR Inten    --    251.9745                32.9073                 2.3063

                     13                     14                     15
                     A'                     A'                     A'
 Frequencies --   1382.8784              1573.7675              1593.7796
 Red. masses --      1.1586                11.8134                 9.7017
 Frc consts  --      1.3055                17.2387                14.5195
 IR Inten    --      6.5328               108.9921               545.2725

                     16                     17                     18
                     A"                     A'                     A'
 Frequencies --   2686.1011              2748.6745              3097.3634
 Red. masses --      1.0726                 1.0563                 1.0945
 Frc consts  --      4.5599                 4.7019                 6.1866
 IR Inten    --    192.9136               699.0623                97.5319

 - Thermochemistry -
 -------------------
 Temperature   298.150 Kelvin.  Pressure   1.00000 Atm.
 Atom     1 has atomic number  6 and mass  12.00000

 Molecular mass:    63.02348 amu.
 Principal axes and moments of inertia in atomic units:
                           1         2         3
     Eigenvalues --    66.29543 404.97929 461.30135
           X           -0.03906   0.99924   0.00000
           Y            0.99924   0.03906   0.00000
           Z            0.00000   0.00000   1.00000
 This molecule is an asymmetric top.
 Rotational symmetry number  1.
 Rotational temperatures (Kelvin)      1.30648     0.21387     0.18776
 Rotational constants (GHZ):          27.22271     4.45638     3.91228
 Zero-point vibrational energy     131246.3 (Joules/Mol)
                                   31.36861 (Kcal/Mol)
 Warning -- explicit consideration of   4 degrees of freedom as
           vibrations may cause significant error
 Vibrational temperatures:    169.00   360.80   523.03   732.37   896.89
          (Kelvin)           1039.07  1196.30  1262.45  1399.30  1581.88
                             1767.82  1818.77  1989.65  2264.30  2293.09
                             3864.70  3954.72  4456.41

 Zero-point correction=                           0.049989 (Hartree/Particle)
 Thermal correction to Energy=                    0.055062
 Thermal correction to Enthalpy=                  0.056006
 Thermal correction to Gibbs Free Energy=         0.021959
 Sum of electronic and zero-point Energies=           -191.152247
 Sum of electronic and thermal Energies=              -191.147174
 Sum of electronic and thermal Enthalpies=            -191.146230
 Sum of electronic and thermal Free Energies=         -191.180277

                     E (Thermal)             CV                S
                      KCal/Mol        Cal/Mol-Kelvin    Cal/Mol-Kelvin
 Total                   34.552             16.604             71.659
 Electronic               0.000              0.000              1.377
 Translational            0.889              2.981             38.342
 Rotational               0.889              2.981             24.030
 Vibrational             32.774             10.643              7.909
 Vibration     1          0.608              1.935              3.142
 Vibration     2          0.663              1.761              1.725
 Vibration     3          0.737              1.547              1.107
 Vibration     4          0.864              1.230              0.636

 Optimization completed.
    -- Stationary point found.
 Normal termination of Gaussian 09 at Tue Jul 19 12:35:52 2016.
