 Gaussian 09, Revision E.01,
 Gaussian 09:  EM64L-G09RevE.01 30-Nov-2015

 ---------------------------------------------
 #p b3lyp/6-311++G(3df,2p) freq symmetry=Loose
 ---------------------------------------------

 ---------
 b3lyp opt
 ---------
 Symbolic Z-matrix:
 Charge =  3 Multiplicity = 3

                         Standard orientation:
 ---------------------------------------------------------------------
 Center     Atomic      Atomic             Coordinates (Angstroms)
 Number     Number       Type             X           Y           Z
 ---------------------------------------------------------------------
      1          6           0       -0.170001   -1.528230    0.000000
      2          6           0        0.039906    0.490900    0.000000
      3          6           0        0.038988   -0.563062    1.055908
      4          1           0        0.203850   -0.568134    2.154382
      5          6           0        0.038988   -0.563062   -1.055908
      6          1           0        0.203850   -0.568134   -2.154382
      7          6           0        0.000000    1.855341    0.000000
      8          1           0       -0.094991    2.985075    0.000000
 ---------------------------------------------------------------------

 SCF Done:  E(UB3LYP) =  -190.415928837     A.U. after   16 cycles

 The electronic state is 3-A'.
 Alpha  occ. eigenvalues --  -11.10626 -11.02657 -11.02534 -11.02529 -11.02491
 Alpha  occ. eigenvalues --   -1.68396  -1.54152  -1.40572  -1.32934  -1.24938
 Alpha  occ. eigenvalues --   -1.23858  -1.18769  -1.14866  -1.12756  -1.04321
 Alpha  occ. eigenvalues --   -1.01164
 Alpha virt. eigenvalues --   -0.89844  -0.85514  -0.80922  -0.66003  -0.59304
 Alpha virt. eigenvalues --   -0.54350  -0.51712  -0.51627  -0.50141  -0.46760
 Alpha virt. eigenvalues --   -0.43117  -0.42889  -0.42718  -0.39113  -0.38974

  Beta  occ. eigenvalues --  -11.09408 -11.02406 -11.02356 -11.02346 -11.00249
  Beta  occ. eigenvalues --   -1.66832  -1.50880  -1.39866  -1.29979  -1.23533
  Beta  occ. eigenvalues --   -1.22726  -1.17625  -1.12162  -1.11642
  Beta virt. eigenvalues --   -0.91878  -0.88293  -0.84516  -0.81011  -0.74314
  Beta virt. eigenvalues --   -0.62731  -0.58208  -0.53143  -0.51189  -0.50461
  Beta virt. eigenvalues --   -0.49808  -0.46102  -0.42666  -0.42096  -0.41752

 Mulliken charges and spin densities:
               1          2
     1  C    0.528791   1.212824
     2  C    0.328832   0.061654
     3  C    0.100723   0.065014
     4  H    0.416113   0.000192
     5  C    0.100723   0.065014
     6  H    0.416113   0.000192
     7  C    0.570729   0.606656
     8  H    0.537975  -0.011546
 Sum of Mulliken charges =   3.00000   2.00000

 Dipole moment (field-independent basis, Debye):
    X=              0.1242    Y=              4.1573    Z=             -0.0000  Tot=              4.1592
 Quadrupole moment (field-independent basis, Debye-Ang):
   XX=            -21.5933   YY=             14.4740   ZZ=             -2.8428
   XY=             -0.2403   XZ=             -0.0000   YZ=              0.0000

  Exact polarizability:  21.222   0.770  57.385   0.000   0.000  38.577
 Approx polarizability:  32.449   3.070 112.729   0.000   0.000  67.234

                      1                      2                      3
                     A'                     A"                     A'
 Frequencies --     84.2752               264.1319               404.4014
 Red. masses --      2.8629                 2.4344                 2.3769
 Frc consts  --      0.0120                 0.1001                 0.2290
 IR Inten    --      1.5906                16.7271                51.8477

                      4                      5                      6
                     A'                     A'                     A"
 Frequencies --    574.9147               684.9774               773.2271
 Red. masses --      1.4468                 6.4751                 2.5922
 Frc consts  --      0.2818                 1.7900                 0.9131
 IR Inten    --     26.5284                11.4406               100.9043

                      7                      8                      9
                     A'                     A'                     A"
 Frequencies --    866.2452               930.4386               986.0767
 Red. masses --      2.7105                 1.8621                 1.3314
 Frc consts  --      1.1983                 0.9498                 0.7628
 IR Inten    --      4.4072                16.6071                 0.0917

                     10                     11                     12
                     A"                     A'                     A"
 Frequencies --   1080.3094              1091.7650              1114.2644
 Red. masses --      2.5449                 2.4979                 1.3820
 Frc consts  --      1.7499                 1.7542                 1.0110
 IR Inten    --     21.1703                 2.6829                17.0489

                     13                     14                     15
                     A"                     A'                     A'
 Frequencies --   1222.0792              1225.2932              1306.7596
 Red. masses --      4.2347                 2.6625                 5.3882
 Frc consts  --      3.7263                 2.3552                 5.4211
 IR Inten    --    108.3604                24.7105               308.4750

                     16                     17                     18
                     A'                     A"                     A'
 Frequencies --   2757.4763              2955.8501              2960.3151
 Red. masses --      1.1203                 1.1096                 1.1126
 Frc consts  --      5.0189                 5.7117                 5.7446
 IR Inten    --    750.7042               577.7779                14.5214

 - Thermochemistry -
 -------------------
 Temperature   298.150 Kelvin.  Pressure   1.00000 Atm.
 Atom     1 has atomic number  6 and mass  12.00000

 Molecular mass:    63.02348 amu.
 Principal axes and moments of inertia in atomic units:
                           1         2         3
     Eigenvalues --   130.51650 321.05812 448.47212
           X            0.02581   0.00000   0.99967
           Y            0.99967   0.00000  -0.02581
           Z            0.00000   1.00000  -0.00000
 This molecule is an asymmetric top.
 Rotational symmetry number  1.
 Rotational temperatures (Kelvin)      0.66362     0.26978     0.19313
 Rotational constants (GHZ):          13.82769     5.62123     4.02420
 Zero-point vibrational energy     127299.4 (Joules/Mol)
                                   30.42529 (Kcal/Mol)
 Warning -- explicit consideration of   4 degrees of freedom as
           vibrations may cause significant error
 Vibrational temperatures:    121.25   380.03   581.84   827.17   985.53
          (Kelvin)           1112.50  1246.33  1338.69  1418.74  1554.32
                             1570.80  1603.18  1758.30  1762.92  1880.13
                             3967.39  4252.80  4259.23

 Zero-point correction=                           0.048486 (Hartree/Particle)
 Thermal correction to Energy=                    0.053501
 Thermal correction to Enthalpy=                  0.054445
 Thermal correction to Gibbs Free Energy=         0.019730
 Sum of electronic and zero-point Energies=           -190.367443
 Sum of electronic and thermal Energies=              -190.362428
 Sum of electronic and thermal Enthalpies=            -190.361483
 Sum of electronic and thermal Free Energies=         -190.396198

                     E (Thermal)             CV                S
                      KCal/Mol        Cal/Mol-Kelvin    Cal/Mol-Kelvin
 Total                   33.572             16.539             73.064
 Electronic               0.000              0.000              2.183
 Translational            0.889              2.981             38.342
 Rotational               0.889              2.981             24.445
 Vibrational             31.795             10.577              8.094
 Vibration     1          0.601              1.960              3.789
 Vibration     2          0.671              1.739              1.634
 Vibration     3          0.770              1.461              0.947
 Vibration     4          0.931              1.086              0.495

 Normal termination of Gaussian 09 at Sun Jun 19 14:41:08 2016.
