 Gaussian 09, Revision E.01,
 Gaussian 09:  EM64L-G09RevE.01 30-Nov-2015

 ---------------------------------------------
 #p b3lyp/6-311++G(3df,2p) freq symmetry=Loose
 ---------------------------------------------

 ---------
 b3lyp opt
 ---------
 Symbolic Z-matrix:
 Charge =  2 Multiplicity = 2

                         Standard orientation:
 ---------------------------------------------------------------------
 Center     Atomic      Atomic             Coordinates (Angstroms)
 Number     Number       Type             X           Y           Z
 ---------------------------------------------------------------------
      1          6           0       -2.212432   -0.702886   -0.000000
      2          1           0       -3.250467   -1.049683   -0.000000
      3          6           0       -0.969401   -0.491262   -0.000000
      4          1           0       -0.668991   -1.594645   -0.000000
      5          6           0        0.000000    0.591654   -0.000000
      6          1           0       -0.400300    1.609294   -0.000000
      7          6           0        1.334426    0.401539    0.000000
      8          6           0        2.567367    0.373460    0.000000
 ---------------------------------------------------------------------

 SCF Done:  E(UB3LYP) =  -191.236733811     A.U. after   22 cycles

 The electronic state is 2-A'.
 Alpha  occ. eigenvalues --  -10.77472 -10.74374 -10.73231 -10.69939 -10.65431
 Alpha  occ. eigenvalues --   -1.32511  -1.26243  -1.18756  -1.05146  -1.00130
 Alpha  occ. eigenvalues --   -0.97098  -0.89448  -0.83913  -0.83289  -0.77251
 Alpha  occ. eigenvalues --   -0.74769
 Alpha virt. eigenvalues --   -0.60995  -0.58352  -0.44545  -0.42489  -0.33927
 Alpha virt. eigenvalues --   -0.33681  -0.31328  -0.29960  -0.27101  -0.24971
 Alpha virt. eigenvalues --   -0.24899  -0.21722  -0.20492  -0.20431  -0.20213

  Beta  occ. eigenvalues --  -10.77623 -10.73421 -10.71739 -10.69890 -10.65270
  Beta  occ. eigenvalues --   -1.32725  -1.25764  -1.16840  -1.05132  -0.99974
  Beta  occ. eigenvalues --   -0.97244  -0.89505  -0.83795  -0.76242  -0.72865
  Beta virt. eigenvalues --   -0.60632  -0.59565  -0.58532  -0.43920  -0.39916
  Beta virt. eigenvalues --   -0.33654  -0.31912  -0.31414  -0.29899  -0.27002
  Beta virt. eigenvalues --   -0.25039  -0.24938  -0.21690  -0.20477  -0.20416

 Mulliken charges and spin densities:
               1          2
     1  C    0.268001  -0.081949
     2  H    0.452955   0.002123
     3  C   -0.010201   0.029423
     4  H    0.250596   0.001088
     5  C   -0.199827  -0.030600
     6  H    0.257920  -0.002322
     7  C    0.718357   0.000030
     8  C    0.262198   1.082207
 Sum of Mulliken charges =   2.00000   1.00000

 Dipole moment (field-independent basis, Debye):
    X=             -3.5518    Y=             -1.6227    Z=             -0.0000  Tot=              3.9050
 Quadrupole moment (field-independent basis, Debye-Ang):
   XX=             21.6603   YY=            -14.6113   ZZ=            -24.9770
   XY=             10.9581   XZ=              0.0000   YZ=              0.0000

  Exact polarizability:  93.246  12.990  37.618   0.000   0.000  25.385
 Approx polarizability: 206.269  19.388  51.516   0.000   0.000  35.735

                      1                      2                      3
                     A'                     A"                     A'
 Frequencies --    118.2174               129.1110               175.7187
 Red. masses --      3.9712                 2.5471                 3.9970
 Frc consts  --      0.0327                 0.0250                 0.0727
 IR Inten    --     15.2814                 3.4285                 7.6233

                      4                      5                      6
                     A"                     A'                     A"
 Frequencies --    304.6417               461.0295               591.4712
 Red. masses --      5.9173                 4.7933                 1.3323
 Frc consts  --      0.3236                 0.6003                 0.2746
 IR Inten    --      3.8789                 2.1935                76.9377

                      7                      8                      9
                     A"                     A'                     A"
 Frequencies --    729.3759               753.1670               915.8983
 Red. masses --      1.3439                 2.0818                 1.7423
 Frc consts  --      0.4212                 0.6958                 0.8611
 IR Inten    --     31.0232                19.7489                 1.6760

                     10                     11                     12
                     A'                     A'                     A'
 Frequencies --   1001.7792              1037.7450              1179.4859
 Red. masses --      1.4366                 2.0956                 1.9319
 Frc consts  --      0.8494                 1.3296                 1.5835
 IR Inten    --      4.3121                 1.6804                16.6627

                     13                     14                     15
                     A'                     A'                     A'
 Frequencies --   1391.1858              1844.9439              2121.9646
 Red. masses --      1.9795                 5.7365                11.5870
 Frc consts  --      2.2572                11.5044                30.7394
 IR Inten    --      5.9236               376.4180               524.8574

                     16                     17                     18
                     A'                     A'                     A'
 Frequencies --   2663.0795              3089.3412              3153.6045
 Red. masses --      1.0708                 1.0915                 1.1482
 Frc consts  --      4.4744                 6.1377                 6.7281
 IR Inten    --    202.8482                94.7991               376.1733

 - Thermochemistry -
 -------------------
 Temperature   298.150 Kelvin.  Pressure   1.00000 Atm.
 Atom     1 has atomic number  6 and mass  12.00000

 Molecular mass:    63.02348 amu.
 Principal axes and moments of inertia in atomic units:
                           1         2         3
     Eigenvalues --    37.38049 692.36512 729.74560
           X            0.96551  -0.26036   0.00000
           Y            0.26036   0.96551   0.00000
           Z           -0.00000   0.00000   1.00000
 This molecule is an asymmetric top.
 Rotational symmetry number  1.
 Rotational temperatures (Kelvin)      2.31709     0.12510     0.11869
 Rotational constants (GHZ):          48.28030     2.60663     2.47311
 Zero-point vibrational energy     129566.1 (Joules/Mol)
                                   30.96704 (Kcal/Mol)
 Warning -- explicit consideration of   6 degrees of freedom as
           vibrations may cause significant error
 Vibrational temperatures:    170.09   185.76   252.82   438.31   663.32
          (Kelvin)            850.99  1049.41  1083.64  1317.77  1441.33
                             1493.08  1697.02  2001.60  2654.46  3053.03
                             3831.57  4444.87  4537.33

 Zero-point correction=                           0.049349 (Hartree/Particle)
 Thermal correction to Energy=                    0.055337
 Thermal correction to Enthalpy=                  0.056281
 Thermal correction to Gibbs Free Energy=         0.020103
 Sum of electronic and zero-point Energies=           -191.187385
 Sum of electronic and thermal Energies=              -191.181397
 Sum of electronic and thermal Enthalpies=            -191.180453
 Sum of electronic and thermal Free Energies=         -191.216631

                     E (Thermal)             CV                S
                      KCal/Mol        Cal/Mol-Kelvin    Cal/Mol-Kelvin
 Total                   34.724             18.798             76.144
 Electronic               0.000              0.000              1.377
 Translational            0.889              2.981             38.342
 Rotational               0.889              2.981             24.450
 Vibrational             32.947             12.836             11.975
 Vibration     1          0.608              1.934              3.129
 Vibration     2          0.612              1.924              2.959
 Vibration     3          0.628              1.872              2.373
 Vibration     4          0.696              1.665              1.391
 Vibration     5          0.819              1.336              0.763
 Vibration     6          0.949              1.050              0.465

 Optimization completed.
    -- Stationary point found.
 Normal termination of Gaussian 09 at Sun Jun 19 12:03:52 2016.
