 Gaussian 09, Revision E.01,
 Gaussian 09:  EM64L-G09RevE.01 30-Nov-2015

 ------------------------------------------------------
 #p b3lyp/6-311++G(3df,2p) freq IOp(2/17=3) IOp(2/18=3)
 ------------------------------------------------------

 ---------
 b3lyp opt
 ---------
 Symbolic Z-matrix:
 Charge =  2 Multiplicity = 4

                         Standard orientation:
 ---------------------------------------------------------------------
 Center     Atomic      Atomic             Coordinates (Angstroms)
 Number     Number       Type             X           Y           Z
 ---------------------------------------------------------------------
      1          6           0       -1.126168    0.130945    0.000000
      2          1           0       -1.716626    0.294625   -0.921822
      3          1           0       -1.716626    0.294625    0.921822
      4          6           0       -0.493305   -1.250202    0.000000
      5          6           0        0.757985   -0.847609    0.000000
      6          6           0        0.127438    1.125417    0.000000
      7          1           0        0.000000    2.217495    0.000000
      8          6           0        1.306234    0.373657    0.000000
 ---------------------------------------------------------------------

 SCF Done:  E(UB3LYP) =  -191.160219901     A.U. after   16 cycles

 The electronic state is 4-A".
 Alpha  occ. eigenvalues --  -10.81868 -10.80315 -10.78756 -10.77912 -10.72025
 Alpha  occ. eigenvalues --   -1.45904  -1.28976  -1.22714  -1.10056  -1.00669
 Alpha  occ. eigenvalues --   -0.98216  -0.96648  -0.91175  -0.86227  -0.84091
 Alpha  occ. eigenvalues --   -0.81770  -0.78846
 Alpha virt. eigenvalues --   -0.63348  -0.57990  -0.45273  -0.34653  -0.33363
 Alpha virt. eigenvalues --   -0.30684  -0.29570  -0.29451  -0.27140  -0.25426
 Alpha virt. eigenvalues --   -0.24747  -0.24032  -0.23823  -0.21567  -0.19541

  Beta  occ. eigenvalues --  -10.81624 -10.77799 -10.77002 -10.76707 -10.71865
  Beta  occ. eigenvalues --   -1.42539  -1.24691  -1.20749  -1.07939  -0.99032
  Beta  occ. eigenvalues --   -0.94127  -0.92419  -0.89321  -0.84303
  Beta virt. eigenvalues --   -0.69133  -0.66627  -0.62452  -0.58613  -0.51783
  Beta virt. eigenvalues --   -0.39986  -0.34367  -0.31282  -0.29279  -0.29001
  Beta virt. eigenvalues --   -0.28237  -0.26384  -0.24613  -0.24106  -0.23517

 Mulliken charges and spin densities:
               1          2
     1  C   -0.416714   0.009931
     2  H    0.279935   0.013952
     3  H    0.279935   0.013952
     4  C    0.402523   1.407261
     5  C    0.749382  -0.169643
     6  C    0.061589   0.521330
     7  H    0.319340   0.025932
     8  C    0.324011   1.177284
 Sum of Mulliken charges =   2.00000   3.00000

 Dipole moment (field-independent basis, Debye):
    X=             -0.4748    Y=              0.5899    Z=             -0.0000  Tot=              0.7573
 Quadrupole moment (field-independent basis, Debye-Ang):
   XX=            -10.9196   YY=             -9.4457   ZZ=            -22.3634
   XY=             -0.9575   XZ=              0.0000   YZ=              0.0000

  Exact polarizability:  47.674   1.446  47.179   0.000  -0.000  26.169
 Approx polarizability:  95.440   4.200  95.266   0.000  -0.000  38.852

                      1                      2                      3
                     A"                     A"                     A'
 Frequencies --    330.1328               409.9952               514.4112
 Red. masses --      2.0602                 7.7099                 6.9708
 Frc consts  --      0.1323                 0.7636                 1.0868
 IR Inten    --      0.2143                 0.0120                 7.7725

                      4                      5                      6
                     A'                     A"                     A'
 Frequencies --    543.3349               688.2610               706.0461
 Red. masses --     10.7327                 1.2207                 5.4644
 Frc consts  --      1.8668                 0.3407                 1.6049
 IR Inten    --     12.0840                38.8177                 0.4845

                      7                      8                      9
                     A"                     A'                     A'
 Frequencies --    870.9197               884.6952              1068.8081
 Red. masses --      1.7452                 5.7387                 1.1383
 Frc consts  --      0.7799                 2.6464                 0.7662
 IR Inten    --      0.1101                 1.5362                23.5312

                     10                     11                     12
                     A"                     A'                     A'
 Frequencies --   1086.0843              1144.3824              1235.4157
 Red. masses --      1.0960                 1.6953                 2.1446
 Frc consts  --      0.7617                 1.3081                 1.9285
 IR Inten    --      1.8570                16.6223                20.3782

                     13                     14                     15
                     A'                     A'                     A'
 Frequencies --   1301.0562              1309.3134              1541.3551
 Red. masses --      4.9229                 1.5962                 7.8986
 Frc consts  --      4.9098                 1.6122                11.0562
 IR Inten    --     54.2488                25.4602                 0.4157

                     16                     17                     18
                     A'                     A"                     A'
 Frequencies --   2896.6320              2962.9915              3029.2010
 Red. masses --      1.0508                 1.1079                 1.0924
 Frc consts  --      5.1946                 5.7306                 5.9058
 IR Inten    --    247.4635               170.1303               267.6983

 - Thermochemistry -
 -------------------
 Temperature   298.150 Kelvin.  Pressure   1.00000 Atm.
 Atom     1 has atomic number  6 and mass  12.00000

 Molecular mass:    63.02348 amu.
 Principal axes and moments of inertia in atomic units:
                           1         2         3
     Eigenvalues --   169.40485 203.23526 360.40699
           X            0.77798  -0.62829   0.00000
           Y            0.62829   0.77798   0.00000
           Z            0.00000   0.00000   1.00000
 This molecule is an asymmetric top.
 Rotational symmetry number  1.
 Rotational temperatures (Kelvin)      0.51128     0.42618     0.24032
 Rotational constants (GHZ):          10.65342     8.88006     5.00751
 Zero-point vibrational energy     134717.7 (Joules/Mol)
                                   32.19830 (Kcal/Mol)
 Warning -- explicit consideration of   4 degrees of freedom as
           vibrations may cause significant error
 Vibrational temperatures:    474.99   589.89   740.12   781.74   990.25
          (Kelvin)           1015.84  1253.06  1272.88  1537.77  1562.63
                             1646.51  1777.49  1871.93  1883.81  2217.66
                             4167.60  4263.08  4358.34

 Zero-point correction=                           0.051311 (Hartree/Particle)
 Thermal correction to Energy=                    0.055696
 Thermal correction to Enthalpy=                  0.056640
 Thermal correction to Gibbs Free Energy=         0.023520
 Sum of electronic and zero-point Energies=           -191.108909
 Sum of electronic and thermal Energies=              -191.104524
 Sum of electronic and thermal Enthalpies=            -191.103579
 Sum of electronic and thermal Free Energies=         -191.136700

                     E (Thermal)             CV                S
                      KCal/Mol        Cal/Mol-Kelvin    Cal/Mol-Kelvin
 Total                   34.950             15.513             69.709
 Electronic               0.000              0.000              2.755
 Translational            0.889              2.981             38.342
 Rotational               0.889              2.981             24.032
 Vibrational             33.172              9.551              4.580
 Vibration     1          0.713              1.615              1.259
 Vibration     2          0.774              1.449              0.927
 Vibration     3          0.869              1.218              0.623
 Vibration     4          0.898              1.154              0.558

 Optimization completed.
    -- Stationary point found.
 Normal termination of Gaussian 09 at Thu Jan 31 06:02:20 2019.
