 Gaussian 09, Revision E.01,
 Gaussian 09:  EM64L-G09RevE.01 30-Nov-2015

 ---------------------------------------------
 #p b3lyp/6-311++G(3df,2p) freq symmetry=Loose
 ---------------------------------------------

 ---------
 b3lyp opt
 ---------
 Symbolic Z-matrix:
 Charge =  1 Multiplicity = 1

                         Standard orientation:
 ---------------------------------------------------------------------
 Center     Atomic      Atomic             Coordinates (Angstroms)
 Number     Number       Type             X           Y           Z
 ---------------------------------------------------------------------
      1          1           0       -3.258075   -0.922326    0.000000
      2          6           0        1.209209    0.084577   -0.000000
      3          6           0       -1.209291    0.084791   -0.000000
      4          6           0       -0.000000    0.729688   -0.000000
      5          1           0        0.000071    1.820814   -0.000000
      6          6           0       -2.298977   -0.447604    0.000000
      7          6           0        2.299037   -0.447497    0.000000
      8          1           0        3.258142   -0.922220    0.000000
 ---------------------------------------------------------------------

 SCF Done:  E(RB3LYP) =  -191.927922498     A.U. after   14 cycles

 The electronic state is 1-A'.
 Alpha  occ. eigenvalues --  -10.50395 -10.44622 -10.44620 -10.42420 -10.42419
 Alpha  occ. eigenvalues --   -1.07375  -1.00359  -0.95299  -0.81638  -0.76129
 Alpha  occ. eigenvalues --   -0.73944  -0.73022  -0.60437  -0.52564  -0.52543
 Alpha  occ. eigenvalues --   -0.52273
 Alpha virt. eigenvalues --   -0.37975  -0.21434  -0.18921  -0.18170  -0.14882
 Alpha virt. eigenvalues --   -0.11698  -0.11214  -0.11202  -0.10258  -0.09267
 Alpha virt. eigenvalues --   -0.08003  -0.06560  -0.04963  -0.04961  -0.04735

 Mulliken charges:
               1
     1  H    0.373618
     2  C   -0.092517
     3  C   -0.092622
     4  C   -0.798563
     5  H    0.229596
     6  C    0.503650
     7  C    0.503229
     8  H    0.373610
 Sum of Mulliken charges =   1.00000

 Dipole moment (field-independent basis, Debye):
    X=             -0.0001    Y=             -0.1894    Z=             -0.0000  Tot=              0.1894
 Quadrupole moment (field-independent basis, Debye-Ang):
   XX=              2.8471   YY=            -21.7631   ZZ=            -26.9191
   XY=              0.0006   XZ=             -0.0000   YZ=              0.0000

  Exact polarizability: 109.574  -0.002  40.253   0.002   0.001  28.843
 Approx polarizability: 238.828   0.008  65.968   0.000  -0.000  40.796

                      1                      2                      3
                     A'                     A"                     A"
 Frequencies --    138.1528               278.0955               288.8642
 Red. masses --      4.0925                 2.3357                 4.4094
 Frc consts  --      0.0460                 0.1064                 0.2168
 IR Inten    --      4.2926                35.9300                 0.0000

                      4                      5                      6
                     A'                     A'                     A'
 Frequencies --    322.2927               597.3243               686.9783
 Red. masses --      4.9538                 7.9141                 1.2409
 Frc consts  --      0.3032                 1.6637                 0.3450
 IR Inten    --      4.7462                13.0219                15.6384

                      7                      8                      9
                     A'                     A"                     A"
 Frequencies --    688.8520               845.2359               845.8966
 Red. masses --      1.2555                 1.3464                 1.3249
 Frc consts  --      0.3510                 0.5667                 0.5585
 IR Inten    --     70.0877                 0.0095                25.4048

                     10                     11                     12
                     A"                     A'                     A'
 Frequencies --    937.2125               992.3468              1169.5107
 Red. masses --      1.7810                 6.4714                 1.6071
 Frc consts  --      0.9217                 3.7547                 1.2951
 IR Inten    --      1.5125                14.5511                61.8380

                     13                     14                     15
                     A'                     A'                     A'
 Frequencies --   1427.8643              2143.3085              2181.5904
 Red. masses --      2.4224                 6.2960                 6.0636
 Frc consts  --      2.9099                17.0406                17.0031
 IR Inten    --     33.5999              1128.6673                52.2466

                     16                     17                     18
                     A'                     A'                     A'
 Frequencies --   3101.5224              3391.1680              3392.3457
 Red. masses --      1.0877                 1.1613                 1.1622
 Frc consts  --      6.1649                 7.8686                 7.8798
 IR Inten    --     28.5524               163.5447                36.3915

 - Thermochemistry -
 -------------------
 Temperature   298.150 Kelvin.  Pressure   1.00000 Atm.
 Atom     1 has atomic number  1 and mass   1.00783

 Molecular mass:    63.02348 amu.
 Principal axes and moments of inertia in atomic units:
                           1         2         3
     Eigenvalues --    58.65284 654.72589 713.37873
           X            1.00000   0.00000   0.00000
           Y           -0.00000   1.00000   0.00000
           Z            0.00000  -0.00000   1.00000
 This molecule is an asymmetric top.
 Rotational symmetry number  1.
 Rotational temperatures (Kelvin)      1.47672     0.13229     0.12141
 Rotational constants (GHZ):          30.76989     2.75648     2.52985
 Zero-point vibrational energy     140133.9 (Joules/Mol)
                                   33.49281 (Kcal/Mol)
 Warning -- explicit consideration of   5 degrees of freedom as
           vibrations may cause significant error
 Vibrational temperatures:    198.77   400.12   415.61   463.71   859.42
          (Kelvin)            988.41   991.10  1216.10  1217.05  1348.44
                             1427.76  1682.66  2054.38  3083.74  3138.82
                             4462.39  4879.13  4880.82

 Zero-point correction=                           0.053374 (Hartree/Particle)
 Thermal correction to Energy=                    0.058787
 Thermal correction to Enthalpy=                  0.059731
 Thermal correction to Gibbs Free Energy=         0.025503
 Sum of electronic and zero-point Energies=           -191.874548
 Sum of electronic and thermal Energies=              -191.869136
 Sum of electronic and thermal Enthalpies=            -191.868192
 Sum of electronic and thermal Free Energies=         -191.902419

                     E (Thermal)             CV                S
                      KCal/Mol        Cal/Mol-Kelvin    Cal/Mol-Kelvin
 Total                   36.889             17.987             72.038
 Electronic               0.000              0.000              0.000
 Translational            0.889              2.981             38.342
 Rotational               0.889              2.981             24.819
 Vibrational             35.112             12.026              8.877
 Vibration     1          0.614              1.915              2.829
 Vibration     2          0.679              1.714              1.545
 Vibration     3          0.685              1.694              1.481
 Vibration     4          0.707              1.631              1.298
 Vibration     5          0.955              1.037              0.454

 Optimization completed.
    -- Stationary point found.
 Normal termination of Gaussian 09 at Tue Jul 19 15:58:35 2016.
