 Gaussian 09, Revision E.01,
 Gaussian 09:  EM64L-G09RevE.01 30-Nov-2015

 ---------------------------------------------
 #p b3lyp/6-311++G(3df,2p) freq symmetry=Loose
 ---------------------------------------------

 ---------
 b3lyp opt
 ---------
 Symbolic Z-matrix:
 Charge =  0 Multiplicity = 2

                         Standard orientation:
 ---------------------------------------------------------------------
 Center     Atomic      Atomic             Coordinates (Angstroms)
 Number     Number       Type             X           Y           Z
 ---------------------------------------------------------------------
      1          6           0       -0.561636   -0.275566    0.873239
      2          6           0        0.072064    0.856541    0.000000
      3          1           0       -0.438594    1.818776    0.000000
      4          6           0        1.451058    0.851005    0.000000
      5          1           0        2.233462    1.592007    0.000000
      6          6           0       -0.561636   -0.275566   -0.873239
      7          6           0       -0.561636   -1.329713   -0.000000
      8          1           0       -0.824163   -2.370995   -0.000000
 ---------------------------------------------------------------------

 SCF Done:  E(UB3LYP) =  -192.061715871     A.U. after   21 cycles

 The electronic state is 2-A'.
 Alpha  occ. eigenvalues --  -10.24516 -10.23930 -10.23924 -10.22720 -10.21940
 Alpha  occ. eigenvalues --   -0.95238  -0.78250  -0.64456  -0.56678  -0.55939
 Alpha  occ. eigenvalues --   -0.50533  -0.44406  -0.41811  -0.35064  -0.28848
 Alpha  occ. eigenvalues --   -0.27089  -0.23299
 Alpha virt. eigenvalues --   -0.08385  -0.03584  -0.02766  -0.00104   0.00746
 Alpha virt. eigenvalues --    0.01937   0.04325   0.05640   0.06831   0.07574
 Alpha virt. eigenvalues --    0.08297   0.09137   0.10123   0.10370   0.11033

  Beta  occ. eigenvalues --  -10.24702 -10.24220 -10.24216 -10.22689 -10.19732
  Beta  occ. eigenvalues --   -0.95439  -0.76404  -0.62179  -0.57529  -0.54676
  Beta  occ. eigenvalues --   -0.49508  -0.43513  -0.41499  -0.35880  -0.30011
  Beta  occ. eigenvalues --   -0.21548
  Beta virt. eigenvalues --   -0.10047  -0.07356  -0.03787  -0.03156   0.00010
  Beta virt. eigenvalues --    0.00777   0.02054   0.04545   0.05646   0.07089
  Beta virt. eigenvalues --    0.07853   0.09055   0.09222   0.10268   0.10527

 Mulliken charges and spin densities:
               1          2
     1  C   -0.290974  -0.232931
     2  C    0.259828  -0.217091
     3  H    0.189894   0.054680
     4  C   -0.500524   1.569506
     5  H    0.201982   0.014074
     6  C   -0.290974  -0.232931
     7  C    0.171210   0.047553
     8  H    0.259559  -0.002860
 Sum of Mulliken charges =  -0.00000   1.00000

 Dipole moment (field-independent basis, Debye):
    X=              0.4588    Y=             -0.0689    Z=              0.0000  Tot=              0.4639
 Quadrupole moment (field-independent basis, Debye-Ang):
   XX=            -29.9722   YY=            -22.6256   ZZ=            -35.4803
   XY=              2.4883   XZ=             -0.0000   YZ=             -0.0000

  Exact polarizability:  69.637  17.596  60.805  -0.000  -0.000  55.968
 Approx polarizability: 128.731  35.319  96.973   0.000   0.000 112.153

                      1                      2                      3
                     A'                     A"                     A"
 Frequencies --    250.7008               349.3561               386.5970
 Red. masses --      3.5409                 1.9112                 2.0322
 Frc consts  --      0.1311                 0.1374                 0.1789
 IR Inten    --     21.5632                 1.0146                89.0006

                      4                      5                      6
                     A"                     A'                     A'
 Frequencies --    496.1815               591.3868               688.8981
 Red. masses --      7.0704                 4.6924                 3.2643
 Frc consts  --      1.0256                 0.9669                 0.9128
 IR Inten    --      4.4024                 8.4606                34.3950

                      7                      8                      9
                     A'                     A'                     A'
 Frequencies --    791.0009               872.8090               954.1597
 Red. masses --      2.8009                 1.3207                 2.2282
 Frc consts  --      1.0325                 0.5928                 1.1952
 IR Inten    --     55.7266                11.1666                10.1468

                     10                     11                     12
                     A"                     A"                     A'
 Frequencies --   1018.7081              1046.6071              1201.6036
 Red. masses --      1.2154                 1.4150                 2.2584
 Frc consts  --      0.7431                 0.9132                 1.9212
 IR Inten    --      8.6415                10.6642                12.4477

                     13                     14                     15
                     A"                     A'                     A'
 Frequencies --   1209.5450              1299.6929              1500.0170
 Red. masses --      3.7433                 1.9663                 7.0180
 Frc consts  --      3.2267                 1.9570                 9.3037
 IR Inten    --      0.0629                 5.6557                 1.1939

                     16                     17                     18
                     A'                     A'                     A'
 Frequencies --   3079.2680              3239.9976              3284.2060
 Red. masses --      1.0841                 1.0944                 1.1074
 Frc consts  --      6.0563                 6.7686                 7.0374
 IR Inten    --      1.8763                 4.6946                 1.4840

 - Thermochemistry -
 -------------------
 Temperature   298.150 Kelvin.  Pressure   1.00000 Atm.
 Atom     1 has atomic number  6 and mass  12.00000

 Molecular mass:    63.02348 amu.
 Principal axes and moments of inertia in atomic units:
                           1         2         3
     Eigenvalues --   115.40366 337.99180 353.29710
           X            0.65478   0.00000   0.75582
           Y            0.75582   0.00000  -0.65478
           Z           -0.00000   1.00000  -0.00000
 This molecule is an asymmetric top.
 Rotational symmetry number  1.
 Rotational temperatures (Kelvin)      0.75053     0.25626     0.24516
 Rotational constants (GHZ):          15.63851     5.33960     5.10828
 Zero-point vibrational energy     133148.8 (Joules/Mol)
                                   31.82332 (Kcal/Mol)
 Warning -- explicit consideration of   5 degrees of freedom as
           vibrations may cause significant error
 Vibrational temperatures:    360.70   502.64   556.23   713.89   850.87
          (Kelvin)            991.17  1138.07  1255.78  1372.82  1465.69
                             1505.83  1728.84  1740.26  1869.97  2158.19
                             4430.37  4661.63  4725.23

 Zero-point correction=                           0.050714 (Hartree/Particle)
 Thermal correction to Energy=                    0.055524
 Thermal correction to Enthalpy=                  0.056468
 Thermal correction to Gibbs Free Energy=         0.023217
 Sum of electronic and zero-point Energies=           -192.011002
 Sum of electronic and thermal Energies=              -192.006192
 Sum of electronic and thermal Enthalpies=            -192.005248
 Sum of electronic and thermal Free Energies=         -192.038499

                     E (Thermal)             CV                S
                      KCal/Mol        Cal/Mol-Kelvin    Cal/Mol-Kelvin
 Total                   34.842             16.904             69.983
 Electronic               0.000              0.000              1.377
 Translational            0.889              2.981             38.342
 Rotational               0.889              2.981             24.137
 Vibrational             33.064             10.942              6.127
 Vibration     1          0.663              1.762              1.726
 Vibration     2          0.727              1.577              1.169
 Vibration     3          0.755              1.499              1.013
 Vibration     4          0.852              1.258              0.668
 Vibration     5          0.949              1.050              0.465

 Optimization completed.
    -- Stationary point found.
 Normal termination of Gaussian 09 at Tue Jul 19 12:05:46 2016.
