 Gaussian 09, Revision E.01,
 Gaussian 09:  EM64L-G09RevE.01 30-Nov-2015

 ---------------------------------------------
 #p b3lyp/6-311++G(3df,2p) freq symmetry=Loose
 ---------------------------------------------

 ---------
 b3lyp opt
 ---------
 Symbolic Z-matrix:
 Charge =  1 Multiplicity = 1

                         Standard orientation:
 ---------------------------------------------------------------------
 Center     Atomic      Atomic             Coordinates (Angstroms)
 Number     Number       Type             X           Y           Z
 ---------------------------------------------------------------------
      1          6           0       -0.656681   -0.458952    0.390103
      2          6           0        0.445282    1.160833    0.304888
      3          1           0       -0.759370   -0.939708    1.355191
      4          6           0        0.741240   -0.146779   -0.024266
      5          6           0        2.005226   -0.420282   -0.321180
      6          6           0       -1.696034   -0.026961   -0.356326
      7          1           0       -1.563591    0.527081   -1.277622
      8          1           0       -2.711240   -0.234523   -0.036882
 ---------------------------------------------------------------------

 SCF Done:  E(RB3LYP) =  -191.748042256     A.U. after   13 cycles

 The electronic state is 1-A.
 Alpha  occ. eigenvalues --  -10.55627 -10.54558 -10.48342 -10.46816 -10.46615
 Alpha  occ. eigenvalues --   -1.15596  -1.03160  -0.93021  -0.84732  -0.75103
 Alpha  occ. eigenvalues --   -0.71814  -0.64908  -0.60399  -0.58573  -0.56057
 Alpha  occ. eigenvalues --   -0.54890
 Alpha virt. eigenvalues --   -0.38307  -0.36952  -0.33432  -0.23344  -0.21070
 Alpha virt. eigenvalues --   -0.15057  -0.13782  -0.12277  -0.10283  -0.08672
 Alpha virt. eigenvalues --   -0.07474  -0.07085  -0.06416  -0.05658  -0.05229

 Mulliken charges:
               1
     1  C   -0.208205
     2  C   -0.242430
     3  H    0.222059
     4  C    1.056063
     5  C   -0.010737
     6  C   -0.284739
     7  H    0.244188
     8  H    0.223800
 Sum of Mulliken charges =   1.00000

 Dipole moment (field-independent basis, Debye):
    X=             -2.2203    Y=             -0.9916    Z=             -0.0298  Tot=              2.4319
 Quadrupole moment (field-independent basis, Debye-Ang):
   XX=            -16.3718   YY=            -26.2961   ZZ=            -24.0580
   XY=              0.5261   XZ=              1.1375   YZ=             -2.0905

  Exact polarizability:  76.294  -0.761  45.074   0.424   0.891  37.971
 Approx polarizability: 144.204  -9.605  95.084  -1.716   9.031  62.743

                      1                      2                      3
                      A                      A                      A
 Frequencies --     90.3215               134.6548               213.2101
 Red. masses --      9.1575                 4.5581                 4.6589
 Frc consts  --      0.0440                 0.0487                 0.1248
 IR Inten    --     15.9635                 4.7755                 2.9063

                      4                      5                      6
                      A                      A                      A
 Frequencies --    336.9240               474.7643               615.8989
 Red. masses --      4.0042                 3.9098                 1.3624
 Frc consts  --      0.2678                 0.5192                 0.3045
 IR Inten    --     38.5234                 0.1716                20.9106

                      7                      8                      9
                      A                      A                      A
 Frequencies --    776.3695               980.3924              1055.5820
 Red. masses --      3.7915                 1.1524                 1.4270
 Frc consts  --      1.3465                 0.6526                 0.9368
 IR Inten    --     34.4037                17.5234                10.1832

                     10                     11                     12
                      A                      A                      A
 Frequencies --   1093.8663              1215.1521              1314.6190
 Red. masses --      1.3398                 4.1858                 1.4766
 Frc consts  --      0.9446                 3.6415                 1.5036
 IR Inten    --     20.8735                46.1968                41.9713

                     13                     14                     15
                      A                      A                      A
 Frequencies --   1407.4118              1573.3116              1698.2799
 Red. masses --      1.5265                 2.2812                11.6007
 Frc consts  --      1.7815                 3.3269                19.7130
 IR Inten    --     59.6419                40.1785               505.6528

                     16                     17                     18
                      A                      A                      A
 Frequencies --   3135.6467              3181.5750              3236.0440
 Red. masses --      1.0584                 1.0952                 1.1201
 Frc consts  --      6.1316                 6.5315                 6.9111
 IR Inten    --     26.3616                24.1027                25.4228

 - Thermochemistry -
 -------------------
 Temperature   298.150 Kelvin.  Pressure   1.00000 Atm.
 Atom     1 has atomic number  6 and mass  12.00000

 Molecular mass:    63.02348 amu.
 Principal axes and moments of inertia in atomic units:
                           1         2         3
     Eigenvalues --   112.47339 413.92724 462.68285
           X            0.99992   0.00848   0.00984
           Y           -0.00700   0.98986  -0.14185
           Z           -0.01095   0.14177   0.98984
 This molecule is an asymmetric top.
 Rotational symmetry number  1.
 Rotational temperatures (Kelvin)      0.77008     0.20925     0.18720
 Rotational constants (GHZ):          16.04594     4.36004     3.90060
 Zero-point vibrational energy     134783.4 (Joules/Mol)
                                   32.21400 (Kcal/Mol)
 Warning -- explicit consideration of   6 degrees of freedom as
           vibrations may cause significant error
 Vibrational temperatures:    129.95   193.74   306.76   484.76   683.08
          (Kelvin)            886.14  1117.02  1410.56  1518.75  1573.83
                             1748.33  1891.44  2024.95  2263.64  2443.44
                             4511.49  4577.57  4655.94

 Zero-point correction=                           0.051336 (Hartree/Particle)
 Thermal correction to Energy=                    0.057124
 Thermal correction to Enthalpy=                  0.058068
 Thermal correction to Gibbs Free Energy=         0.022715
 Sum of electronic and zero-point Energies=           -191.696706
 Sum of electronic and thermal Energies=              -191.690919
 Sum of electronic and thermal Enthalpies=            -191.689975
 Sum of electronic and thermal Free Energies=         -191.725328

                     E (Thermal)             CV                S
                      KCal/Mol        Cal/Mol-Kelvin    Cal/Mol-Kelvin
 Total                   35.846             17.793             74.407
 Electronic               0.000              0.000              0.000
 Translational            0.889              2.981             38.342
 Rotational               0.889              2.981             24.580
 Vibrational             34.068             11.831             11.485
 Vibration     1          0.602              1.956              3.653
 Vibration     2          0.613              1.919              2.878
 Vibration     3          0.644              1.821              2.016
 Vibration     4          0.718              1.602              1.227
 Vibration     5          0.831              1.306              0.724
 Vibration     6          0.975              0.998              0.423

 Optimization completed.
    -- Stationary point found.
 Normal termination of Gaussian 09 at Sun Jun 19 10:05:13 2016.
