 Gaussian 09, Revision E.01,
 Gaussian 09:  EM64L-G09RevE.01 30-Nov-2015

 ---------------------------------------------
 #p b3lyp/6-311++G(3df,2p) freq symmetry=Loose
 ---------------------------------------------

 ---------
 b3lyp opt
 ---------
 Symbolic Z-matrix:
 Charge =  0 Multiplicity = 2

                         Standard orientation:
 ---------------------------------------------------------------------
 Center     Atomic      Atomic             Coordinates (Angstroms)
 Number     Number       Type             X           Y           Z
 ---------------------------------------------------------------------
      1          6           0       -0.000000   -1.220679    0.091136
      2          6           0        0.000000   -2.300159   -0.459736
      3          1           0        0.000000   -3.242611   -0.948707
      4          6           0        0.000000    1.220679    0.091136
      5          6           0        0.000000    2.300159   -0.459736
      6          1           0        0.000000    3.242611   -0.948707
      7          6           0       -0.000000   -0.000000    0.747992
      8          1           0       -0.000000   -0.000000    1.832653
 ---------------------------------------------------------------------

 SCF Done:  E(UB3LYP) =  -192.227395794     A.U. after   15 cycles

 The electronic state is 2-B1.
 Alpha  occ. eigenvalues --  -10.22891 -10.19517 -10.19515 -10.19092 -10.19091
 Alpha  occ. eigenvalues --   -0.83224  -0.77120  -0.72192  -0.58219  -0.54358
 Alpha  occ. eigenvalues --   -0.51061  -0.49389  -0.38356  -0.31398  -0.30108
 Alpha  occ. eigenvalues --   -0.29757  -0.21897
 Alpha virt. eigenvalues --   -0.01051   0.00101   0.00763   0.01474   0.02351
 Alpha virt. eigenvalues --    0.02621   0.04751   0.05120   0.05562   0.08117
 Alpha virt. eigenvalues --    0.09043   0.09433   0.09564   0.09988   0.10169

  Beta  occ. eigenvalues --  -10.21994 -10.19767 -10.19765 -10.18541 -10.18540
  Beta  occ. eigenvalues --   -0.82125  -0.76389  -0.70419  -0.57641  -0.53810
  Beta  occ. eigenvalues --   -0.50669  -0.48936  -0.35563  -0.29876  -0.29494
  Beta  occ. eigenvalues --   -0.29195
  Beta virt. eigenvalues --   -0.12087  -0.00959   0.00152   0.00815   0.02413
  Beta virt. eigenvalues --    0.02463   0.02593   0.04837   0.05201   0.05589
  Beta virt. eigenvalues --    0.08283   0.09588   0.10078   0.10141   0.10609

 Mulliken charges and spin densities:
               1          2
     1  C   -0.338658  -0.170778
     2  C    0.395901   0.388475
     3  H    0.314739  -0.012282
     4  C   -0.338658  -0.170778
     5  C    0.395901   0.388475
     6  H    0.314739  -0.012282
     7  C   -0.903227   0.612370
     8  H    0.159264  -0.023199
 Sum of Mulliken charges =  -0.00000   1.00000

 Dipole moment (field-independent basis, Debye):
    X=              0.0000    Y=              0.0000    Z=             -0.0205  Tot=              0.0205
 Quadrupole moment (field-independent basis, Debye-Ang):
   XX=            -31.5560   YY=            -21.0495   ZZ=            -27.4003
   XY=              0.0000   XZ=             -0.0000   YZ=              0.0000

  Exact polarizability:  37.507  -0.000 110.304  -0.000   0.000  48.813
 Approx polarizability:  51.709   0.000 175.603  -0.000   0.000  75.665

                      1                      2                      3
                     A1                     B2                     B1
 Frequencies --    143.1339               353.2714               358.1965
 Red. masses --      4.0817                 4.7740                 2.1480
 Frc consts  --      0.0493                 0.3510                 0.1624
 IR Inten    --      1.7676                 2.5628                21.6138

                      4                      5                      6
                     A2                     A2                     B1
 Frequencies --    385.4338               557.8377               559.6945
 Red. masses --      5.1267                 1.2890                 1.2780
 Frc consts  --      0.4487                 0.2363                 0.2359
 IR Inten    --      0.0000                 0.0000                90.9112

                      7                      8                      9
                     A1                     B2                     A1
 Frequencies --    602.3870               668.4507               670.7024
 Red. masses --      7.2381                 1.2511                 1.2773
 Frc consts  --      1.5475                 0.3294                 0.3385
 IR Inten    --     11.9255                18.8440                65.9651

                     10                     11                     12
                     B1                     A1                     B2
 Frequencies --    689.8716               960.5633              1134.7822
 Red. masses --      1.9954                 6.6184                 1.9257
 Frc consts  --      0.5595                 3.5979                 1.4611
 IR Inten    --      8.3173                 6.3568                13.9614

                     13                     14                     15
                     B2                     B2                     A1
 Frequencies --   1379.1504              2029.6165              2116.9236
 Red. masses --      1.9643                 6.6479                 6.4286
 Frc consts  --      2.2013                16.1348                16.9737
 IR Inten    --     18.1880                16.4676                 0.2415

                     16                     17                     18
                     A1                     B2                     A1
 Frequencies --   3137.7831              3454.6908              3458.3816
 Red. masses --      1.0844                 1.1412                 1.1473
 Frc consts  --      6.2905                 8.0248                 8.0852
 IR Inten    --      0.0170               118.3483                22.3653

 - Thermochemistry -
 -------------------
 Temperature   298.150 Kelvin.  Pressure   1.00000 Atm.
 Atom     1 has atomic number  6 and mass  12.00000

 Molecular mass:    63.02348 amu.
 Principal axes and moments of inertia in atomic units:
                           1         2         3
     Eigenvalues --    61.36814 656.83508 718.20322
           X            0.00000   0.00000   1.00000
           Y            1.00000   0.00000  -0.00000
           Z            0.00000   1.00000   0.00000
 This molecule is an asymmetric top.
 Rotational symmetry number  2.
 Rotational temperatures (Kelvin)      1.41138     0.13187     0.12060
 Rotational constants (GHZ):          29.40844     2.74763     2.51286
 Zero-point vibrational energy     135542.1 (Joules/Mol)
                                   32.39534 (Kcal/Mol)
 Warning -- explicit consideration of   7 degrees of freedom as
           vibrations may cause significant error
 Vibrational temperatures:    205.94   508.28   515.36   554.55   802.60
          (Kelvin)            805.27   866.70   961.75   964.99   992.57
                             1382.03  1632.70  1984.29  2920.16  3045.78
                             4514.56  4970.52  4975.83

 Zero-point correction=                           0.051625 (Hartree/Particle)
 Thermal correction to Energy=                    0.057115
 Thermal correction to Enthalpy=                  0.058059
 Thermal correction to Gibbs Free Energy=         0.023866
 Sum of electronic and zero-point Energies=           -192.175771
 Sum of electronic and thermal Energies=              -192.170281
 Sum of electronic and thermal Enthalpies=            -192.169336
 Sum of electronic and thermal Free Energies=         -192.203530

                     E (Thermal)             CV                S
                      KCal/Mol        Cal/Mol-Kelvin    Cal/Mol-Kelvin
 Total                   35.840             19.200             71.967
 Electronic               0.000              0.000              1.377
 Translational            0.889              2.981             38.342
 Rotational               0.889              2.981             23.497
 Vibrational             34.063             13.238              8.751
 Vibration     1          0.616              1.910              2.762
 Vibration     2          0.729              1.569              1.152
 Vibration     3          0.733              1.558              1.130
 Vibration     4          0.754              1.501              1.018
 Vibration     5          0.913              1.123              0.528
 Vibration     6          0.915              1.119              0.524
 Vibration     7          0.961              1.027              0.446

 Optimization completed.
    -- Stationary point found.
 Normal termination of Gaussian 09 at Tue Jul 19 10:56:55 2016.
