 Gaussian 09, Revision E.01,
 Gaussian 09:  EM64L-G09RevE.01 30-Nov-2015

 ---------------------------------------------
 #p b3lyp/6-311++G(3df,2p) freq symmetry=Loose
 ---------------------------------------------

 ---------
 b3lyp opt
 ---------
 Symbolic Z-matrix:
 Charge =  2 Multiplicity = 2

                         Standard orientation:
 ---------------------------------------------------------------------
 Center     Atomic      Atomic             Coordinates (Angstroms)
 Number     Number       Type             X           Y           Z
 ---------------------------------------------------------------------
      1          1           0       -1.930542   -0.607198    0.924444
      2          6           0       -0.587553    0.907254   -0.000323
      3          6           0        1.421792   -0.381188   -0.000108
      4          1           0        2.423712   -0.817982    0.000760
      5          6           0        0.089291   -0.663407   -0.000506
      6          6           0        0.704680    0.828809    0.000324
      7          6           0       -1.388329   -0.352748    0.000216
      8          1           0       -1.932462   -0.607143   -0.922824
 ---------------------------------------------------------------------

 SCF Done:  E(UB3LYP) =  -191.250628749     A.U. after   16 cycles

 The electronic state is 2-A.
 Alpha  occ. eigenvalues --  -10.83294 -10.80514 -10.80341 -10.78940 -10.74657
 Alpha  occ. eigenvalues --   -1.54024  -1.33033  -1.22238  -1.06306  -1.01763
 Alpha  occ. eigenvalues --   -1.00044  -0.98575  -0.96228  -0.88704  -0.85045
 Alpha  occ. eigenvalues --   -0.77060
 Alpha virt. eigenvalues --   -0.61014  -0.58204  -0.48060  -0.46910  -0.39067
 Alpha virt. eigenvalues --   -0.34758  -0.32211  -0.28988  -0.28142  -0.27989
 Alpha virt. eigenvalues --   -0.25423  -0.24694  -0.23403  -0.23228  -0.21471

  Beta  occ. eigenvalues --  -10.82972 -10.80407 -10.79387 -10.78482 -10.74736
  Beta  occ. eigenvalues --   -1.52926  -1.32085  -1.20652  -1.05773  -1.01210
  Beta  occ. eigenvalues --   -0.98163  -0.97538  -0.95425  -0.87304  -0.84339
  Beta virt. eigenvalues --   -0.65638  -0.59946  -0.55808  -0.47635  -0.42734
  Beta virt. eigenvalues --   -0.38448  -0.34346  -0.31796  -0.28832  -0.28066
  Beta virt. eigenvalues --   -0.27720  -0.25315  -0.24364  -0.23180  -0.22788

 Mulliken charges and spin densities:
               1          2
     1  H    0.312369   0.003672
     2  C    0.288252   0.604697
     3  C    0.411025   0.282490
     4  H    0.384011  -0.009614
     5  C    0.321804   0.174283
     6  C    0.221044  -0.040045
     7  C   -0.250764  -0.019176
     8  H    0.312258   0.003692
 Sum of Mulliken charges =   2.00000   1.00000

 Dipole moment (field-independent basis, Debye):
    X=              0.1292    Y=             -0.9019    Z=              0.0016  Tot=              0.9111
 Quadrupole moment (field-independent basis, Debye-Ang):
   XX=             -1.3839   YY=            -17.4882   ZZ=            -21.9120
   XY=             -0.4094   XZ=              0.0012   YZ=             -0.0014

  Exact polarizability:  51.595  -0.811  35.951   0.002  -0.001  24.537
 Approx polarizability:  97.139  -2.509  77.805   0.011   0.005  36.953

                      1                      2                      3
                      A                      A                      A
 Frequencies --    224.1262               375.6646               490.3255
 Red. masses --      3.2216                 4.2360                 7.7867
 Frc consts  --      0.0953                 0.3522                 1.1030
 IR Inten    --     11.3326                 2.2104                 7.8079

                      4                      5                      6
                      A                      A                      A
 Frequencies --    555.5092               655.0667               753.2924
 Red. masses --      7.1868                 8.1330                 1.2348
 Frc consts  --      1.3067                 2.0562                 0.4128
 IR Inten    --     11.9062                13.2045                15.2857

                      7                      8                      9
                      A                      A                      A
 Frequencies --    894.4198               997.5102              1011.9828
 Red. masses --      1.4926                 3.2262                 1.1387
 Frc consts  --      0.7035                 1.8913                 0.6870
 IR Inten    --      6.8398                 0.0739                 0.1651

                     10                     11                     12
                      A                      A                      A
 Frequencies --   1043.0375              1097.8644              1125.9449
 Red. masses --      1.4960                 8.7538                 1.2142
 Frc consts  --      0.9590                 6.2165                 0.9069
 IR Inten    --     33.5538                 0.3837                19.6876

                     13                     14                     15
                      A                      A                      A
 Frequencies --   1335.2103              1521.4078              1709.9546
 Red. masses --      1.0991                 6.1286                10.1584
 Frc consts  --      1.1545                 8.3580                17.5003
 IR Inten    --     54.7035               102.6381                67.0632

                     16                     17                     18
                      A                      A                      A
 Frequencies --   2965.7467              3036.1840              3135.4958
 Red. masses --      1.0527                 1.1149                 1.1225
 Frc consts  --      5.4553                 6.0556                 6.5019
 IR Inten    --    280.2554               172.1817               247.3159

 - Thermochemistry -
 -------------------
 Temperature   298.150 Kelvin.  Pressure   1.00000 Atm.
 Atom     1 has atomic number  1 and mass   1.00783

 Molecular mass:    63.02348 amu.
 Principal axes and moments of inertia in atomic units:
                           1         2         3
     Eigenvalues --   106.08618 259.67265 353.47753
           X            0.99996   0.00944   0.00001
           Y           -0.00944   0.99996  -0.00007
           Z           -0.00001   0.00007   1.00000
 This molecule is an asymmetric top.
 Rotational symmetry number  1.
 Rotational temperatures (Kelvin)      0.81645     0.33355     0.24503
 Rotational constants (GHZ):          17.01203     6.95006     5.10567
 Zero-point vibrational energy     137144.3 (Joules/Mol)
                                   32.77828 (Kcal/Mol)
 Warning -- explicit consideration of   4 degrees of freedom as
           vibrations may cause significant error
 Vibrational temperatures:    322.47   540.50   705.47   799.25   942.49
          (Kelvin)           1083.82  1286.87  1435.19  1456.02  1500.70
                             1579.58  1619.98  1921.07  2188.96  2460.24
                             4267.04  4368.39  4511.27

 Zero-point correction=                           0.052236 (Hartree/Particle)
 Thermal correction to Energy=                    0.056791
 Thermal correction to Enthalpy=                  0.057735
 Thermal correction to Gibbs Free Energy=         0.025006
 Sum of electronic and zero-point Energies=           -191.198393
 Sum of electronic and thermal Energies=              -191.193838
 Sum of electronic and thermal Enthalpies=            -191.192894
 Sum of electronic and thermal Free Energies=         -191.225623

                     E (Thermal)             CV                S
                      KCal/Mol        Cal/Mol-Kelvin    Cal/Mol-Kelvin
 Total                   35.637             15.697             68.885
 Electronic               0.000              0.000              1.377
 Translational            0.889              2.981             38.342
 Rotational               0.889              2.981             23.791
 Vibrational             33.859              9.736              5.374
 Vibration     1          0.649              1.804              1.926
 Vibration     2          0.747              1.522              1.057
 Vibration     3          0.846              1.271              0.683
 Vibration     4          0.911              1.128              0.533

 Optimization completed.
    -- Stationary point found.
 Normal termination of Gaussian 09 at Sun Jun 19 12:06:38 2016.
