 Gaussian 09, Revision E.01,
 Gaussian 09:  EM64L-G09RevE.01 30-Nov-2015

 ---------------------------------------------
 #p b3lyp/6-311++G(3df,2p) freq symmetry=Loose
 ---------------------------------------------

 ---------
 b3lyp opt
 ---------
 Symbolic Z-matrix:
 Charge =  0 Multiplicity = 4

                         Standard orientation:
 ---------------------------------------------------------------------
 Center     Atomic      Atomic             Coordinates (Angstroms)
 Number     Number       Type             X           Y           Z
 ---------------------------------------------------------------------
      1          6           0        0.306279   -1.080325    0.014545
      2          6           0        0.489242    0.977544    0.006877
      3          1           0        0.496861    1.559476    0.927058
      4          1           0        0.578240    1.614868   -0.873344
      5          6           0        1.391277   -0.260526    0.013415
      6          1           0        2.459834   -0.400099   -0.027804
      7          6           0       -0.695834   -0.080709   -0.064391
      8          6           0       -2.080120   -0.018358    0.025235
 ---------------------------------------------------------------------

 SCF Done:  E(UB3LYP) =  -192.039750781     A.U. after   20 cycles

 The electronic state is 4-A.
 Alpha  occ. eigenvalues --  -10.25406 -10.24885 -10.24012 -10.23035 -10.21002
 Alpha  occ. eigenvalues --   -0.93469  -0.75682  -0.69802  -0.63074  -0.49262
 Alpha  occ. eigenvalues --   -0.48804  -0.47777  -0.43318  -0.35556  -0.30280
 Alpha  occ. eigenvalues --   -0.29272  -0.27925  -0.20367
 Alpha virt. eigenvalues --   -0.08087  -0.01535   0.00358   0.00811   0.02916
 Alpha virt. eigenvalues --    0.03535   0.05750   0.05874   0.06651   0.07263
 Alpha virt. eigenvalues --    0.08096   0.09250   0.09908   0.10937   0.11921

  Beta  occ. eigenvalues --  -10.24695 -10.23460 -10.23392 -10.22658 -10.19172
  Beta  occ. eigenvalues --   -0.91041  -0.71448  -0.68042  -0.60299  -0.47943
  Beta  occ. eigenvalues --   -0.45656  -0.45005  -0.41043  -0.32664  -0.26325
  Beta virt. eigenvalues --   -0.17756  -0.13625  -0.05819  -0.03830  -0.01341
  Beta virt. eigenvalues --    0.00735   0.01483   0.03977   0.05109   0.06088
  Beta virt. eigenvalues --    0.06580   0.07127   0.07520   0.08474   0.09928

 Mulliken charges and spin densities:
               1          2
     1  C   -0.082194   0.916571
     2  C   -0.387319   0.099927
     3  H    0.168474   0.011731
     4  H    0.141998   0.019009
     5  C    0.021956   0.364004
     6  H    0.264466  -0.015273
     7  C    0.492406   0.343346
     8  C   -0.619788   1.260685
 Sum of Mulliken charges =  -0.00000   3.00000

 Dipole moment (field-independent basis, Debye):
    X=              4.8385    Y=              1.0169    Z=             -0.3693  Tot=              4.9580
 Quadrupole moment (field-independent basis, Debye-Ang):
   XX=            -36.3286   YY=            -30.1562   ZZ=            -29.4306
   XY=              0.0794   XZ=              0.8861   YZ=              0.0407

  Exact polarizability: 110.695  -2.892  58.498   6.151  -0.963  42.678
 Approx polarizability: 163.654  -2.374  85.704   2.368  -1.063  61.376

                      1                      2                      3
                      A                      A                      A
 Frequencies --    173.5332               346.1605               385.6113
 Red. masses --      3.7674                 4.8244                 3.9490
 Frc consts  --      0.0668                 0.3406                 0.3460
 IR Inten    --      6.4675                61.6184               102.5397

                      4                      5                      6
                      A                      A                      A
 Frequencies --    650.2458               730.5670               787.9886
 Red. masses --      5.0435                 1.5144                 4.1117
 Frc consts  --      1.2564                 0.4762                 1.5042
 IR Inten    --     13.3580                48.8785                19.3501

                      7                      8                      9
                      A                      A                      A
 Frequencies --    910.4256               930.7060               995.3575
 Red. masses --      2.0828                 1.6332                 5.6275
 Frc consts  --      1.0172                 0.8335                 3.2849
 IR Inten    --     10.1448                12.9580                 7.5261

                     10                     11                     12
                      A                      A                      A
 Frequencies --   1082.0037              1153.2013              1186.1253
 Red. masses --      1.1276                 1.4489                 1.8167
 Frc consts  --      0.7778                 1.1353                 1.5059
 IR Inten    --      5.0529                 9.0907                20.4813

                     13                     14                     15
                      A                      A                      A
 Frequencies --   1322.7032              1429.7523              1472.8567
 Red. masses --      6.1661                 2.7802                 1.5006
 Frc consts  --      6.3560                 3.3485                 1.9180
 IR Inten    --    172.9536                 5.8347                 1.3957

                     16                     17                     18
                      A                      A                      A
 Frequencies --   3042.6822              3114.0430              3232.1178
 Red. masses --      1.0531                 1.1103                 1.0970
 Frc consts  --      5.7443                 6.3436                 6.7520
 IR Inten    --     11.9140                 3.6790                 0.0421

 - Thermochemistry -
 -------------------
 Temperature   298.150 Kelvin.  Pressure   1.00000 Atm.
 Atom     1 has atomic number  6 and mass  12.00000

 Molecular mass:    63.02348 amu.
 Principal axes and moments of inertia in atomic units:
                           1         2         3
     Eigenvalues --   118.46943 332.67481 439.01632
           X            0.99989   0.01454  -0.00122
           Y           -0.01454   0.99989   0.00155
           Z            0.00124  -0.00153   1.00000
 This molecule is an asymmetric top.
 Rotational symmetry number  1.
 Rotational temperatures (Kelvin)      0.73111     0.26036     0.19729
 Rotational constants (GHZ):          15.23381     5.42494     4.11088
 Zero-point vibrational energy     137248.0 (Joules/Mol)
                                   32.80307 (Kcal/Mol)
 Warning -- explicit consideration of   3 degrees of freedom as
           vibrations may cause significant error
 Vibrational temperatures:    249.68   498.05   554.81   935.56  1051.12
          (Kelvin)           1133.74  1309.90  1339.08  1432.10  1556.76
                             1659.20  1706.57  1903.07  2057.09  2119.11
                             4377.74  4480.41  4650.29

 Zero-point correction=                           0.052275 (Hartree/Particle)
 Thermal correction to Energy=                    0.056942
 Thermal correction to Enthalpy=                  0.057886
 Thermal correction to Gibbs Free Energy=         0.023921
 Sum of electronic and zero-point Energies=           -191.987476
 Sum of electronic and thermal Energies=              -191.982809
 Sum of electronic and thermal Enthalpies=            -191.981865
 Sum of electronic and thermal Free Energies=         -192.015829

                     E (Thermal)             CV                S
                      KCal/Mol        Cal/Mol-Kelvin    Cal/Mol-Kelvin
 Total                   35.732             15.681             71.485
 Electronic               0.000              0.000              2.755
 Translational            0.889              2.981             38.342
 Rotational               0.889              2.981             24.363
 Vibrational             33.954              9.720              6.025
 Vibration     1          0.627              1.875              2.397
 Vibration     2          0.724              1.583              1.184
 Vibration     3          0.754              1.501              1.017

 Optimization completed.
    -- Stationary point found.
 Normal termination of Gaussian 09 at Sun Jun 19 08:59:52 2016.
