 Gaussian 09, Revision E.01,
 Gaussian 09:  EM64L-G09RevE.01 30-Nov-2015

 ------------------------------------------------------
 #p b3lyp/6-311++G(3df,2p) freq IOp(2/17=3) IOp(2/18=3)
 ------------------------------------------------------

 ---------
 b3lyp opt
 ---------
 Symbolic Z-matrix:
 Charge =  1 Multiplicity = 1

                         Standard orientation:
 ---------------------------------------------------------------------
 Center     Atomic      Atomic             Coordinates (Angstroms)
 Number     Number       Type             X           Y           Z
 ---------------------------------------------------------------------
      1          6           0        0.000000   -0.156582    1.077241
      2          6           0        0.944164   -0.440240    0.000000
      3          6           0        0.000000   -0.156582   -1.077241
      4          6           0       -0.944073   -0.439786    0.000000
      5          1           0       -0.000190   -0.096571    2.152213
      6          1           0       -0.000190   -0.096571   -2.152213
      7          1           0       -0.002038    1.974599   -0.000000
      8          6           0       -0.000000    0.896277   -0.000000
 ---------------------------------------------------------------------

 SCF Done:  E(RB3LYP) =  -191.823073876     A.U. after   11 cycles

 The electronic state is 1-A'.
 Alpha  occ. eigenvalues --  -10.51732 -10.51726 -10.51588 -10.51520 -10.51506
 Alpha  occ. eigenvalues --   -1.33340  -0.99243  -0.90947  -0.89317  -0.82050
 Alpha  occ. eigenvalues --   -0.71599  -0.71407  -0.68269  -0.62747  -0.55443
 Alpha  occ. eigenvalues --   -0.53814
 Alpha virt. eigenvalues --   -0.33873  -0.25415  -0.19118  -0.16855  -0.15103
 Alpha virt. eigenvalues --   -0.14965  -0.14028  -0.12242  -0.10524  -0.08373
 Alpha virt. eigenvalues --   -0.08332  -0.07371  -0.05890  -0.05637  -0.05367

 Mulliken charges:
               1
     1  C    0.540020
     2  C   -0.584816
     3  C    0.540020
     4  C   -0.584215
     5  H    0.345088
     6  H    0.345088
     7  H    0.342861
     8  C    0.055955
 Sum of Mulliken charges =   1.00000

 Dipole moment (field-independent basis, Debye):
    X=             -0.0017    Y=              1.8897    Z=             -0.0000  Tot=              1.8897
 Quadrupole moment (field-independent basis, Debye-Ang):
   XX=            -27.8480   YY=            -22.4553   ZZ=            -14.9827
   XY=             -0.0074   XZ=             -0.0000   YZ=             -0.0000

  Exact polarizability:  44.491  -0.006  37.624  -0.000  -0.000  39.961
 Approx polarizability: 118.489  -0.022  70.082   0.000  -0.000  63.468

                      1                      2                      3
                     A'                     A'                     A"
 Frequencies --    371.2136               465.4408               587.5375
 Red. masses --      9.8241                 7.8631                 6.5688
 Frc consts  --      0.7976                 1.0036                 1.3360
 IR Inten    --     11.2950                86.2314                16.1349

                      4                      5                      6
                     A'                     A'                     A"
 Frequencies --    753.4775               831.2024               852.2390
 Red. masses --      1.3811                 3.1982                 8.2438
 Frc consts  --      0.4620                 1.3019                 3.5278
 IR Inten    --     31.5857                12.7474                 0.0000

                      7                      8                      9
                     A"                     A'                     A'
 Frequencies --    889.5509               899.7859               964.5846
 Red. masses --      1.1072                 1.9126                 1.6492
 Frc consts  --      0.5162                 0.9123                 0.9041
 IR Inten    --      1.8724                27.4797                 0.8959

                     10                     11                     12
                     A"                     A"                     A'
 Frequencies --   1031.7590              1041.0187              1147.3402
 Red. masses --      1.3258                 1.2355                 1.7913
 Frc consts  --      0.8316                 0.7889                 1.3893
 IR Inten    --      2.7611                 0.0000                18.5709

                     13                     14                     15
                     A'                     A'                     A"
 Frequencies --   1162.3462              1321.3816              1352.2380
 Red. masses --      2.7833                 5.9581                 5.9247
 Frc consts  --      2.2156                 6.1294                 6.3830
 IR Inten    --     10.4977                 0.0838                43.5623

                     16                     17                     18
                     A'                     A"                     A'
 Frequencies --   3251.3139              3285.0783              3291.4917
 Red. masses --      1.1022                 1.1064                 1.1177
 Frc consts  --      6.8647                 7.0345                 7.1343
 IR Inten    --    118.6058               161.4844                 2.3699

 - Thermochemistry -
 -------------------
 Temperature   298.150 Kelvin.  Pressure   1.00000 Atm.
 Atom     1 has atomic number  6 and mass  12.00000

 Molecular mass:    63.02348 amu.
 Principal axes and moments of inertia in atomic units:
                           1         2         3
     Eigenvalues --   143.43634 199.83998 209.19296
           X            0.00000   0.99999   0.00370
           Y            0.00000  -0.00370   0.99999
           Z            1.00000   0.00000  -0.00000
 This molecule is an asymmetric top.
 Rotational symmetry number  1.
 Rotational temperatures (Kelvin)      0.60385     0.43342     0.41404
 Rotational constants (GHZ):          12.58218     9.03093     8.62716
 Zero-point vibrational energy     140555.2 (Joules/Mol)
                                   33.59351 (Kcal/Mol)
 Warning -- explicit consideration of   3 degrees of freedom as
           vibrations may cause significant error
 Vibrational temperatures:    534.09   669.66   845.33  1084.08  1195.91
          (Kelvin)           1226.18  1279.86  1294.59  1387.82  1484.47
                             1497.79  1650.76  1672.35  1901.17  1945.57
                             4677.91  4726.49  4735.72

 Zero-point correction=                           0.053535 (Hartree/Particle)
 Thermal correction to Energy=                    0.057627
 Thermal correction to Enthalpy=                  0.058571
 Thermal correction to Gibbs Free Energy=         0.027568
 Sum of electronic and zero-point Energies=           -191.769539
 Sum of electronic and thermal Energies=              -191.765447
 Sum of electronic and thermal Enthalpies=            -191.764503
 Sum of electronic and thermal Free Energies=         -191.795505

                     E (Thermal)             CV                S
                      KCal/Mol        Cal/Mol-Kelvin    Cal/Mol-Kelvin
 Total                   36.161             14.623             65.251
 Electronic               0.000              0.000              0.000
 Translational            0.889              2.981             38.342
 Rotational               0.889              2.981             23.310
 Vibrational             34.384              8.662              3.599
 Vibration     1          0.743              1.531              1.075
 Vibration     2          0.823              1.327              0.750
 Vibration     3          0.945              1.058              0.472

 Optimization completed.
    -- Stationary point found.
 Normal termination of Gaussian 09 at Thu Jan 31 05:46:36 2019.
