 Gaussian 09, Revision E.01,
 Gaussian 09:  EM64L-G09RevE.01 30-Nov-2015

 ---------------------------------------------
 #p b3lyp/6-311++G(3df,2p) freq symmetry=Loose
 ---------------------------------------------

 ---------
 b3lyp opt
 ---------
 Symbolic Z-matrix:
 Charge =  2 Multiplicity = 2

                         Standard orientation:
 ---------------------------------------------------------------------
 Center     Atomic      Atomic             Coordinates (Angstroms)
 Number     Number       Type             X           Y           Z
 ---------------------------------------------------------------------
      1          6           0       -0.175874   -0.728393    0.238709
      2          6           0       -1.445976   -0.185949    0.053992
      3          1           0       -2.460949   -0.531894   -0.160914
      4          6           0       -0.555612    0.797679   -0.226635
      5          6           0        1.183408   -0.606705   -0.164238
      6          1           0        2.065945   -1.247632   -0.203507
      7          6           0        0.838807    0.773731    0.037370
      8          1           0        1.326487    1.477349    0.729232
 ---------------------------------------------------------------------

 SCF Done:  E(UB3LYP) =  -191.265418897     A.U. after   19 cycles

 The electronic state is 2-A.
 Alpha  occ. eigenvalues --  -10.81676 -10.80263 -10.77762 -10.77624 -10.77309
 Alpha  occ. eigenvalues --   -1.52436  -1.33202  -1.19127  -1.07101  -1.03433
 Alpha  occ. eigenvalues --   -0.99994  -0.97876  -0.96094  -0.91562  -0.80253
 Alpha  occ. eigenvalues --   -0.78115
 Alpha virt. eigenvalues --   -0.61341  -0.53413  -0.52687  -0.47139  -0.36194
 Alpha virt. eigenvalues --   -0.31643  -0.31342  -0.30444  -0.29463  -0.27479
 Alpha virt. eigenvalues --   -0.25911  -0.24884  -0.22839  -0.22356  -0.21484

  Beta  occ. eigenvalues --  -10.81667 -10.79724 -10.77841 -10.77267 -10.76358
  Beta  occ. eigenvalues --   -1.51579  -1.31676  -1.18077  -1.06334  -1.02264
  Beta  occ. eigenvalues --   -0.99246  -0.97200  -0.94953  -0.89930  -0.79382
  Beta virt. eigenvalues --   -0.67042  -0.60884  -0.50790  -0.49554  -0.46060
  Beta virt. eigenvalues --   -0.35421  -0.31153  -0.30915  -0.29987  -0.29073
  Beta virt. eigenvalues --   -0.27343  -0.25644  -0.24597  -0.22355  -0.22120

 Mulliken charges and spin densities:
               1          2
     1  C    0.233321  -0.008830
     2  C    0.265370   0.222938
     3  H    0.355516  -0.005936
     4  C    0.309428   0.267906
     5  C    0.235322   0.567130
     6  H    0.355057  -0.008631
     7  C   -0.023752  -0.039785
     8  H    0.269739   0.005208
 Sum of Mulliken charges =   2.00000   1.00000

 Dipole moment (field-independent basis, Debye):
    X=              0.4360    Y=             -0.1979    Z=              0.2639  Tot=              0.5467
 Quadrupole moment (field-independent basis, Debye-Ang):
   XX=             -2.2444   YY=            -15.1184   ZZ=            -23.0312
   XY=              0.7655   XZ=              0.9604   YZ=              1.5491

  Exact polarizability:  51.663  -0.155  38.351   0.335  -0.882  24.088
 Approx polarizability:  93.449  -2.248  82.961   0.599  -8.110  39.166

                      1                      2                      3
                      A                      A                      A
 Frequencies --    337.0870               396.1262               433.0307
 Red. masses --      3.3555                 2.4495                 4.0603
 Frc consts  --      0.2246                 0.2265                 0.4486
 IR Inten    --     13.5284                 5.6333                 5.9284

                      4                      5                      6
                      A                      A                      A
 Frequencies --    547.1913               717.6198               770.7690
 Red. masses --      4.7008                 2.9407                 1.5568
 Frc consts  --      0.8293                 0.8923                 0.5449
 IR Inten    --      7.7475                 9.3085                25.0370

                      7                      8                      9
                      A                      A                      A
 Frequencies --    824.8645               850.8414              1023.3891
 Red. masses --      2.0267                 2.3385                 1.2819
 Frc consts  --      0.8125                 0.9974                 0.7910
 IR Inten    --      2.2521                43.0171                18.4224

                     10                     11                     12
                      A                      A                      A
 Frequencies --   1051.8694              1108.2631              1185.9672
 Red. masses --      1.3511                 1.5816                 2.5769
 Frc consts  --      0.8808                 1.1446                 2.1355
 IR Inten    --     13.7040                 2.3175                 3.6103

                     13                     14                     15
                      A                      A                      A
 Frequencies --   1213.7280              1331.1114              1541.6772
 Red. masses --      2.2050                 5.9573                 6.5309
 Frc consts  --      1.9138                 6.2191                 9.1455
 IR Inten    --     16.9461                36.8203               112.0158

                     16                     17                     18
                      A                      A                      A
 Frequencies --   3019.7959              3121.6748              3138.5727
 Red. masses --      1.0923                 1.1195                 1.1087
 Frc consts  --      5.8686                 6.4279                 6.4344
 IR Inten    --    235.0754               286.0076               154.5131

 - Thermochemistry -
 -------------------
 Temperature   298.150 Kelvin.  Pressure   1.00000 Atm.
 Atom     1 has atomic number  6 and mass  12.00000

 Molecular mass:    63.02348 amu.
 Principal axes and moments of inertia in atomic units:
                           1         2         3
     Eigenvalues --   115.42311 245.67818 345.44725
           X            0.99974   0.01735   0.01513
           Y           -0.01810   0.99855   0.05066
           Z           -0.01423  -0.05092   0.99860
 This molecule is an asymmetric top.
 Rotational symmetry number  1.
 Rotational temperatures (Kelvin)      0.75040     0.35255     0.25073
 Rotational constants (GHZ):          15.63587     7.34596     5.22436
 Zero-point vibrational energy     135259.2 (Joules/Mol)
                                   32.32773 (Kcal/Mol)
 Warning -- explicit consideration of   4 degrees of freedom as
           vibrations may cause significant error
 Vibrational temperatures:    484.99   569.94   623.03   787.29  1032.49
          (Kelvin)           1108.96  1186.79  1224.17  1472.43  1513.40
                             1594.54  1706.34  1746.28  1915.17  2218.13
                             4344.81  4491.39  4515.70

 Zero-point correction=                           0.051518 (Hartree/Particle)
 Thermal correction to Energy=                    0.055974
 Thermal correction to Enthalpy=                  0.056918
 Thermal correction to Gibbs Free Energy=         0.024451
 Sum of electronic and zero-point Energies=           -191.213901
 Sum of electronic and thermal Energies=              -191.209445
 Sum of electronic and thermal Enthalpies=            -191.208501
 Sum of electronic and thermal Free Energies=         -191.240968

                     E (Thermal)             CV                S
                      KCal/Mol        Cal/Mol-Kelvin    Cal/Mol-Kelvin
 Total                   35.124             15.821             68.333
 Electronic               0.000              0.000              1.377
 Translational            0.889              2.981             38.342
 Rotational               0.889              2.981             23.797
 Vibrational             33.347              9.859              4.816
 Vibration     1          0.718              1.601              1.226
 Vibration     2          0.763              1.478              0.977
 Vibration     3          0.794              1.398              0.849
 Vibration     4          0.902              1.146              0.550

 Normal termination of Gaussian 09 at Sun Jun 19 12:07:38 2016.
