 Gaussian 09, Revision E.01,
 Gaussian 09:  EM64L-G09RevE.01 30-Nov-2015

 ---------------------------------------------
 #p b3lyp/6-311++G(3df,2p) freq symmetry=Loose
 ---------------------------------------------

 ---------
 b3lyp opt
 ---------
 Symbolic Z-matrix:
 Charge =  2 Multiplicity = 2

                         Standard orientation:
 ---------------------------------------------------------------------
 Center     Atomic      Atomic             Coordinates (Angstroms)
 Number     Number       Type             X           Y           Z
 ---------------------------------------------------------------------
      1          1           0        0.453108    1.862016   -0.360363
      2          6           0        0.515260    0.823138   -0.008211
      3          6           0       -0.750330   -0.097898    0.253496
      4          1           0       -1.020072   -0.238964    1.348119
      5          6           0        0.435605   -0.882621   -0.237295
      6          6           0       -2.069387    0.026385   -0.228597
      7          6           0        1.527871   -0.115001    0.060014
      8          1           0        2.612851   -0.147072   -0.024195
 ---------------------------------------------------------------------

 SCF Done:  E(UB3LYP) =  -191.176165294     A.U. after   26 cycles

 The electronic state is 2-A.
 Alpha  occ. eigenvalues --  -10.83630 -10.79977 -10.77847 -10.73967 -10.72539
 Alpha  occ. eigenvalues --   -1.46725  -1.29718  -1.12486  -1.11789  -1.00707
 Alpha  occ. eigenvalues --   -0.97292  -0.93740  -0.91891  -0.85182  -0.79922
 Alpha  occ. eigenvalues --   -0.76096
 Alpha virt. eigenvalues --   -0.63835  -0.60717  -0.53436  -0.50738  -0.34625
 Alpha virt. eigenvalues --   -0.33008  -0.31519  -0.29785  -0.28908  -0.26048
 Alpha virt. eigenvalues --   -0.25786  -0.24672  -0.24014  -0.23635  -0.20595

  Beta  occ. eigenvalues --  -10.83415 -10.78482 -10.77718 -10.73856 -10.72488
  Beta  occ. eigenvalues --   -1.45941  -1.28997  -1.11526  -1.10747  -0.99929
  Beta  occ. eigenvalues --   -0.95715  -0.92549  -0.90555  -0.84578  -0.79321
  Beta virt. eigenvalues --   -0.63746  -0.60399  -0.60364  -0.51043  -0.49918
  Beta virt. eigenvalues --   -0.34060  -0.32546  -0.31285  -0.29634  -0.28483
  Beta virt. eigenvalues --   -0.25581  -0.25217  -0.24533  -0.23579  -0.23255

 Mulliken charges and spin densities:
               1          2
     1  H    0.321920   0.016551
     2  C    0.113781   0.087040
     3  C    0.398373   0.015079
     4  H    0.313074  -0.003316
     5  C    0.326392   0.819113
     6  C   -0.137603   0.128762
     7  C    0.288940  -0.065441
     8  H    0.375123   0.002213
 Sum of Mulliken charges =   2.00000   1.00000

 Dipole moment (field-independent basis, Debye):
    X=              0.4145    Y=              0.9669    Z=              0.4956  Tot=              1.1629
 Quadrupole moment (field-independent basis, Debye-Ang):
   XX=             -3.4791   YY=            -17.1276   ZZ=            -21.0920
   XY=              0.5570   XZ=             -1.3981   YZ=             -1.0136

  Exact polarizability:  70.063  -0.819  38.292   0.226   0.127  28.724
 Approx polarizability: 111.805  -2.396  73.740   4.365   2.619  47.330

                      1                      2                      3
                      A                      A                      A
 Frequencies --    213.2959               251.0201               414.1469
 Red. masses --      5.3238                 5.6334                 3.8409
 Frc consts  --      0.1427                 0.2091                 0.3881
 IR Inten    --      1.1810                 3.6448                 2.1601

                      4                      5                      6
                      A                      A                      A
 Frequencies --    469.6270               662.8526               749.9036
 Red. masses --      8.9746                 4.9036                 1.3707
 Frc consts  --      1.1662                 1.2694                 0.4542
 IR Inten    --     49.3753                11.8757                52.7884

                      7                      8                      9
                      A                      A                      A
 Frequencies --    835.2406               898.1222               945.6560
 Red. masses --      2.1593                 1.3022                 1.4006
 Frc consts  --      0.8875                 0.6189                 0.7380
 IR Inten    --     98.1480                60.8229                11.8771

                     10                     11                     12
                      A                      A                      A
 Frequencies --   1032.1764              1063.0700              1114.4818
 Red. masses --      1.1784                 1.5375                 1.3308
 Frc consts  --      0.7397                 1.0238                 0.9739
 IR Inten    --     34.1343                 8.6589                 4.0577

                     13                     14                     15
                      A                      A                      A
 Frequencies --   1239.4815              1358.0038              1497.2463
 Red. masses --      4.5097                 5.9298                 5.7809
 Frc consts  --      4.0820                 6.4430                 7.6354
 IR Inten    --     42.2751               482.2291                20.7111

                     16                     17                     18
                      A                      A                      A
 Frequencies --   2684.8915              3045.6429              3169.2516
 Red. masses --      1.0739                 1.0975                 1.1187
 Frc consts  --      4.5612                 5.9981                 6.6202
 IR Inten    --    219.0272               209.4428               219.2747

 - Thermochemistry -
 -------------------
 Temperature   298.150 Kelvin.  Pressure   1.00000 Atm.
 Atom     1 has atomic number  1 and mass   1.00783

 Molecular mass:    63.02348 amu.
 Principal axes and moments of inertia in atomic units:
                           1         2         3
     Eigenvalues --    90.47262 370.35272 432.35242
           X            0.99983   0.00837  -0.01669
           Y           -0.00930   0.99838  -0.05605
           Z            0.01620   0.05619   0.99829
 This molecule is an asymmetric top.
 Rotational symmetry number  1.
 Rotational temperatures (Kelvin)      0.95735     0.23387     0.20033
 Rotational constants (GHZ):          19.94793     4.87303     4.17424
 Zero-point vibrational energy     129460.5 (Joules/Mol)
                                   30.94181 (Kcal/Mol)
 Warning -- explicit consideration of   4 degrees of freedom as
           vibrations may cause significant error
 Vibrational temperatures:    306.88   361.16   595.86   675.69   953.70
          (Kelvin)           1078.94  1201.72  1292.20  1360.59  1485.07
                             1529.52  1603.49  1783.34  1953.86  2154.20
                             3862.96  4382.00  4559.84

 Zero-point correction=                           0.049309 (Hartree/Particle)
 Thermal correction to Energy=                    0.054214
 Thermal correction to Enthalpy=                  0.055159
 Thermal correction to Gibbs Free Energy=         0.021605
 Sum of electronic and zero-point Energies=           -191.126856
 Sum of electronic and thermal Energies=              -191.121951
 Sum of electronic and thermal Enthalpies=            -191.121007
 Sum of electronic and thermal Free Energies=         -191.154560

                     E (Thermal)             CV                S
                      KCal/Mol        Cal/Mol-Kelvin    Cal/Mol-Kelvin
 Total                   34.020             16.780             70.620
 Electronic               0.000              0.000              1.377
 Translational            0.889              2.981             38.342
 Rotational               0.889              2.981             24.186
 Vibrational             32.243             10.819              6.714
 Vibration     1          0.644              1.821              2.015
 Vibration     2          0.663              1.761              1.723
 Vibration     3          0.778              1.440              0.912
 Vibration     4          0.827              1.317              0.739

 Optimization completed.
    -- Stationary point found.
 Normal termination of Gaussian 09 at Sun Jun 19 12:07:44 2016.
