 Gaussian 09, Revision E.01,
 Gaussian 09:  EM64L-G09RevE.01 30-Nov-2015

 ---------------------------------------------
 #p b3lyp/6-311++G(3df,2p) freq symmetry=Loose
 ---------------------------------------------

 ---------
 b3lyp opt
 ---------
 Symbolic Z-matrix:
 Charge =  2 Multiplicity = 4

                         Standard orientation:
 ---------------------------------------------------------------------
 Center     Atomic      Atomic             Coordinates (Angstroms)
 Number     Number       Type             X           Y           Z
 ---------------------------------------------------------------------
      1          6           0        2.565399    0.012758   -0.000000
      2          6           0        1.212585   -0.407143    0.000000
      3          1           0        1.173268   -1.513168    0.000000
      4          6           0       -0.000000    0.422666   -0.000000
      5          1           0        0.100150    1.503015   -0.000000
      6          6           0       -1.246009   -0.163701    0.000000
      7          1           0       -1.461731   -1.266802    0.000000
      8          6           0       -2.500590    0.348246   -0.000000
 ---------------------------------------------------------------------

 SCF Done:  E(UB3LYP) =  -191.083367581     A.U. after   27 cycles

 The electronic state is 4-A'.
 Alpha  occ. eigenvalues --  -10.84589 -10.75661 -10.71855 -10.71802 -10.69462
 Alpha  occ. eigenvalues --   -1.33781  -1.28378  -1.17909  -1.01769  -1.01066
 Alpha  occ. eigenvalues --   -0.95539  -0.89758  -0.86196  -0.86021  -0.80473
 Alpha  occ. eigenvalues --   -0.75328  -0.69074
 Alpha virt. eigenvalues --   -0.62453  -0.55927  -0.50537  -0.42350  -0.33411
 Alpha virt. eigenvalues --   -0.31172  -0.30101  -0.26350  -0.25624  -0.24014
 Alpha virt. eigenvalues --   -0.23699  -0.22280  -0.20837  -0.20323  -0.19695

  Beta  occ. eigenvalues --  -10.81531 -10.74799 -10.71675 -10.71090 -10.68750
  Beta  occ. eigenvalues --   -1.31184  -1.24665  -1.14342  -1.00572  -0.97980
  Beta  occ. eigenvalues --   -0.94429  -0.86350  -0.80220  -0.73446
  Beta virt. eigenvalues --   -0.67678  -0.67017  -0.58106  -0.55228  -0.54736
  Beta virt. eigenvalues --   -0.43234  -0.37357  -0.33214  -0.30615  -0.29617
  Beta virt. eigenvalues --   -0.25618  -0.25158  -0.23481  -0.22921  -0.21401

 Mulliken charges and spin densities:
               1          2
     1  C    0.049164   0.481476
     2  C    0.330276   0.554148
     3  H    0.245184  -0.010161
     4  C    0.286287   0.469243
     5  H    0.236104  -0.009827
     6  C    0.423942   0.079007
     7  H    0.240248   0.002119
     8  C    0.188795   1.433997
 Sum of Mulliken charges =   2.00000   3.00000

 Dipole moment (field-independent basis, Debye):
    X=             -3.3089    Y=             -1.0360    Z=              0.0000  Tot=              3.4673
 Quadrupole moment (field-independent basis, Debye-Ang):
   XX=             10.8384   YY=            -15.3494   ZZ=            -25.7254
   XY=             -3.3752   XZ=              0.0000   YZ=              0.0000

  Exact polarizability: 137.438  -5.320  37.719   0.000   0.000  24.247
 Approx polarizability: 305.205 -13.720  60.345   0.000  -0.000  39.891

                      1                      2                      3
                     A"                     A'                     A"
 Frequencies --     53.3326               191.3475               252.4563
 Red. masses --      3.7173                 8.3291                 2.9911
 Frc consts  --      0.0062                 0.1797                 0.1123
 IR Inten    --      2.4872                 0.3999                 9.5383

                      4                      5                      6
                     A'                     A'                     A"
 Frequencies --    326.7803               394.2822               695.8013
 Red. masses --      6.2740                 4.6183                 1.9555
 Frc consts  --      0.3947                 0.4230                 0.5578
 IR Inten    --     12.7379                 0.4824                 0.8656

                      7                      8                      9
                     A'                     A'                     A"
 Frequencies --    886.0412               891.3401               951.3786
 Red. masses --      2.6890                 2.3895                 1.4090
 Frc consts  --      1.2438                 1.1185                 0.7514
 IR Inten    --     36.5003                23.2095               117.8849

                     10                     11                     12
                     A'                     A'                     A'
 Frequencies --   1061.8289              1153.4638              1268.8888
 Red. masses --      1.7972                 2.0520                 1.9460
 Frc consts  --      1.1938                 1.6086                 1.8460
 IR Inten    --     50.9093                 2.5536                 1.3936

                     13                     14                     15
                     A"                     A'                     A'
 Frequencies --   1293.0273              1335.9902              1439.9650
 Red. masses --      1.3406                 3.2193                 2.0666
 Frc consts  --      1.3206                 3.3855                 2.5247
 IR Inten    --      0.3888                86.4853                 0.9039

                     16                     17                     18
                     A'                     A'                     A'
 Frequencies --   2801.7969              2962.1812              3165.0353
 Red. masses --      1.0782                 1.0822                 1.0915
 Frc consts  --      4.9867                 5.5946                 6.4420
 IR Inten    --    208.9988               117.9346                65.4826

 - Thermochemistry -
 -------------------
 Temperature   298.150 Kelvin.  Pressure   1.00000 Atm.
 Atom     1 has atomic number  6 and mass  12.00000

 Molecular mass:    63.02348 amu.
 Principal axes and moments of inertia in atomic units:
                           1         2         3
     Eigenvalues --    39.70517 695.66181 735.36697
           X            0.99736   0.07265   0.00000
           Y           -0.07265   0.99736   0.00000
           Z            0.00000  -0.00000   1.00000
 This molecule is an asymmetric top.
 Rotational symmetry number  1.
 Rotational temperatures (Kelvin)      2.18142     0.12451     0.11778
 Rotational constants (GHZ):          45.45356     2.59428     2.45420
 Zero-point vibrational energy     126355.2 (Joules/Mol)
                                   30.19961 (Kcal/Mol)
 Warning -- explicit consideration of   5 degrees of freedom as
           vibrations may cause significant error
 Vibrational temperatures:     76.73   275.31   363.23   470.16   567.28
          (Kelvin)           1001.10  1274.81  1282.44  1368.82  1527.73
                             1659.58  1825.65  1860.38  1922.19  2071.79
                             4031.16  4261.91  4553.77

 Zero-point correction=                           0.048126 (Hartree/Particle)
 Thermal correction to Energy=                    0.053908
 Thermal correction to Enthalpy=                  0.054852
 Thermal correction to Gibbs Free Energy=         0.018060
 Sum of electronic and zero-point Energies=           -191.035241
 Sum of electronic and thermal Energies=              -191.029460
 Sum of electronic and thermal Enthalpies=            -191.028516
 Sum of electronic and thermal Free Energies=         -191.065307

                     E (Thermal)             CV                S
                      KCal/Mol        Cal/Mol-Kelvin    Cal/Mol-Kelvin
 Total                   33.828             18.046             77.434
 Electronic               0.000              0.000              2.755
 Translational            0.889              2.981             38.342
 Rotational               0.889              2.981             24.522
 Vibrational             32.050             12.085             11.816
 Vibration     1          0.596              1.976              4.690
 Vibration     2          0.634              1.852              2.215
 Vibration     3          0.664              1.759              1.713
 Vibration     4          0.710              1.622              1.276
 Vibration     5          0.761              1.482              0.984

 Normal termination of Gaussian 09 at Sun Jun 19 12:34:39 2016.
