 Gaussian 09, Revision E.01,
 Gaussian 09:  EM64L-G09RevE.01 30-Nov-2015

 ---------------------------------------------
 #p b3lyp/6-311++G(3df,2p) freq symmetry=Loose
 ---------------------------------------------

 ---------
 b3lyp opt
 ---------
 Symbolic Z-matrix:
 Charge =  1 Multiplicity = 3

                         Standard orientation:
 ---------------------------------------------------------------------
 Center     Atomic      Atomic             Coordinates (Angstroms)
 Number     Number       Type             X           Y           Z
 ---------------------------------------------------------------------
      1          6           0        1.092495   -0.544786    0.168598
      2          6           0       -0.072973   -0.457879   -0.643342
      3          6           0       -1.369260   -0.134663    0.044690
      4          6           0       -0.166070    0.600041    0.579446
      5          1           0        1.698866   -1.200276    0.775838
      6          1           0       -1.805156   -0.900204    0.676540
      7          1           0       -2.072088    0.475451   -0.516827
      8          6           0        0.878870    0.808124   -0.305318
 ---------------------------------------------------------------------

 SCF Done:  E(UB3LYP) =  -191.739919128     A.U. after   16 cycles

 The electronic state is 3-A.
 Alpha  occ. eigenvalues --  -10.53133 -10.53010 -10.51926 -10.51607 -10.48536
 Alpha  occ. eigenvalues --   -1.30308  -1.03995  -0.90775  -0.84062  -0.80203
 Alpha  occ. eigenvalues --   -0.74599  -0.68388  -0.66471  -0.64697  -0.59346
 Alpha  occ. eigenvalues --   -0.53678  -0.49219
 Alpha virt. eigenvalues --   -0.31209  -0.24083  -0.17839  -0.15181  -0.14320
 Alpha virt. eigenvalues --   -0.13307  -0.11562  -0.10299  -0.09958  -0.08971
 Alpha virt. eigenvalues --   -0.06814  -0.05928  -0.05294  -0.04663  -0.03253

  Beta  occ. eigenvalues --  -10.52199 -10.52176 -10.51001 -10.50324 -10.48544
  Beta  occ. eigenvalues --   -1.28813  -1.03175  -0.88496  -0.81774  -0.77896
  Beta  occ. eigenvalues --   -0.72889  -0.67282  -0.63263  -0.62639  -0.56589
  Beta virt. eigenvalues --   -0.39554  -0.36449  -0.27955  -0.21477  -0.15746
  Beta virt. eigenvalues --   -0.14861  -0.13768  -0.12751  -0.11061  -0.09809
  Beta virt. eigenvalues --   -0.09369  -0.08388  -0.06628  -0.05370  -0.04723

 Mulliken charges and spin densities:
               1          2
     1  C    0.203013   0.355903
     2  C    0.270293   0.480447
     3  C   -0.602358  -0.029250
     4  C    0.226065   0.417859
     5  H    0.333023  -0.005955
     6  H    0.251872   0.006706
     7  H    0.245766   0.018623
     8  C    0.072323   0.755667
 Sum of Mulliken charges =   1.00000   2.00000

 Dipole moment (field-independent basis, Debye):
    X=             -0.6492    Y=             -1.1614    Z=              0.6996  Tot=              1.5032
 Quadrupole moment (field-independent basis, Debye-Ang):
   XX=            -16.0385   YY=            -23.4794   ZZ=            -25.4207
   XY=             -1.8085   XZ=              1.3581   YZ=             -1.6212

  Exact polarizability:  49.393   0.202  39.463  -0.257   0.644  35.787
 Approx polarizability:  79.300   0.170  75.414  -3.130  12.027  70.131

                      1                      2                      3
                      A                      A                      A
 Frequencies --    310.2926               381.0515               561.6682
 Red. masses --      3.3378                 5.0348                 6.7083
 Frc consts  --      0.1893                 0.4307                 1.2469
 IR Inten    --     17.1867                19.5733                 7.4893

                      4                      5                      6
                      A                      A                      A
 Frequencies --    674.9772               730.3470               766.2875
 Red. masses --      7.1856                 1.2517                 7.5524
 Frc consts  --      1.9288                 0.3934                 2.6129
 IR Inten    --     22.7744                20.3824                 1.3992

                      7                      8                      9
                      A                      A                      A
 Frequencies --    918.1025               998.0523              1010.2597
 Red. masses --      3.1183                 1.3596                 1.4284
 Frc consts  --      1.5486                 0.7980                 0.8590
 IR Inten    --      5.1592                13.9348                 3.9645

                     10                     11                     12
                      A                      A                      A
 Frequencies --   1032.9061              1127.1104              1131.3870
 Red. masses --      1.3328                 2.9766                 1.7450
 Frc consts  --      0.8378                 2.2279                 1.3161
 IR Inten    --      3.1131                24.0039                13.5711

                     13                     14                     15
                      A                      A                      A
 Frequencies --   1257.6690              1436.5804              1469.8195
 Red. masses --      4.0824                 5.9025                 1.2082
 Frc consts  --      3.8046                 7.1770                 1.5379
 IR Inten    --      8.9036                 6.9851                11.3199

                     16                     17                     18
                      A                      A                      A
 Frequencies --   3107.0200              3203.5703              3242.0343
 Red. masses --      1.0555                 1.1173                 1.1062
 Frc consts  --      6.0033                 6.7561                 6.8507
 IR Inten    --     21.0992                26.3473                76.9444

 - Thermochemistry -
 -------------------
 Temperature   298.150 Kelvin.  Pressure   1.00000 Atm.
 Atom     1 has atomic number  6 and mass  12.00000

 Molecular mass:    63.02348 amu.
 Principal axes and moments of inertia in atomic units:
                           1         2         3
     Eigenvalues --   116.54630 244.35312 279.32898
           X            0.99909  -0.03060   0.02986
           Y            0.03573   0.98114  -0.18996
           Z           -0.02348   0.19085   0.98134
 This molecule is an asymmetric top.
 Rotational symmetry number  1.
 Rotational temperatures (Kelvin)      0.74317     0.35446     0.31008
 Rotational constants (GHZ):          15.48519     7.38579     6.46099
 Zero-point vibrational energy     139718.7 (Joules/Mol)
                                   33.39356 (Kcal/Mol)
 Warning -- explicit consideration of   3 degrees of freedom as
           vibrations may cause significant error
 Vibrational temperatures:    446.44   548.25   808.11   971.14  1050.81
          (Kelvin)           1102.52  1320.94  1435.97  1453.54  1486.12
                             1621.66  1627.81  1809.50  2066.92  2114.74
                             4470.30  4609.22  4664.56

 Zero-point correction=                           0.053216 (Hartree/Particle)
 Thermal correction to Energy=                    0.057505
 Thermal correction to Enthalpy=                  0.058449
 Thermal correction to Gibbs Free Energy=         0.025928
 Sum of electronic and zero-point Energies=           -191.686703
 Sum of electronic and thermal Energies=              -191.682415
 Sum of electronic and thermal Enthalpies=            -191.681470
 Sum of electronic and thermal Free Energies=         -191.713991

                     E (Thermal)             CV                S
                      KCal/Mol        Cal/Mol-Kelvin    Cal/Mol-Kelvin
 Total                   36.085             15.021             68.446
 Electronic               0.000              0.000              2.183
 Translational            0.889              2.981             38.342
 Rotational               0.889              2.981             23.591
 Vibrational             34.307              9.060              4.330
 Vibration     1          0.699              1.654              1.361
 Vibration     2          0.751              1.511              1.035
 Vibration     3          0.917              1.114              0.521

 Optimization completed.
    -- Stationary point found.
 Normal termination of Gaussian 09 at Sun Jun 19 11:07:30 2016.
