 Gaussian 09, Revision E.01,
 Gaussian 09:  EM64L-G09RevE.01 30-Nov-2015

 ---------------------------------------------
 #p b3lyp/6-311++G(3df,2p) freq symmetry=Loose
 ---------------------------------------------

 ---------
 b3lyp opt
 ---------
 Symbolic Z-matrix:
 Charge =  0 Multiplicity = 2

                         Standard orientation:
 ---------------------------------------------------------------------
 Center     Atomic      Atomic             Coordinates (Angstroms)
 Number     Number       Type             X           Y           Z
 ---------------------------------------------------------------------
      1          6           0        0.000000    0.502575    0.000000
      2          6           0       -0.801745   -0.687899    0.000000
      3          1           0       -1.876999   -0.551696    0.000000
      4          6           0        1.245211    1.110403    0.000000
      5          6           0       -0.249785   -1.901226    0.000000
      6          6           0        0.124671    1.871517    0.000000
      7          1           0        0.824955   -2.025457    0.000000
      8          1           0       -0.858068   -2.795064    0.000000
 ---------------------------------------------------------------------

 SCF Done:  E(UB3LYP) =  -192.158850193     A.U. after   15 cycles

 The electronic state is 2-A'.
 Alpha  occ. eigenvalues --  -10.26901 -10.22575 -10.22344 -10.21805 -10.21732
 Alpha  occ. eigenvalues --   -0.95059  -0.82951  -0.67346  -0.56102  -0.52038
 Alpha  occ. eigenvalues --   -0.47099  -0.44743  -0.41676  -0.41111  -0.31822
 Alpha  occ. eigenvalues --   -0.28795  -0.25610
 Alpha virt. eigenvalues --   -0.09755  -0.01496  -0.01184   0.00878   0.02628
 Alpha virt. eigenvalues --    0.02700   0.04786   0.05319   0.05523   0.06789
 Alpha virt. eigenvalues --    0.08759   0.08797   0.09642   0.09899   0.10933

  Beta  occ. eigenvalues --  -10.26345 -10.22601 -10.22329 -10.21064 -10.20967
  Beta  occ. eigenvalues --   -0.94136  -0.82802  -0.66941  -0.55445  -0.50645
  Beta  occ. eigenvalues --   -0.45356  -0.43189  -0.41209  -0.39239  -0.31651
  Beta  occ. eigenvalues --   -0.25975
  Beta virt. eigenvalues --   -0.13974  -0.09368  -0.01132  -0.00254   0.00947
  Beta virt. eigenvalues --    0.02744   0.03131   0.04826   0.05556   0.05663
  Beta virt. eigenvalues --    0.06839   0.08870   0.08990   0.09756   0.10055

 Mulliken charges and spin densities:
               1          2
     1  C    0.627866   0.308378
     2  C   -0.042818  -0.017020
     3  H    0.178340   0.012204
     4  C   -0.217864   0.336702
     5  C   -0.584005   0.005337
     6  C   -0.317331   0.351155
     7  H    0.171477  -0.000023
     8  H    0.184334   0.003267
 Sum of Mulliken charges =  -0.00000   1.00000

 Dipole moment (field-independent basis, Debye):
    X=             -1.7327    Y=             -3.4533    Z=              0.0000  Tot=              3.8637
 Quadrupole moment (field-independent basis, Debye-Ang):
   XX=            -30.9475   YY=            -30.1940   ZZ=            -30.4185
   XY=              0.2879   XZ=              0.0000   YZ=              0.0000

  Exact polarizability:  63.982  -2.084  83.620   0.000  -0.000  36.948
 Approx polarizability:  98.155  -8.121 130.266  -0.000  -0.000  54.579

                      1                      2                      3
                     A"                     A'                     A"
 Frequencies --     84.6503               197.3595               364.7892
 Red. masses --      3.9609                 4.0698                 2.2291
 Frc consts  --      0.0167                 0.0934                 0.1748
 IR Inten    --      0.0431                18.5873                 0.2164

                      4                      5                      6
                     A'                     A'                     A"
 Frequencies --    532.9917               657.6189               716.8241
 Red. masses --      4.1499                11.3307                 2.1865
 Frc consts  --      0.6946                 2.8871                 0.6619
 IR Inten    --      4.8209               399.0077                15.5832

                      7                      8                      9
                     A'                     A"                     A"
 Frequencies --    777.0386              1011.8418              1024.0098
 Red. masses --      3.2992                 1.0727                 1.4007
 Frc consts  --      1.1737                 0.6471                 0.8654
 IR Inten    --      6.5623                39.2572                11.0937

                     10                     11                     12
                     A'                     A'                     A'
 Frequencies --   1074.1195              1315.9393              1345.3843
 Red. masses --      1.4857                 1.3032                 6.3955
 Frc consts  --      1.0099                 1.3296                 6.8206
 IR Inten    --     15.2489                10.1635                92.2649

                     13                     14                     15
                     A'                     A'                     A'
 Frequencies --   1442.8441              1652.4384              1709.6114
 Red. masses --      1.3135                 3.9840                10.2426
 Frc consts  --      1.6111                 6.4094                17.6382
 IR Inten    --     39.0632                 0.0584                78.6977

                     16                     17                     18
                     A'                     A'                     A'
 Frequencies --   3143.9530              3157.2832              3236.3555
 Red. masses --      1.0579                 1.0919                 1.1178
 Frc consts  --      6.1608                 6.4132                 6.8980
 IR Inten    --      1.4189                 2.6630                 0.8886

 - Thermochemistry -
 -------------------
 Temperature   298.150 Kelvin.  Pressure   1.00000 Atm.
 Atom     1 has atomic number  6 and mass  12.00000

 Molecular mass:    63.02348 amu.
 Principal axes and moments of inertia in atomic units:
                           1         2         3
     Eigenvalues --    75.14053 471.06545 546.20598
           X            0.31692   0.94845   0.00000
           Y            0.94845  -0.31692   0.00000
           Z            0.00000  -0.00000   1.00000
 This molecule is an asymmetric top.
 Rotational symmetry number  1.
 Rotational temperatures (Kelvin)      1.15269     0.18387     0.15857
 Rotational constants (GHZ):          24.01821     3.83119     3.30414
 Zero-point vibrational energy     140232.6 (Joules/Mol)
                                   33.51638 (Kcal/Mol)
 Warning -- explicit consideration of   4 degrees of freedom as
           vibrations may cause significant error
 Vibrational temperatures:    121.79   283.96   524.85   766.86   946.17
          (Kelvin)           1031.35  1117.98  1455.81  1473.32  1545.42
                             1893.34  1935.71  2075.93  2377.49  2459.75
                             4523.44  4542.62  4656.39

 Zero-point correction=                           0.053412 (Hartree/Particle)
 Thermal correction to Energy=                    0.058569
 Thermal correction to Enthalpy=                  0.059513
 Thermal correction to Gibbs Free Energy=         0.024827
 Sum of electronic and zero-point Energies=           -192.105438
 Sum of electronic and thermal Energies=              -192.100281
 Sum of electronic and thermal Enthalpies=            -192.099337
 Sum of electronic and thermal Free Energies=         -192.134023

                     E (Thermal)             CV                S
                      KCal/Mol        Cal/Mol-Kelvin    Cal/Mol-Kelvin
 Total                   36.753             16.343             73.004
 Electronic               0.000              0.000              1.377
 Translational            0.889              2.981             38.342
 Rotational               0.889              2.981             24.473
 Vibrational             34.975             10.382              8.811
 Vibration     1          0.601              1.960              3.780
 Vibration     2          0.637              1.844              2.158
 Vibration     3          0.738              1.545              1.102
 Vibration     4          0.888              1.177              0.581

 Optimization completed.
    -- Stationary point found.
 Normal termination of Gaussian 09 at Sun Jun 19 08:12:21 2016.
