 Gaussian 09, Revision E.01,
 Gaussian 09:  EM64L-G09RevE.01 30-Nov-2015

 ---------------------------------------------
 #p b3lyp/6-311++G(3df,2p) freq symmetry=Loose
 ---------------------------------------------

 ---------
 b3lyp opt
 ---------
 Symbolic Z-matrix:
 Charge =  2 Multiplicity = 2

                         Standard orientation:
 ---------------------------------------------------------------------
 Center     Atomic      Atomic             Coordinates (Angstroms)
 Number     Number       Type             X           Y           Z
 ---------------------------------------------------------------------
      1          6           0       -2.080925    0.000016   -0.159982
      2          6           0       -0.672851    0.000405   -0.026135
      3          6           0        0.413411   -0.956360    0.159894
      4          1           0        0.454058   -1.938370    0.642762
      5          6           0        1.373432   -0.000332   -0.248735
      6          1           0        2.407889   -0.000690   -0.594426
      7          6           0        0.414050    0.956379    0.159805
      8          1           0        0.455351    1.938409    0.642579
 ---------------------------------------------------------------------

 SCF Done:  E(UB3LYP) =  -191.254681010     A.U. after   25 cycles

 The electronic state is 2-A.
 Alpha  occ. eigenvalues --  -10.79673 -10.77432 -10.77432 -10.75197 -10.74485
 Alpha  occ. eigenvalues --   -1.46329  -1.26298  -1.16207  -1.11071  -1.02970
 Alpha  occ. eigenvalues --   -0.94557  -0.94104  -0.90452  -0.89294  -0.78905
 Alpha  occ. eigenvalues --   -0.76295
 Alpha virt. eigenvalues --   -0.60678  -0.58676  -0.55902  -0.45619  -0.33301
 Alpha virt. eigenvalues --   -0.31975  -0.31234  -0.30977  -0.29031  -0.26225
 Alpha virt. eigenvalues --   -0.26141  -0.24589  -0.23369  -0.22587  -0.20489

  Beta  occ. eigenvalues --  -10.78889 -10.77441 -10.77441 -10.74725 -10.74103
  Beta  occ. eigenvalues --   -1.45673  -1.23625  -1.16091  -1.09828  -1.02746
  Beta  occ. eigenvalues --   -0.93947  -0.93750  -0.89096  -0.88130  -0.77233
  Beta virt. eigenvalues --   -0.65382  -0.59839  -0.58433  -0.51941  -0.42406
  Beta virt. eigenvalues --   -0.32933  -0.31641  -0.31022  -0.30818  -0.28606
  Beta virt. eigenvalues --   -0.26114  -0.25874  -0.24502  -0.22755  -0.22471

 Mulliken charges and spin densities:
               1          2
     1  C   -0.052917   0.374104
     2  C    0.514090   0.354877
     3  C    0.199362   0.013452
     4  H    0.349242  -0.000285
     5  C    0.077556   0.241719
     6  H    0.363179   0.002904
     7  C    0.200228   0.013515
     8  H    0.349259  -0.000286
 Sum of Mulliken charges =   2.00000   1.00000

 Dipole moment (field-independent basis, Debye):
    X=              2.0295    Y=              0.0002    Z=              0.4251  Tot=              2.0736
 Quadrupole moment (field-independent basis, Debye-Ang):
   XX=             -7.9031   YY=            -11.2981   ZZ=            -22.3674
   XY=             -0.0008   XZ=             -0.5805   YZ=             -0.0001

  Exact polarizability:  66.478   0.000  40.703   1.572   0.000  27.818
 Approx polarizability: 114.197  -0.001  72.016  -2.762  -0.001  40.382

                      1                      2                      3
                      A                      A                      A
 Frequencies --    192.8882               256.2515               351.9265
 Red. masses --      4.0942                 5.9539                 2.5348
 Frc consts  --      0.0898                 0.2303                 0.1850
 IR Inten    --      9.8198                 3.9276                 3.1144

                      4                      5                      6
                      A                      A                      A
 Frequencies --    609.7531               833.1690               939.5787
 Red. masses --      3.5354                 2.3354                 2.9332
 Frc consts  --      0.7745                 0.9552                 1.5257
 IR Inten    --     13.3190                34.3808                 0.5438

                      7                      8                      9
                      A                      A                      A
 Frequencies --    944.0688               982.2364              1002.9652
 Red. masses --      1.6822                 1.8419                 1.7257
 Frc consts  --      0.8834                 1.0470                 1.0228
 IR Inten    --     12.5614                 0.2320                10.0824

                     10                     11                     12
                      A                      A                      A
 Frequencies --   1052.9144              1137.1967              1175.6680
 Red. masses --      1.2438                 1.7211                 1.3254
 Frc consts  --      0.8124                 1.3114                 1.0793
 IR Inten    --      2.5820                39.5758                 0.2661

                     13                     14                     15
                      A                      A                      A
 Frequencies --   1304.0227              1366.0118              1427.0624
 Red. masses --      3.2834                 3.7086                 8.4682
 Frc consts  --      3.2896                 4.0773                10.1608
 IR Inten    --     92.9186                55.5550                94.0705

                     16                     17                     18
                      A                      A                      A
 Frequencies --   3100.1228              3101.7698              3149.6089
 Red. masses --      1.0995                 1.1038                 1.1166
 Frc consts  --      6.2256                 6.2568                 6.5264
 IR Inten    --     66.0186               270.5520               190.1091

 - Thermochemistry -
 -------------------
 Temperature   298.150 Kelvin.  Pressure   1.00000 Atm.
 Atom     1 has atomic number  6 and mass  12.00000

 Molecular mass:    63.02348 amu.
 Principal axes and moments of inertia in atomic units:
                           1         2         3
     Eigenvalues --   115.59429 332.39469 427.67133
           X            0.99996   0.00001  -0.00921
           Y           -0.00001   1.00000   0.00000
           Z            0.00921  -0.00000   0.99996
 This molecule is an asymmetric top.
 Rotational symmetry number  1.
 Rotational temperatures (Kelvin)      0.74929     0.26058     0.20252
 Rotational constants (GHZ):          15.61272     5.42951     4.21993
 Zero-point vibrational energy     137135.2 (Joules/Mol)
                                   32.77610 (Kcal/Mol)
 Warning -- explicit consideration of   4 degrees of freedom as
           vibrations may cause significant error
 Vibrational temperatures:    277.52   368.69   506.34   877.30  1198.74
          (Kelvin)           1351.84  1358.30  1413.22  1443.04  1514.91
                             1636.17  1691.52  1876.20  1965.38  2053.22
                             4460.38  4462.75  4531.58

 Zero-point correction=                           0.052232 (Hartree/Particle)
 Thermal correction to Energy=                    0.056962
 Thermal correction to Enthalpy=                  0.057906
 Thermal correction to Gibbs Free Energy=         0.024476
 Sum of electronic and zero-point Energies=           -191.202449
 Sum of electronic and thermal Energies=              -191.197719
 Sum of electronic and thermal Enthalpies=            -191.196775
 Sum of electronic and thermal Free Energies=         -191.230205

                     E (Thermal)             CV                S
                      KCal/Mol        Cal/Mol-Kelvin    Cal/Mol-Kelvin
 Total                   35.744             15.561             70.358
 Electronic               0.000              0.000              1.377
 Translational            0.889              2.981             38.342
 Rotational               0.889              2.981             24.311
 Vibrational             33.967              9.599              6.327
 Vibration     1          0.635              1.850              2.200
 Vibration     2          0.666              1.752              1.687
 Vibration     3          0.728              1.571              1.158
 Vibration     4          0.969              1.011              0.433

 Optimization completed.
    -- Stationary point found.
 Normal termination of Gaussian 09 at Sun Jun 19 11:52:33 2016.
