 Gaussian 09, Revision E.01,
 Gaussian 09:  EM64L-G09RevE.01 30-Nov-2015

 ---------------------------------------------
 #p b3lyp/6-311++G(3df,2p) freq symmetry=Loose
 ---------------------------------------------

 ---------
 b3lyp opt
 ---------
 Symbolic Z-matrix:
 Charge =  1 Multiplicity = 1

                         Standard orientation:
 ---------------------------------------------------------------------
 Center     Atomic      Atomic             Coordinates (Angstroms)
 Number     Number       Type             X           Y           Z
 ---------------------------------------------------------------------
      1          1           0        1.457586   -0.497346    1.264086
      2          6           0        0.312806   -0.954860   -0.399692
      3          6           0       -0.765591   -0.078025   -0.097673
      4          6           0       -2.052804    0.019346    0.243306
      5          6           0        1.429852   -0.041333    0.268033
      6          1           0        2.422652    0.097985   -0.151411
      7          6           0        0.359410    0.847604   -0.065369
      8          1           0        0.417723    1.642965   -0.804296
 ---------------------------------------------------------------------

 SCF Done:  E(RB3LYP) =  -191.750545901     A.U. after   14 cycles

 The electronic state is 1-A.
 Alpha  occ. eigenvalues --  -10.54289 -10.53817 -10.51214 -10.46929 -10.46691
 Alpha  occ. eigenvalues --   -1.20192  -1.02597  -0.90551  -0.88267  -0.74487
 Alpha  occ. eigenvalues --   -0.71082  -0.67299  -0.66978  -0.58532  -0.56008
 Alpha  occ. eigenvalues --   -0.51263
 Alpha virt. eigenvalues --   -0.39807  -0.37320  -0.30073  -0.20754  -0.15643
 Alpha virt. eigenvalues --   -0.14911  -0.14078  -0.12033  -0.08872  -0.08042
 Alpha virt. eigenvalues --   -0.07258  -0.07163  -0.05945  -0.05883  -0.05547

 Mulliken charges:
               1
     1  H    0.261313
     2  C    0.200934
     3  C    0.805203
     4  C   -0.299499
     5  C   -0.448685
     6  H    0.223912
     7  C    0.009569
     8  H    0.247253
 Sum of Mulliken charges =   1.00000

 Dipole moment (field-independent basis, Debye):
    X=              1.9977    Y=              1.1390    Z=              0.0134  Tot=              2.2997
 Quadrupole moment (field-independent basis, Debye-Ang):
   XX=            -18.6752   YY=            -24.2391   ZZ=            -25.0558
   XY=              0.9226   XZ=              1.4936   YZ=             -2.5459

  Exact polarizability:  71.989  -1.697  47.163  -1.964   2.231  35.997
 Approx polarizability: 158.726 -13.684 103.193 -12.639  13.803  61.005

                      1                      2                      3
                      A                      A                      A
 Frequencies --     95.3993               197.0225               453.1221
 Red. masses --      8.1410                 4.9963                 3.5978
 Frc consts  --      0.0437                 0.1143                 0.4352
 IR Inten    --      3.4036                 1.5485                 0.1965

                      4                      5                      6
                      A                      A                      A
 Frequencies --    515.6369               607.5403               843.0118
 Red. masses --      3.0747                 3.3039                 3.1075
 Frc consts  --      0.4817                 0.7185                 1.3012
 IR Inten    --     34.1148                 4.9194                27.4814

                      7                      8                      9
                      A                      A                      A
 Frequencies --    899.1717               932.2420              1001.5048
 Red. masses --      1.8875                 1.4907                 3.1266
 Frc consts  --      0.8991                 0.7633                 1.8477
 IR Inten    --     11.8076                65.5566                 7.0233

                     10                     11                     12
                      A                      A                      A
 Frequencies --   1032.0966              1115.2964              1191.9845
 Red. masses --      1.7870                 1.3036                 1.7048
 Frc consts  --      1.1216                 0.9554                 1.4272
 IR Inten    --      5.5286                25.5677                 1.4956

                     13                     14                     15
                      A                      A                      A
 Frequencies --   1321.6270              1423.4142              1704.1580
 Red. masses --      1.8643                 1.2276                11.3526
 Frc consts  --      1.9186                 1.4654                19.4252
 IR Inten    --      1.5899                48.7164               648.4097

                     16                     17                     18
                      A                      A                      A
 Frequencies --   3025.8983              3140.9780              3151.8714
 Red. masses --      1.0684                 1.0932                 1.1008
 Frc consts  --      5.7636                 6.3542                 6.4430
 IR Inten    --    124.8035                11.5095                46.2968

 - Thermochemistry -
 -------------------
 Temperature   298.150 Kelvin.  Pressure   1.00000 Atm.
 Atom     1 has atomic number  1 and mass   1.00783

 Molecular mass:    63.02348 amu.
 Principal axes and moments of inertia in atomic units:
                           1         2         3
     Eigenvalues --   101.91197 351.82640 413.01719
           X            0.99990   0.00586   0.01277
           Y           -0.00437   0.99348  -0.11394
           Z           -0.01335   0.11387   0.99341
 This molecule is an asymmetric top.
 Rotational symmetry number  1.
 Rotational temperatures (Kelvin)      0.84989     0.24618     0.20971
 Rotational constants (GHZ):          17.70882     5.12964     4.36965
 Zero-point vibrational energy     135488.9 (Joules/Mol)
                                   32.38263 (Kcal/Mol)
 Warning -- explicit consideration of   5 degrees of freedom as
           vibrations may cause significant error
 Vibrational temperatures:    137.26   283.47   651.94   741.89   874.11
          (Kelvin)           1212.90  1293.71  1341.29  1440.94  1484.95
                             1604.66  1715.00  1901.52  2047.97  2451.90
                             4353.59  4519.16  4534.83

 Zero-point correction=                           0.051605 (Hartree/Particle)
 Thermal correction to Energy=                    0.056674
 Thermal correction to Enthalpy=                  0.057618
 Thermal correction to Gibbs Free Energy=         0.023950
 Sum of electronic and zero-point Energies=           -191.698941
 Sum of electronic and thermal Energies=              -191.693872
 Sum of electronic and thermal Enthalpies=            -191.692928
 Sum of electronic and thermal Free Energies=         -191.726596

                     E (Thermal)             CV                S
                      KCal/Mol        Cal/Mol-Kelvin    Cal/Mol-Kelvin
 Total                   35.564             16.353             70.861
 Electronic               0.000              0.000              0.000
 Translational            0.889              2.981             38.342
 Rotational               0.889              2.981             24.208
 Vibrational             33.786             10.391              8.311
 Vibration     1          0.603              1.952              3.546
 Vibration     2          0.636              1.844              2.161
 Vibration     3          0.812              1.354              0.786
 Vibration     4          0.871              1.215              0.620
 Vibration     5          0.966              1.016              0.437

 Normal termination of Gaussian 09 at Sun Jun 19 09:56:06 2016.
