 Gaussian 09, Revision E.01,
 Gaussian 09:  EM64L-G09RevE.01 30-Nov-2015

 ------------------------------------------------------
 #p b3lyp/6-311++G(3df,2p) freq IOp(2/17=3) IOp(2/18=3)
 ------------------------------------------------------

 ---------
 b3lyp opt
 ---------
 Symbolic Z-matrix:
 Charge =  1 Multiplicity = 3

                         Standard orientation:
 ---------------------------------------------------------------------
 Center     Atomic      Atomic             Coordinates (Angstroms)
 Number     Number       Type             X           Y           Z
 ---------------------------------------------------------------------
      1          6           0       -0.593792   -2.134734    0.000000
      2          1           0       -0.724879   -2.688806   -0.928741
      3          1           0       -0.724879   -2.688806    0.928741
      4          6           0       -0.303048   -0.875834    0.000000
      5          6           0        0.000000    0.421943    0.000000
      6          6           0        1.031826    1.426986    0.000000
      7          1           0        2.102997    1.567402    0.000000
      8          6           0       -0.243893    1.796623    0.000000
 ---------------------------------------------------------------------

 SCF Done:  E(UB3LYP) =  -191.849853928     A.U. after   17 cycles

 The electronic state is 3-A".
 Alpha  occ. eigenvalues --  -10.50472 -10.49566 -10.49202 -10.46299 -10.42360
 Alpha  occ. eigenvalues --   -1.19660  -1.04016  -0.93073  -0.83287  -0.73586
 Alpha  occ. eigenvalues --   -0.71081  -0.69238  -0.65377  -0.64724  -0.56411
 Alpha  occ. eigenvalues --   -0.49213  -0.48274
 Alpha virt. eigenvalues --   -0.26976  -0.24021  -0.21355  -0.15228  -0.13164
 Alpha virt. eigenvalues --   -0.11841  -0.10791  -0.10061  -0.08078  -0.06992
 Alpha virt. eigenvalues --   -0.05752  -0.05461  -0.04630  -0.03795  -0.03024

  Beta  occ. eigenvalues --  -10.50041 -10.48727 -10.48101 -10.45518 -10.42176
  Beta  occ. eigenvalues --   -1.17965  -1.01739  -0.91255  -0.81957  -0.71783
  Beta  occ. eigenvalues --   -0.67658  -0.66691  -0.63987  -0.62268  -0.51845
  Beta virt. eigenvalues --   -0.37986  -0.37928  -0.23962  -0.22178  -0.17333
  Beta virt. eigenvalues --   -0.14923  -0.12839  -0.11277  -0.10620  -0.09791
  Beta virt. eigenvalues --   -0.07848  -0.06576  -0.05291  -0.05175  -0.03844

 Mulliken charges and spin densities:
               1          2
     1  C   -0.153385   0.146404
     2  H    0.237153   0.045016
     3  H    0.237153   0.045016
     4  C    0.347411   0.427496
     5  C   -0.075314   0.186025
     6  C    0.063216   0.256701
     7  H    0.310597   0.000023
     8  C    0.033168   0.893319
 Sum of Mulliken charges =   1.00000   2.00000

 Dipole moment (field-independent basis, Debye):
    X=              1.4778    Y=             -0.7675    Z=             -0.0000  Tot=              1.6652
 Quadrupole moment (field-independent basis, Debye-Ang):
   XX=            -20.8517   YY=             -8.7118   ZZ=            -24.7188
   XY=              7.9741   XZ=              0.0000   YZ=              0.0000

  Exact polarizability:  41.815  12.278  99.287  -0.000   0.000  30.623
 Approx polarizability:  66.738  16.272 177.187   0.000   0.000  44.802

                      1                      2                      3
                     A'                     A"                     A"
 Frequencies --    193.1311               198.8361               371.9433
 Red. masses --      4.1812                 3.1705                 1.1207
 Frc consts  --      0.0919                 0.0739                 0.0914
 IR Inten    --      8.4074                 4.1442                 0.0138

                      4                      5                      6
                     A"                     A'                     A'
 Frequencies --    442.3364               504.7722               731.3191
 Red. masses --      5.5236                 5.4137                 5.6117
 Frc consts  --      0.6368                 0.8127                 1.7683
 IR Inten    --      0.0981                 7.5933                 2.6016

                      7                      8                      9
                     A"                     A"                     A'
 Frequencies --    836.2650               886.4947               919.8208
 Red. masses --      1.3524                 1.4821                 1.9661
 Frc consts  --      0.5573                 0.6862                 0.9801
 IR Inten    --     25.9431                 0.3725                23.5141

                     10                     11                     12
                     A'                     A'                     A'
 Frequencies --    941.0959               993.8785              1320.3765
 Red. masses --      1.3190                 2.6519                 1.8510
 Frc consts  --      0.6883                 1.5434                 1.9013
 IR Inten    --     44.2947                34.9632                 4.8654

                     13                     14                     15
                     A'                     A'                     A'
 Frequencies --   1412.8118              1623.3869              1913.2806
 Red. masses --      2.0977                 7.4804                10.4677
 Frc consts  --      2.4669                11.6150                22.5766
 IR Inten    --     89.9118                 7.9990               142.3627

                     16                     17                     18
                     A'                     A"                     A'
 Frequencies --   3068.2200              3143.1885              3246.0705
 Red. masses --      1.0563                 1.1120                 1.1166
 Frc consts  --      5.8589                 6.4726                 6.9324
 IR Inten    --     87.1651                43.9277                97.5522

 - Thermochemistry -
 -------------------
 Temperature   298.150 Kelvin.  Pressure   1.00000 Atm.
 Atom     1 has atomic number  6 and mass  12.00000

 Molecular mass:    63.02348 amu.
 Principal axes and moments of inertia in atomic units:
                           1         2         3
     Eigenvalues --    54.02443 566.72597 608.33296
           X            0.27608   0.96114   0.00000
           Y            0.96114  -0.27608   0.00000
           Z            0.00000   0.00000   1.00000
 This molecule is an asymmetric top.
 Rotational symmetry number  1.
 Rotational temperatures (Kelvin)      1.60323     0.15283     0.14238
 Rotational constants (GHZ):          33.40602     3.18450     2.96670
 Zero-point vibrational energy     136058.6 (Joules/Mol)
                                   32.51879 (Kcal/Mol)
 Warning -- explicit consideration of   5 degrees of freedom as
           vibrations may cause significant error
 Vibrational temperatures:    277.87   286.08   535.14   636.42   726.25
          (Kelvin)           1052.20  1203.20  1275.47  1323.42  1354.03
                             1429.97  1899.72  2032.72  2335.69  2752.78
                             4414.48  4522.34  4670.37

 Zero-point correction=                           0.051822 (Hartree/Particle)
 Thermal correction to Energy=                    0.056999
 Thermal correction to Enthalpy=                  0.057943
 Thermal correction to Gibbs Free Energy=         0.023338
 Sum of electronic and zero-point Energies=           -191.798032
 Sum of electronic and thermal Energies=              -191.792855
 Sum of electronic and thermal Enthalpies=            -191.791911
 Sum of electronic and thermal Free Energies=         -191.826516

                     E (Thermal)             CV                S
                      KCal/Mol        Cal/Mol-Kelvin    Cal/Mol-Kelvin
 Total                   35.767             17.290             72.832
 Electronic               0.000              0.000              2.183
 Translational            0.889              2.981             38.342
 Rotational               0.889              2.981             24.436
 Vibrational             33.990             11.329              7.871
 Vibration     1          0.635              1.849              2.198
 Vibration     2          0.637              1.842              2.144
 Vibration     3          0.744              1.530              1.072
 Vibration     4          0.802              1.378              0.819
 Vibration     5          0.860              1.239              0.646

 Optimization completed.
    -- Stationary point found.
 Normal termination of Gaussian 09 at Thu Jan 31 05:48:07 2019.
