 Gaussian 09, Revision E.01,
 Gaussian 09:  EM64L-G09RevE.01 30-Nov-2015

 ------------------------------------------------------
 #p b3lyp/6-311++G(3df,2p) freq IOp(2/17=3) IOp(2/18=3)
 ------------------------------------------------------

 ---------
 b3lyp opt
 ---------
 Symbolic Z-matrix:
 Charge =  3 Multiplicity = 1

                         Standard orientation:
 ---------------------------------------------------------------------
 Center     Atomic      Atomic             Coordinates (Angstroms)
 Number     Number       Type             X           Y           Z
 ---------------------------------------------------------------------
      1          6           0       -0.000000    0.000000   -1.219729
      2          6           0        0.000000    0.000000    1.385661
      3          6           0        0.000000    0.000000    0.108291
      4          6           0        0.000000    0.000000    2.672904
      5          1           0        0.000000    0.000000    3.794103
      6          6           0       -0.000000    0.000000   -2.523974
      7          1           0        0.945079   -0.000000   -3.166505
      8          1           0       -0.945079    0.000000   -3.166505
 ---------------------------------------------------------------------

 SCF Done:  E(RB3LYP) =  -190.547779183     A.U. after   14 cycles

 The electronic state is 1-A1.
 Alpha  occ. eigenvalues --  -11.03326 -11.01301 -10.98910 -10.94897 -10.93945
 Alpha  occ. eigenvalues --   -1.55443  -1.50499  -1.43855  -1.35874  -1.21074
 Alpha  occ. eigenvalues --   -1.17869  -1.11769  -1.08267  -1.05535  -0.99767
 Alpha virt. eigenvalues --   -0.90294  -0.84229  -0.75226  -0.68476  -0.57064
 Alpha virt. eigenvalues --   -0.53535  -0.52792  -0.49679  -0.47698  -0.44921
 Alpha virt. eigenvalues --   -0.41325  -0.41234  -0.39470  -0.38166  -0.36329

 Mulliken charges:
               1
     1  C    0.932021
     2  C    0.716486
     3  C   -0.470049
     4  C    0.608009
     5  H    0.500693
     6  C   -0.069882
     7  H    0.391361
     8  H    0.391361
 Sum of Mulliken charges =   3.00000

 Dipole moment (field-independent basis, Debye):
    X=              0.0000    Y=              0.0000    Z=              0.4444  Tot=              0.4444
 Quadrupole moment (field-independent basis, Debye-Ang):
   XX=            -18.0954   YY=            -22.8261   ZZ=             73.2018
   XY=             -0.0000   XZ=             -0.0000   YZ=             -0.0000

  Exact polarizability:  23.930  -0.000  21.394  -0.000   0.000 129.866
 Approx polarizability:  34.506  -0.000  29.357   0.000  -0.000 378.872

                      1                      2                      3
                     B1                     B2                     B2
 Frequencies --    145.0047               148.1120               300.6225
 Red. masses --      3.2040                 3.7503                 4.8757
 Frc consts  --      0.0397                 0.0485                 0.2596
 IR Inten    --     37.6695                44.9048                 0.0114

                      4                      5                      6
                     B1                     B1                     B2
 Frequencies --    305.4663               504.0546               621.8794
 Red. masses --      2.4143                 2.3296                 7.7533
 Frc consts  --      0.1327                 0.3487                 1.7666
 IR Inten    --      0.1196                30.6250                24.6157

                      7                      8                      9
                     A1                     B2                     B1
 Frequencies --    726.7450               768.6365               772.4971
 Red. masses --      5.8403                 1.3532                 3.3688
 Frc consts  --      1.8174                 0.4710                 1.1844
 IR Inten    --      0.0894                22.9254                 8.7935

                     10                     11                     12
                     B1                     B2                     A1
 Frequencies --    902.5712               941.2996              1085.7223
 Red. masses --      1.4655                 1.3934                 1.0976
 Frc consts  --      0.7034                 0.7274                 0.7623
 IR Inten    --      7.5797                48.1643               414.9580

                     13                     14                     15
                     A1                     A1                     A1
 Frequencies --   1366.8180              1660.7287              2093.2480
 Red. masses --      7.2035                 8.9686                 7.0715
 Frc consts  --      7.9290                14.5738                18.2560
 IR Inten    --    352.8648                 0.1581              1459.5427

                     16                     17                     18
                     A1                     B1                     A1
 Frequencies --   2585.3995              2594.6176              2910.1305
 Red. masses --      1.0514                 1.1001                 1.1886
 Frc consts  --      4.1408                 4.3634                 5.9310
 IR Inten    --   1655.0470               545.9015               487.3635

 - Thermochemistry -
 -------------------
 Temperature   298.150 Kelvin.  Pressure   1.00000 Atm.
 Atom     1 has atomic number  6 and mass  12.00000

 Molecular mass:    63.02348 amu.
 Principal axes and moments of inertia in atomic units:
                           1         2         3
     Eigenvalues --     6.42909 849.30704 855.73613
           X            0.00000   1.00000  -0.00000
           Y            0.00000   0.00000   1.00000
           Z            1.00000   0.00000  -0.00000
 This molecule is an asymmetric top.
 Rotational symmetry number  2.
 Rotational temperatures (Kelvin)     13.47217     0.10198     0.10122
 Rotational constants (GHZ):         280.71484     2.12496     2.10899
 Zero-point vibrational energy     122219.8 (Joules/Mol)
                                   29.21123 (Kcal/Mol)
 Warning -- explicit consideration of   5 degrees of freedom as
           vibrations may cause significant error
 Vibrational temperatures:    208.63   213.10   432.53   439.50   725.22
          (Kelvin)            894.74  1045.62  1105.90  1111.45  1298.60
                             1354.32  1562.11  1966.54  2389.42  3011.71
                             3719.81  3733.07  4187.02

 Zero-point correction=                           0.046551 (Hartree/Particle)
 Thermal correction to Energy=                    0.052299
 Thermal correction to Enthalpy=                  0.053243
 Thermal correction to Gibbs Free Energy=         0.019788
 Sum of electronic and zero-point Energies=           -190.501228
 Sum of electronic and thermal Energies=              -190.495480
 Sum of electronic and thermal Enthalpies=            -190.494536
 Sum of electronic and thermal Free Energies=         -190.527991

                     E (Thermal)             CV                S
                      KCal/Mol        Cal/Mol-Kelvin    Cal/Mol-Kelvin
 Total                   32.818             18.924             70.413
 Electronic               0.000              0.000              0.000
 Translational            0.889              2.981             38.342
 Rotational               0.889              2.981             21.684
 Vibrational             31.041             12.962             10.387
 Vibration     1          0.616              1.908              2.737
 Vibration     2          0.617              1.905              2.696
 Vibration     3          0.693              1.673              1.413
 Vibration     4          0.696              1.663              1.387
 Vibration     5          0.859              1.241              0.648

 Optimization completed.
    -- Stationary point found.
 Normal termination of Gaussian 09 at Thu Jan 31 05:55:52 2019.
