 Gaussian 09, Revision E.01,
 Gaussian 09:  EM64L-G09RevE.01 30-Nov-2015

 ---------------------------------------------
 #p b3lyp/6-311++G(3df,2p) freq symmetry=Loose
 ---------------------------------------------

 ---------
 b3lyp opt
 ---------
 Symbolic Z-matrix:
 Charge =  1 Multiplicity = 1

                         Standard orientation:
 ---------------------------------------------------------------------
 Center     Atomic      Atomic             Coordinates (Angstroms)
 Number     Number       Type             X           Y           Z
 ---------------------------------------------------------------------
      1          6           0       -0.454379   -2.156690    0.000000
      2          1           0       -1.476846   -2.536326    0.000000
      3          1           0        0.356509   -2.884327    0.000000
      4          6           0       -0.225934   -0.882461    0.000000
      5          6           0       -0.000000    0.397166   -0.000000
      6          6           0        0.910243    1.456860   -0.000000
      7          1           0        1.985679    1.561256   -0.000000
      8          6           0       -0.374153    1.828358   -0.000000
 ---------------------------------------------------------------------

 SCF Done:  E(RB3LYP) =  -191.878192535     A.U. after   13 cycles

 The electronic state is 1-A'.
 Alpha  occ. eigenvalues --  -10.50280 -10.48543 -10.47720 -10.46267 -10.46133
 Alpha  occ. eigenvalues --   -1.17641  -1.05667  -0.94613  -0.81788  -0.75297
 Alpha  occ. eigenvalues --   -0.71177  -0.68932  -0.64869  -0.61030  -0.54745
 Alpha  occ. eigenvalues --   -0.48845
 Alpha virt. eigenvalues --   -0.33776  -0.33431  -0.23461  -0.16075  -0.14371
 Alpha virt. eigenvalues --   -0.13239  -0.11845  -0.10393  -0.09859  -0.09674
 Alpha virt. eigenvalues --   -0.06841  -0.06013  -0.05081  -0.04552  -0.03746

 Mulliken charges:
               1
     1  C   -0.167042
     2  H    0.260027
     3  H    0.258357
     4  C    0.365622
     5  C    0.055684
     6  C    0.157158
     7  H    0.305973
     8  C   -0.235780
 Sum of Mulliken charges =   1.00000

 Dipole moment (field-independent basis, Debye):
    X=              1.9215    Y=             -3.2258    Z=              0.0000  Tot=              3.7547
 Quadrupole moment (field-independent basis, Debye-Ang):
   XX=            -20.0817   YY=             -8.3561   ZZ=            -27.0665
   XY=              8.5750   XZ=             -0.0000   YZ=             -0.0000

  Exact polarizability:  41.046   9.845 104.968   0.000   0.000  28.941
 Approx polarizability:  65.082  19.108 245.075  -0.000  -0.000  43.316

                      1                      2                      3
                     A'                     A"                     A'
 Frequencies --    160.7867               203.4373               423.8028
 Red. masses --      3.4451                 5.0684                 2.9598
 Frc consts  --      0.0525                 0.1236                 0.3132
 IR Inten    --      4.2937                 4.3418                 1.2105

                      4                      5                      6
                     A"                     A"                     A'
 Frequencies --    470.3171               554.2437               678.6946
 Red. masses --      1.1545                 6.2011                 6.9319
 Frc consts  --      0.1505                 1.1223                 1.8813
 IR Inten    --      0.3239                 0.2817                 4.8926

                      7                      8                      9
                     A'                     A"                     A'
 Frequencies --    829.9690               858.3417               943.7370
 Red. masses --      4.3665                 1.3537                 1.9041
 Frc consts  --      1.7722                 0.5876                 0.9992
 IR Inten    --     30.0146                30.0209                11.8000

                     10                     11                     12
                     A"                     A'                     A'
 Frequencies --    985.6109               990.1438              1241.4191
 Red. masses --      1.3283                 1.2560                 3.9156
 Frc consts  --      0.7603                 0.7255                 3.5554
 IR Inten    --     34.7786                 3.1576                27.3421

                     13                     14                     15
                     A'                     A'                     A'
 Frequencies --   1384.5505              1602.1317              1922.2404
 Red. masses --      1.3259                 6.6802                 9.8036
 Frc consts  --      1.4975                10.1027                21.3427
 IR Inten    --     20.1296                 5.4660                 4.8525

                     16                     17                     18
                     A'                     A'                     A'
 Frequencies --   3072.6591              3152.7116              3245.9436
 Red. masses --      1.0580                 1.1139                 1.1185
 Frc consts  --      5.8853                 6.5231                 6.9432
 IR Inten    --    134.4504                60.8651               100.5368

 - Thermochemistry -
 -------------------
 Temperature   298.150 Kelvin.  Pressure   1.00000 Atm.
 Atom     1 has atomic number  6 and mass  12.00000

 Molecular mass:    63.02348 amu.
 Principal axes and moments of inertia in atomic units:
                           1         2         3
     Eigenvalues --    54.51244 555.17515 609.68759
           X            0.20227   0.97933   0.00000
           Y            0.97933  -0.20227   0.00000
           Z           -0.00000  -0.00000   1.00000
 This molecule is an asymmetric top.
 Rotational symmetry number  1.
 Rotational temperatures (Kelvin)      1.58888     0.15601     0.14206
 Rotational constants (GHZ):          33.10696     3.25076     2.96011
 Zero-point vibrational energy     135900.2 (Joules/Mol)
                                   32.48093 (Kcal/Mol)
 Warning -- explicit consideration of   5 degrees of freedom as
           vibrations may cause significant error
 Vibrational temperatures:    231.34   292.70   609.76   676.68   797.43
          (Kelvin)            976.49  1194.14  1234.96  1357.83  1418.07
                             1424.59  1786.12  1992.06  2305.11  2765.67
                             4420.87  4536.04  4670.18

 Zero-point correction=                           0.051762 (Hartree/Particle)
 Thermal correction to Energy=                    0.056899
 Thermal correction to Enthalpy=                  0.057843
 Thermal correction to Gibbs Free Energy=         0.024289
 Sum of electronic and zero-point Energies=           -191.826431
 Sum of electronic and thermal Energies=              -191.821293
 Sum of electronic and thermal Enthalpies=            -191.820349
 Sum of electronic and thermal Free Energies=         -191.853903

                     E (Thermal)             CV                S
                      KCal/Mol        Cal/Mol-Kelvin    Cal/Mol-Kelvin
 Total                   35.705             17.168             70.621
 Electronic               0.000              0.000              0.000
 Translational            0.889              2.981             38.342
 Rotational               0.889              2.981             24.427
 Vibrational             33.927             11.207              7.852
 Vibration     1          0.622              1.890              2.541
 Vibration     2          0.639              1.835              2.102
 Vibration     3          0.786              1.418              0.879
 Vibration     4          0.827              1.316              0.737
 Vibration     5          0.910              1.130              0.535

 Optimization completed.
    -- Stationary point found.
 Normal termination of Gaussian 09 at Tue Jul 19 15:03:32 2016.
