 Gaussian 09, Revision E.01,
 Gaussian 09:  EM64L-G09RevE.01 30-Nov-2015

 ---------------------------------------------
 #p b3lyp/6-311++G(3df,2p) freq symmetry=Loose
 ---------------------------------------------

 ---------
 b3lyp opt
 ---------
 Symbolic Z-matrix:
 Charge =  0 Multiplicity = 4

                         Standard orientation:
 ---------------------------------------------------------------------
 Center     Atomic      Atomic             Coordinates (Angstroms)
 Number     Number       Type             X           Y           Z
 ---------------------------------------------------------------------
      1          6           0       -0.268500   -0.778377    0.000000
      2          6           0       -0.000000    0.723306    0.000000
      3          6           0        0.900532    1.706733   -0.000000
      4          1           0        0.580348    2.740370   -0.000000
      5          1           0        1.960455    1.498688   -0.000000
      6          6           0       -1.260759    0.155763    0.000000
      7          6           0        0.236060   -2.012963   -0.000000
      8          1           0       -0.184806   -3.005823   -0.000000
 ---------------------------------------------------------------------

 SCF Done:  E(UB3LYP) =  -192.084153515     A.U. after   16 cycles

 The electronic state is 4-A".
 Alpha  occ. eigenvalues --  -10.24725 -10.23861 -10.23827 -10.22658 -10.18912
 Alpha  occ. eigenvalues --   -0.93601  -0.77016  -0.74494  -0.54301  -0.53552
 Alpha  occ. eigenvalues --   -0.48202  -0.44790  -0.42158  -0.41020  -0.32101
 Alpha  occ. eigenvalues --   -0.29327  -0.23802  -0.22611
 Alpha virt. eigenvalues --   -0.00241   0.00252   0.00816   0.02840   0.03002
 Alpha virt. eigenvalues --    0.04588   0.05419   0.06278   0.06834   0.07551
 Alpha virt. eigenvalues --    0.09250   0.09735   0.09884   0.10938   0.11683

  Beta  occ. eigenvalues --  -10.23914 -10.23609 -10.22618 -10.20505 -10.18413
  Beta  occ. eigenvalues --   -0.91422  -0.74797  -0.70824  -0.52084  -0.51360
  Beta  occ. eigenvalues --   -0.46218  -0.41117  -0.39947  -0.37349  -0.25562
  Beta virt. eigenvalues --   -0.16528  -0.11845  -0.09016   0.00066   0.01029
  Beta virt. eigenvalues --    0.02624   0.03141   0.03769   0.05081   0.06058
  Beta virt. eigenvalues --    0.07080   0.08264   0.08281   0.09883   0.10589

 Mulliken charges and spin densities:
               1          2
     1  C    0.416820  -0.264239
     2  C    0.342239  -0.013132
     3  C   -0.546036   0.436361
     4  H    0.172396   0.016404
     5  H    0.173291  -0.002023
     6  C   -0.302542   1.307560
     7  C   -0.455344   1.494113
     8  H    0.199175   0.024955
 Sum of Mulliken charges =  -0.00000   3.00000

 Dipole moment (field-independent basis, Debye):
    X=              0.4020    Y=             -0.1902    Z=             -0.0000  Tot=              0.4447
 Quadrupole moment (field-independent basis, Debye-Ang):
   XX=            -29.8746   YY=            -25.0587   ZZ=            -31.8969
   XY=              1.9857   XZ=              0.0000   YZ=             -0.0000

  Exact polarizability:  60.962   9.670 104.810   0.000   0.000  38.819
 Approx polarizability: 100.775  12.391 163.818  -0.000   0.000  54.181

                      1                      2                      3
                     A'                     A"                     A'
 Frequencies --    218.5517               323.1040               441.6423
 Red. masses --      3.0943                 2.7228                 2.9120
 Frc consts  --      0.0871                 0.1675                 0.3346
 IR Inten    --      2.9648                 5.2190                 8.3151

                      4                      5                      6
                     A"                     A"                     A"
 Frequencies --    462.1907               546.2603               623.3895
 Red. masses --      3.0558                 1.2833                 1.5776
 Frc consts  --      0.3846                 0.2256                 0.3612
 IR Inten    --      4.3913                18.9450                 5.6708

                      7                      8                      9
                     A'                     A"                     A'
 Frequencies --    629.7855               795.8587               895.0622
 Red. masses --      3.3338                 1.3331                 1.7391
 Frc consts  --      0.7791                 0.4975                 0.8209
 IR Inten    --     22.3497                58.4770                10.2589

                     10                     11                     12
                     A'                     A'                     A'
 Frequencies --    935.2260              1048.5229              1133.2379
 Red. masses --      4.2597                 1.8036                 7.0288
 Frc consts  --      2.1951                 1.1683                 5.3183
 IR Inten    --     28.0522                 8.4466                 7.0199

                     13                     14                     15
                     A'                     A'                     A'
 Frequencies --   1388.0064              1481.4707              1737.4610
 Red. masses --      2.1929                 1.9034                10.3863
 Frc consts  --      2.4892                 2.4613                18.4732
 IR Inten    --     97.3175                34.6890                59.4656

                     16                     17                     18
                     A'                     A'                     A'
 Frequencies --   3135.8494              3224.3903              3226.5517
 Red. masses --      1.0544                 1.0953                 1.1156
 Frc consts  --      6.1087                 6.7094                 6.8430
 IR Inten    --      1.9225                 0.6108                 0.8300

 - Thermochemistry -
 -------------------
 Temperature   298.150 Kelvin.  Pressure   1.00000 Atm.
 Atom     1 has atomic number  6 and mass  12.00000

 Molecular mass:    63.02348 amu.
 Principal axes and moments of inertia in atomic units:
                           1         2         3
     Eigenvalues --   109.72942 428.90554 538.63495
           X            0.20545   0.97867   0.00000
           Y            0.97867  -0.20545   0.00000
           Z           -0.00000  -0.00000   1.00000
 This molecule is an asymmetric top.
 Rotational symmetry number  1.
 Rotational temperatures (Kelvin)      0.78934     0.20194     0.16080
 Rotational constants (GHZ):          16.44720     4.20778     3.35058
 Zero-point vibrational energy     133064.0 (Joules/Mol)
                                   31.80306 (Kcal/Mol)
 Warning -- explicit consideration of   5 degrees of freedom as
           vibrations may cause significant error
 Vibrational temperatures:    314.45   464.87   635.42   664.99   785.95
          (Kelvin)            896.92   906.12  1145.06  1287.79  1345.58
                             1508.59  1630.47  1997.03  2131.50  2499.82
                             4511.78  4639.17  4642.28

 Zero-point correction=                           0.050681 (Hartree/Particle)
 Thermal correction to Energy=                    0.055696
 Thermal correction to Enthalpy=                  0.056640
 Thermal correction to Gibbs Free Energy=         0.022102
 Sum of electronic and zero-point Energies=           -192.033472
 Sum of electronic and thermal Energies=              -192.028458
 Sum of electronic and thermal Enthalpies=            -192.027513
 Sum of electronic and thermal Free Energies=         -192.062051

                     E (Thermal)             CV                S
                      KCal/Mol        Cal/Mol-Kelvin    Cal/Mol-Kelvin
 Total                   34.950             17.637             72.691
 Electronic               0.000              0.000              2.755
 Translational            0.889              2.981             38.342
 Rotational               0.889              2.981             24.742
 Vibrational             33.172             11.675              6.853
 Vibration     1          0.646              1.813              1.971
 Vibration     2          0.708              1.629              1.294
 Vibration     3          0.801              1.379              0.821
 Vibration     4          0.820              1.334              0.760
 Vibration     5          0.901              1.148              0.552

 Optimization completed.
    -- Stationary point found.
 Normal termination of Gaussian 09 at Tue Jul 19 15:27:56 2016.
