 Gaussian 09, Revision E.01,
 Gaussian 09:  EM64L-G09RevE.01 30-Nov-2015

 ---------------------------------------------
 #p b3lyp/6-311++G(3df,2p) freq symmetry=Loose
 ---------------------------------------------

 ---------
 b3lyp opt
 ---------
 Symbolic Z-matrix:
 Charge =  0 Multiplicity = 4

                         Standard orientation:
 ---------------------------------------------------------------------
 Center     Atomic      Atomic             Coordinates (Angstroms)
 Number     Number       Type             X           Y           Z
 ---------------------------------------------------------------------
      1          6           0       -0.249924    1.711239    0.641311
      2          6           0       -0.249924    1.711239   -0.641311
      3          6           0       -0.249924   -0.847003    0.000000
      4          6           0        0.034207   -2.135485    0.000000
      5          1           0        1.065946   -2.490194   -0.000000
      6          1           0       -0.735300   -2.898284    0.000000
      7          6           0        0.410144    0.397833   -0.000000
      8          1           0        1.501880    0.361535   -0.000000
 ---------------------------------------------------------------------

 SCF Done:  E(UB3LYP) =  -192.031115902     A.U. after   17 cycles

 The electronic state is 4-A".
 Alpha  occ. eigenvalues --  -10.25699 -10.24569 -10.24445 -10.21748 -10.20208
 Alpha  occ. eigenvalues --   -0.90910  -0.80537  -0.68514  -0.55450  -0.49245
 Alpha  occ. eigenvalues --   -0.48912  -0.47572  -0.42552  -0.34558  -0.34124
 Alpha  occ. eigenvalues --   -0.30489  -0.24736  -0.24365
 Alpha virt. eigenvalues --   -0.03265  -0.00648  -0.00172   0.01264   0.02778
 Alpha virt. eigenvalues --    0.04139   0.04154   0.05416   0.07819   0.07929
 Alpha virt. eigenvalues --    0.08913   0.08997   0.10603   0.10611   0.10944

  Beta  occ. eigenvalues --  -10.25026 -10.23182 -10.23076 -10.20471 -10.19842
  Beta  occ. eigenvalues --   -0.88209  -0.77945  -0.66132  -0.52974  -0.47865
  Beta  occ. eigenvalues --   -0.45370  -0.42004  -0.40164  -0.29739  -0.28862
  Beta virt. eigenvalues --   -0.18806  -0.13606  -0.09756  -0.00900  -0.00358
  Beta virt. eigenvalues --    0.01409   0.02094   0.03156   0.04484   0.04663
  Beta virt. eigenvalues --    0.05769   0.08137   0.08951   0.09118   0.09985

 Mulliken charges and spin densities:
               1          2
     1  C   -0.102841   0.809841
     2  C   -0.102841   0.809841
     3  C    0.108660   1.012407
     4  C   -0.609639   0.166565
     5  H    0.120445   0.073823
     6  H    0.183301   0.019305
     7  C    0.223087   0.072129
     8  H    0.179828   0.036090
 Sum of Mulliken charges =  -0.00000   3.00000

 Dipole moment (field-independent basis, Debye):
    X=              1.1879    Y=             -1.7763    Z=              0.0000  Tot=              2.1369
 Quadrupole moment (field-independent basis, Debye-Ang):
   XX=            -28.9223   YY=            -28.8954   ZZ=            -31.7267
   XY=              0.2833   XZ=              0.0000   YZ=              0.0000

  Exact polarizability:  57.827  -0.060 106.213  -0.000  -0.000  52.147
 Approx polarizability:  70.307 -10.073 158.941   0.000  -0.000  97.161

                      1                      2                      3
                     A"                     A'                     A"
 Frequencies --    179.0287               214.2826               310.7176
 Red. masses --      5.0548                 3.1534                 2.8253
 Frc consts  --      0.0955                 0.0853                 0.1607
 IR Inten    --      2.5054                 0.4606                 2.2706

                      4                      5                      6
                     A'                     A"                     A"
 Frequencies --    444.4420               511.3052               611.1044
 Red. masses --      5.6937                 5.9318                 1.5571
 Frc consts  --      0.6626                 0.9137                 0.3426
 IR Inten    --      0.2034                 2.5358                 0.2340

                      7                      8                      9
                     A'                     A"                     A"
 Frequencies --    782.3240               884.6698               893.1630
 Red. masses --      4.2141                 1.3298                 1.2965
 Frc consts  --      1.5196                 0.6132                 0.6094
 IR Inten    --     10.7223                32.0994                29.3266

                     10                     11                     12
                     A'                     A'                     A'
 Frequencies --    950.3612              1079.7212              1288.0214
 Red. masses --      1.9355                 3.5716                 1.1622
 Frc consts  --      1.0300                 2.4532                 1.1360
 IR Inten    --     15.1515                 1.1129                23.5775

                     13                     14                     15
                     A'                     A'                     A'
 Frequencies --   1417.2015              1605.9690              1730.5841
 Red. masses --      1.1684                 6.6672                11.7100
 Frc consts  --      1.3826                10.1314                20.6629
 IR Inten    --     21.3144                 9.8063               122.7386

                     16                     17                     18
                     A'                     A'                     A'
 Frequencies --   3022.1001              3047.1876              3163.9220
 Red. masses --      1.0804                 1.0631                 1.1011
 Frc consts  --      5.8138                 5.8161                 6.4943
 IR Inten    --      6.2084                 5.8888                 0.8432

 - Thermochemistry -
 -------------------
 Temperature   298.150 Kelvin.  Pressure   1.00000 Atm.
 Atom     1 has atomic number  6 and mass  12.00000

 Molecular mass:    63.02348 amu.
 Principal axes and moments of inertia in atomic units:
                           1         2         3
     Eigenvalues --    63.44855 564.78693 571.83627
           X           -0.04556   0.00000   0.99896
           Y            0.99896   0.00000   0.04556
           Z           -0.00000   1.00000   0.00000
 This molecule is an asymmetric top.
 Rotational symmetry number  1.
 Rotational temperatures (Kelvin)      1.36510     0.15336     0.15147
 Rotational constants (GHZ):          28.44417     3.19544     3.15605
 Zero-point vibrational energy     132403.3 (Joules/Mol)
                                   31.64515 (Kcal/Mol)
 Warning -- explicit consideration of   6 degrees of freedom as
           vibrations may cause significant error
 Vibrational temperatures:    257.58   308.30   447.05   639.45   735.65
          (Kelvin)            879.24  1125.59  1272.84  1285.06  1367.36
                             1553.48  1853.17  2039.03  2310.63  2489.92
                             4348.12  4384.22  4552.17

 Zero-point correction=                           0.050430 (Hartree/Particle)
 Thermal correction to Energy=                    0.055732
 Thermal correction to Enthalpy=                  0.056676
 Thermal correction to Gibbs Free Energy=         0.021536
 Sum of electronic and zero-point Energies=           -191.980686
 Sum of electronic and thermal Energies=              -191.975384
 Sum of electronic and thermal Enthalpies=            -191.974439
 Sum of electronic and thermal Free Energies=         -192.009580

                     E (Thermal)             CV                S
                      KCal/Mol        Cal/Mol-Kelvin    Cal/Mol-Kelvin
 Total                   34.973             17.691             73.959
 Electronic               0.000              0.000              2.755
 Translational            0.889              2.981             38.342
 Rotational               0.889              2.981             24.531
 Vibrational             33.195             11.729              8.331
 Vibration     1          0.629              1.868              2.339
 Vibration     2          0.644              1.819              2.007
 Vibration     3          0.700              1.653              1.359
 Vibration     4          0.804              1.373              0.813
 Vibration     5          0.866              1.225              0.630
 Vibration     6          0.970              1.008              0.431

 Optimization completed.
    -- Stationary point found.
 Normal termination of Gaussian 09 at Tue Jul 19 14:07:57 2016.
