 Gaussian 09, Revision E.01,
 Gaussian 09:  EM64L-G09RevE.01 30-Nov-2015

 ---------------------------------------------
 #p b3lyp/6-311++G(3df,2p) freq symmetry=Loose
 ---------------------------------------------

 ---------
 b3lyp opt
 ---------
 Symbolic Z-matrix:
 Charge =  3 Multiplicity = 3

                         Standard orientation:
 ---------------------------------------------------------------------
 Center     Atomic      Atomic             Coordinates (Angstroms)
 Number     Number       Type             X           Y           Z
 ---------------------------------------------------------------------
      1          6           0       -2.301312   -0.354156   -0.000009
      2          1           0       -2.813216   -0.608464   -0.964065
      3          1           0       -2.813644   -0.607440    0.964090
      4          6           0       -1.074408    0.414024   -0.000125
      5          1           0       -1.331713    1.532829   -0.000904
      6          6           0        0.239935    0.135026    0.000161
      7          6           0        1.508460   -0.045270    0.000529
      8          6           0        2.787087   -0.202445   -0.000410
 ---------------------------------------------------------------------

 SCF Done:  E(UB3LYP) =  -190.444433013     A.U. after   18 cycles

 The electronic state is 3-A.
 Alpha  occ. eigenvalues --  -11.06446 -10.99892 -10.99125 -10.97686 -10.95044
 Alpha  occ. eigenvalues --   -1.55748  -1.51666  -1.42862  -1.35010  -1.20671
 Alpha  occ. eigenvalues --   -1.15465  -1.14391  -1.10595  -1.07472  -1.04029
 Alpha  occ. eigenvalues --   -0.98403
 Alpha virt. eigenvalues --   -0.84364  -0.81926  -0.78508  -0.61609  -0.58053
 Alpha virt. eigenvalues --   -0.51342  -0.49588  -0.46418  -0.45917  -0.43430
 Alpha virt. eigenvalues --   -0.40243  -0.39630  -0.38973  -0.37858  -0.37559

  Beta  occ. eigenvalues --  -11.02819 -10.99927 -10.99312 -10.97107 -10.94699
  Beta  occ. eigenvalues --   -1.54803  -1.49008  -1.40767  -1.33923  -1.20297
  Beta  occ. eigenvalues --   -1.15457  -1.13290  -1.04194  -1.02706
  Beta virt. eigenvalues --   -0.86738  -0.84591  -0.82316  -0.81262  -0.72070
  Beta virt. eigenvalues --   -0.58916  -0.53368  -0.50771  -0.49256  -0.45867
  Beta virt. eigenvalues --   -0.45736  -0.43222  -0.40099  -0.39347  -0.38774

 Mulliken charges and spin densities:
               1          2
     1  C    0.027832  -0.012033
     2  H    0.360389   0.017707
     3  H    0.360401   0.017702
     4  C    0.252270   0.253483
     5  H    0.331630  -0.017504
     6  C    0.228001  -0.000578
     7  C    0.844416   0.209435
     8  C    0.595061   1.531789
 Sum of Mulliken charges =   3.00000   2.00000

 Dipole moment (field-independent basis, Debye):
    X=             -2.2632    Y=             -0.3490    Z=             -0.0015  Tot=              2.2899
 Quadrupole moment (field-independent basis, Debye-Ang):
   XX=             53.2662   YY=            -15.6872   ZZ=            -19.6161
   XY=              0.1698   XZ=             -0.0023   YZ=             -0.0011

  Exact polarizability:  98.486  -2.893  27.363  -0.002  -0.001  23.702
 Approx polarizability: 204.457 -15.659  42.012  -0.011  -0.001  32.409

                      1                      2                      3
                      A                      A                      A
 Frequencies --    160.9923               194.4468               309.8922
 Red. masses --      5.3811                 3.3791                 1.2790
 Frc consts  --      0.0822                 0.0753                 0.0724
 IR Inten    --     18.2650                23.8653                 1.8795

                      4                      5                      6
                      A                      A                      A
 Frequencies --    312.2360               474.2408               549.1804
 Red. masses --      6.1356                 5.7718                 5.0045
 Frc consts  --      0.3524                 0.7648                 0.8893
 IR Inten    --      2.9189                 2.8435                 6.0590

                      7                      8                      9
                      A                      A                      A
 Frequencies --    643.8911               733.8861               947.9315
 Red. masses --      1.3323                 5.1014                 1.6151
 Frc consts  --      0.3254                 1.6188                 0.8551
 IR Inten    --     32.4680                15.5196                 3.2577

                     10                     11                     12
                      A                      A                      A
 Frequencies --    950.4174              1151.6855              1260.9388
 Red. masses --      1.5146                 2.0946                 2.0084
 Frc consts  --      0.8061                 1.6369                 1.8814
 IR Inten    --      0.7729                38.6682                55.0181

                     13                     14                     15
                      A                      A                      A
 Frequencies --   1318.9398              1576.6539              2007.7171
 Red. masses --      1.1113                 8.6962                11.6901
 Frc consts  --      1.1390                12.7366                27.7633
 IR Inten    --     81.5686               135.1358               185.2279

                     16                     17                     18
                      A                      A                      A
 Frequencies --   2560.0936              2780.5422              2886.6017
 Red. masses --      1.0759                 1.0447                 1.1227
 Frc consts  --      4.1546                 4.7590                 5.5119
 IR Inten    --    522.1503               719.8049               293.8757

 - Thermochemistry -
 -------------------
 Temperature   298.150 Kelvin.  Pressure   1.00000 Atm.
 Atom     1 has atomic number  6 and mass  12.00000

 Molecular mass:    63.02348 amu.
 Principal axes and moments of inertia in atomic units:
                           1         2         3
     Eigenvalues --    33.11648 776.64527 796.38138
           X            0.99998   0.00641   0.00001
           Y           -0.00641   0.99998   0.00001
           Z           -0.00001  -0.00001   1.00000
 This molecule is an asymmetric top.
 Rotational symmetry number  1.
 Rotational temperatures (Kelvin)      2.61543     0.11152     0.10876
 Rotational constants (GHZ):          54.49677     2.32377     2.26618
 Zero-point vibrational energy     124533.0 (Joules/Mol)
                                   29.76410 (Kcal/Mol)
 Warning -- explicit consideration of   6 degrees of freedom as
           vibrations may cause significant error
 Vibrational temperatures:    231.63   279.77   445.87   449.24   682.33
          (Kelvin)            790.15   926.41  1055.90  1363.86  1367.44
                             1657.02  1814.21  1897.66  2268.45  2888.65
                             3683.40  4000.58  4153.17

 Zero-point correction=                           0.047432 (Hartree/Particle)
 Thermal correction to Energy=                    0.053080
 Thermal correction to Enthalpy=                  0.054025
 Thermal correction to Gibbs Free Energy=         0.018504
 Sum of electronic and zero-point Energies=           -190.397001
 Sum of electronic and thermal Energies=              -190.391353
 Sum of electronic and thermal Enthalpies=            -190.390408
 Sum of electronic and thermal Free Energies=         -190.425929

                     E (Thermal)             CV                S
                      KCal/Mol        Cal/Mol-Kelvin    Cal/Mol-Kelvin
 Total                   33.308             18.649             74.759
 Electronic               0.000              0.000              2.183
 Translational            0.889              2.981             38.342
 Rotational               0.889              2.981             24.530
 Vibrational             31.531             12.687              9.704
 Vibration     1          0.622              1.890              2.538
 Vibration     2          0.635              1.848              2.185
 Vibration     3          0.699              1.655              1.363
 Vibration     4          0.701              1.650              1.350
 Vibration     5          0.831              1.307              0.726
 Vibration     6          0.904              1.141              0.546

 Optimization completed.
    -- Stationary point found.
 Normal termination of Gaussian 09 at Sun Jun 19 14:42:42 2016.
