 Gaussian 09, Revision E.01,
 Gaussian 09:  EM64L-G09RevE.01 30-Nov-2015

 ---------------------------------------------
 #p b3lyp/6-311++G(3df,2p) freq symmetry=Loose
 ---------------------------------------------

 ---------
 b3lyp opt
 ---------
 Symbolic Z-matrix:
 Charge =  0 Multiplicity = 4

                         Standard orientation:
 ---------------------------------------------------------------------
 Center     Atomic      Atomic             Coordinates (Angstroms)
 Number     Number       Type             X           Y           Z
 ---------------------------------------------------------------------
      1          6           0        0.000000    0.351377    0.000000
      2          6           0       -0.443272   -0.924278    0.000000
      3          6           0        0.911598    1.406938    0.000000
      4          6           0       -0.020593   -2.203353    0.000000
      5          6           0       -0.320174    1.849158    0.000000
      6          1           0        1.037393   -2.457166    0.000000
      7          1           0       -0.720775   -3.028457    0.000000
      8          1           0       -1.081973    2.606570    0.000000
 ---------------------------------------------------------------------

 SCF Done:  E(UB3LYP) =  -192.069598975     A.U. after   17 cycles

 The electronic state is 4-A".
 Alpha  occ. eigenvalues --  -10.25320 -10.24810 -10.24459 -10.20510 -10.17575
 Alpha  occ. eigenvalues --   -0.94130  -0.79161  -0.67510  -0.61136  -0.50198
 Alpha  occ. eigenvalues --   -0.47442  -0.44179  -0.43057  -0.42283  -0.31021
 Alpha  occ. eigenvalues --   -0.30840  -0.21382  -0.17230
 Alpha virt. eigenvalues --   -0.04689  -0.00197   0.00444   0.02578   0.04243
 Alpha virt. eigenvalues --    0.04443   0.04551   0.05613   0.07478   0.08641
 Alpha virt. eigenvalues --    0.09103   0.09677   0.10022   0.10901   0.11629

  Beta  occ. eigenvalues --  -10.24030 -10.23797 -10.23743 -10.19318 -10.16818
  Beta  occ. eigenvalues --   -0.91824  -0.75866  -0.64447  -0.59240  -0.47450
  Beta  occ. eigenvalues --   -0.43357  -0.41742  -0.39822  -0.39037  -0.27300
  Beta virt. eigenvalues --   -0.16925  -0.07455  -0.07288  -0.02188   0.00039
  Beta virt. eigenvalues --    0.00690   0.02861   0.04432   0.04954   0.05337
  Beta virt. eigenvalues --    0.06755   0.07804   0.08998   0.09729   0.10645

 Mulliken charges and spin densities:
               1          2
     1  C    0.287042   0.387528
     2  C   -0.048917   0.745694
     3  C   -0.147225   0.861221
     4  C   -0.641075   0.493295
     5  C   -0.021315   0.437647
     6  H    0.139553   0.060070
     7  H    0.174292   0.010243
     8  H    0.257646   0.004302
 Sum of Mulliken charges =  -0.00000   3.00000

 Dipole moment (field-independent basis, Debye):
    X=             -0.6135    Y=              1.2898    Z=              0.0000  Tot=              1.4283
 Quadrupole moment (field-independent basis, Debye-Ang):
   XX=            -28.9208   YY=            -25.2727   ZZ=            -31.9435
   XY=             -3.3705   XZ=              0.0000   YZ=              0.0000

  Exact polarizability:  51.740   0.522 112.470   0.000   0.000  39.876
 Approx polarizability:  84.865  -3.191 167.955  -0.000  -0.000  55.909

                      1                      2                      3
                     A"                     A'                     A"
 Frequencies --    171.0322               172.6801               327.1839
 Red. masses --      4.7296                 3.4405                 5.6610
 Frc consts  --      0.0815                 0.0604                 0.3570
 IR Inten    --      5.4647                 7.5966                 1.1059

                      4                      5                      6
                     A"                     A'                     A"
 Frequencies --    426.7754               428.4041               560.6408
 Red. masses --      1.1711                 3.5092                 1.2781
 Frc consts  --      0.1257                 0.3795                 0.2367
 IR Inten    --      2.0145                 5.4894                35.6949

                      7                      8                      9
                     A'                     A"                     A'
 Frequencies --    625.3605               680.5604               754.9484
 Red. masses --      4.9733                 1.3300                 5.8988
 Frc consts  --      1.1459                 0.3629                 1.9808
 IR Inten    --    159.6782                61.3470                15.3259

                     10                     11                     12
                     A'                     A'                     A'
 Frequencies --    883.4774               983.7588              1308.4656
 Red. masses --      1.3186                 1.6295                 3.0241
 Frc consts  --      0.6064                 0.9292                 3.0505
 IR Inten    --     55.8141                 1.9935                37.7191

                     13                     14                     15
                     A'                     A'                     A'
 Frequencies --   1437.0637              1510.7008              1716.0514
 Red. masses --      1.4685                 8.4316                 8.6716
 Frc consts  --      1.7869                11.3375                15.0455
 IR Inten    --     26.5696                15.4162                26.9053

                     16                     17                     18
                     A'                     A'                     A'
 Frequencies --   3072.4404              3178.7270              3275.7634
 Red. masses --      1.0580                 1.1037                 1.1086
 Frc consts  --      5.8846                 6.5708                 7.0090
 IR Inten    --      2.4956                 1.3616                35.7917

 - Thermochemistry -
 -------------------
 Temperature   298.150 Kelvin.  Pressure   1.00000 Atm.
 Atom     1 has atomic number  6 and mass  12.00000

 Molecular mass:    63.02348 amu.
 Principal axes and moments of inertia in atomic units:
                           1         2         3
     Eigenvalues --    55.57803 562.81182 618.38984
           X            0.07414   0.99725   0.00000
           Y            0.99725  -0.07414   0.00000
           Z            0.00000  -0.00000   1.00000
 This molecule is an asymmetric top.
 Rotational symmetry number  1.
 Rotational temperatures (Kelvin)      1.55842     0.15389     0.14006
 Rotational constants (GHZ):          32.47221     3.20665     2.91845
 Zero-point vibrational energy     128682.5 (Joules/Mol)
                                   30.75586 (Kcal/Mol)
 Warning -- explicit consideration of   6 degrees of freedom as
           vibrations may cause significant error
 Vibrational temperatures:    246.08   248.45   470.74   614.03   616.38
          (Kelvin)            806.64   899.75   979.17  1086.20  1271.13
                             1415.41  1882.59  2067.61  2173.56  2469.01
                             4420.55  4573.47  4713.09

 Zero-point correction=                           0.049013 (Hartree/Particle)
 Thermal correction to Energy=                    0.054675
 Thermal correction to Enthalpy=                  0.055619
 Thermal correction to Gibbs Free Energy=         0.019879
 Sum of electronic and zero-point Energies=           -192.020586
 Sum of electronic and thermal Energies=              -192.014924
 Sum of electronic and thermal Enthalpies=            -192.013980
 Sum of electronic and thermal Free Energies=         -192.049720

                     E (Thermal)             CV                S
                      KCal/Mol        Cal/Mol-Kelvin    Cal/Mol-Kelvin
 Total                   34.309             19.110             75.222
 Electronic               0.000              0.000              2.755
 Translational            0.889              2.981             38.342
 Rotational               0.889              2.981             24.473
 Vibrational             32.532             13.148              9.652
 Vibration     1          0.626              1.878              2.424
 Vibration     2          0.626              1.876              2.406
 Vibration     3          0.711              1.621              1.274
 Vibration     4          0.788              1.412              0.869
 Vibration     5          0.790              1.408              0.864
 Vibration     6          0.916              1.116              0.523

 Optimization completed.
    -- Stationary point found.
 Normal termination of Gaussian 09 at Sun Jun 19 08:12:41 2016.
