 Gaussian 09, Revision E.01,
 Gaussian 09:  EM64L-G09RevE.01 30-Nov-2015

 ---------------------------------------------
 #p b3lyp/6-311++G(3df,2p) freq symmetry=Loose
 ---------------------------------------------

 ---------
 b3lyp opt
 ---------
 Symbolic Z-matrix:
 Charge =  1 Multiplicity = 3

                         Standard orientation:
 ---------------------------------------------------------------------
 Center     Atomic      Atomic             Coordinates (Angstroms)
 Number     Number       Type             X           Y           Z
 ---------------------------------------------------------------------
      1          6           0       -1.873759   -0.000312    0.000315
      2          1           0       -2.256249    1.015978   -0.068775
      3          1           0       -2.243292   -0.594963   -0.839927
      4          1           0       -2.239183   -0.467574    0.920478
      5          6           0       -0.419464    0.011880   -0.003554
      6          6           0        0.761215   -0.764686   -0.000225
      7          6           0        0.759182    0.766199   -0.000041
      8          6           0        1.895947   -0.005321    0.001543
 ---------------------------------------------------------------------

 SCF Done:  E(UB3LYP) =  -191.778086202     A.U. after   15 cycles

 The electronic state is 3-A.
 Alpha  occ. eigenvalues --  -10.55098 -10.55071 -10.53900 -10.52955 -10.40474
 Alpha  occ. eigenvalues --   -1.29436  -1.04044  -0.94475  -0.83242  -0.73104
 Alpha  occ. eigenvalues --   -0.72336  -0.71411  -0.64125  -0.64003  -0.61849
 Alpha  occ. eigenvalues --   -0.56211  -0.48946
 Alpha virt. eigenvalues --   -0.33794  -0.29294  -0.21685  -0.15661  -0.11824
 Alpha virt. eigenvalues --   -0.11379  -0.11190  -0.09697  -0.08556  -0.08279
 Alpha virt. eigenvalues --   -0.07716  -0.06210  -0.05467  -0.04472  -0.03170

  Beta  occ. eigenvalues --  -10.54912 -10.54889 -10.51923 -10.51225 -10.40501
  Beta  occ. eigenvalues --   -1.28175  -1.01824  -0.92693  -0.81886  -0.70417
  Beta  occ. eigenvalues --   -0.70208  -0.69712  -0.62545  -0.61539  -0.58145
  Beta virt. eigenvalues --   -0.41751  -0.35693  -0.33655  -0.26774  -0.15496
  Beta virt. eigenvalues --   -0.15403  -0.11464  -0.11244  -0.10857  -0.09480
  Beta virt. eigenvalues --   -0.08151  -0.07889  -0.07033  -0.06005  -0.05099

 Mulliken charges and spin densities:
               1          2
     1  C   -0.611185  -0.021964
     2  H    0.198497  -0.000609
     3  H    0.205732   0.032573
     4  H    0.207679   0.038987
     5  C    0.057552   0.515989
     6  C    0.657175   0.046518
     7  C    0.697390   0.036286
     8  C   -0.412839   1.352220
 Sum of Mulliken charges =   1.00000   2.00000

 Dipole moment (field-independent basis, Debye):
    X=             -0.4760    Y=             -0.0341    Z=              0.0109  Tot=              0.4774
 Quadrupole moment (field-independent basis, Debye-Ang):
   XX=            -13.3492   YY=            -25.0925   ZZ=            -25.3263
   XY=              0.0894   XZ=             -0.0193   YZ=             -0.0006

  Exact polarizability:  65.453   0.440  40.189  -0.081  -0.001  29.543
 Approx polarizability: 104.932   1.088  82.468  -0.125   0.000  44.389

                      1                      2                      3
                      A                      A                      A
 Frequencies --     35.7532               219.8138               328.2957
 Red. masses --      1.2209                 3.9696                 3.3189
 Frc consts  --      0.0009                 0.1130                 0.2108
 IR Inten    --      0.3627                 1.1518                 0.3785

                      4                      5                      6
                      A                      A                      A
 Frequencies --    536.0056               579.7668               680.9589
 Red. masses --     10.1473                11.5469                 5.7436
 Frc consts  --      1.7177                 2.2868                 1.5692
 IR Inten    --      2.7849                 8.7936                 7.6952

                      7                      8                      9
                      A                      A                      A
 Frequencies --    850.4494               943.0164               987.4871
 Red. masses --      5.8057                 8.3702                 1.3559
 Frc consts  --      2.4740                 4.3855                 0.7790
 IR Inten    --     18.3941                29.1094                 4.6526

                     10                     11                     12
                      A                      A                      A
 Frequencies --   1067.3751              1392.9173              1431.6625
 Red. masses --      1.6077                 1.1780                 1.0395
 Frc consts  --      1.0791                 1.3466                 1.2554
 IR Inten    --     17.7249                28.6497                18.0604

                     13                     14                     15
                      A                      A                      A
 Frequencies --   1444.1898              1465.5823              1564.5638
 Red. masses --      1.0593                10.2646                10.7048
 Frc consts  --      1.3018                12.9901                15.4389
 IR Inten    --     14.4257                24.1307                76.4554

                     16                     17                     18
                      A                      A                      A
 Frequencies --   3010.9741              3064.6462              3133.2045
 Red. masses --      1.0373                 1.0978                 1.0998
 Frc consts  --      5.5406                 6.0748                 6.3611
 IR Inten    --     46.7099                11.7611                 8.9589

 - Thermochemistry -
 -------------------
 Temperature   298.150 Kelvin.  Pressure   1.00000 Atm.
 Atom     1 has atomic number  6 and mass  12.00000

 Molecular mass:    63.02348 amu.
 Principal axes and moments of inertia in atomic units:
                           1         2         3
     Eigenvalues --    61.60375 419.11506 469.50674
           X            1.00000   0.00093  -0.00020
           Y           -0.00093   1.00000  -0.00004
           Z            0.00020   0.00004   1.00000
 This molecule is an asymmetric top.
 Rotational symmetry number  1.
 Rotational temperatures (Kelvin)      1.40598     0.20666     0.18448
 Rotational constants (GHZ):          29.29597     4.30608     3.84391
 Zero-point vibrational energy     135995.4 (Joules/Mol)
                                   32.50369 (Kcal/Mol)
 Warning -- explicit consideration of   5 degrees of freedom as
           vibrations may cause significant error
 Vibrational temperatures:     51.44   316.26   472.34   771.19   834.15
          (Kelvin)            979.75  1223.61  1356.79  1420.77  1535.71
                             2004.09  2059.84  2077.86  2108.64  2251.06
                             4332.11  4409.34  4507.98

 Zero-point correction=                           0.051798 (Hartree/Particle)
 Thermal correction to Energy=                    0.057110
 Thermal correction to Enthalpy=                  0.058055
 Thermal correction to Gibbs Free Energy=         0.022342
 Sum of electronic and zero-point Energies=           -191.726288
 Sum of electronic and thermal Energies=              -191.720976
 Sum of electronic and thermal Enthalpies=            -191.720032
 Sum of electronic and thermal Free Energies=         -191.755744

                     E (Thermal)             CV                S
                      KCal/Mol        Cal/Mol-Kelvin    Cal/Mol-Kelvin
 Total                   35.837             16.640             75.163
 Electronic               0.000              0.000              2.183
 Translational            0.889              2.981             38.342
 Rotational               0.889              2.981             24.009
 Vibrational             34.060             10.678             10.629
 Vibration     1          0.594              1.982              5.482
 Vibration     2          0.647              1.811              1.961
 Vibration     3          0.712              1.619              1.268
 Vibration     4          0.891              1.170              0.574
 Vibration     5          0.936              1.075              0.486

 Normal termination of Gaussian 09 at Sun Jun 19 10:37:39 2016.
