 Gaussian 09, Revision E.01,
 Gaussian 09:  EM64L-G09RevE.01 30-Nov-2015

 ---------------------------------------------
 #p b3lyp/6-311++G(3df,2p) freq symmetry=Loose
 ---------------------------------------------

 ---------
 b3lyp opt
 ---------
 Symbolic Z-matrix:
 Charge =  2 Multiplicity = 2

                         Standard orientation:
 ---------------------------------------------------------------------
 Center     Atomic      Atomic             Coordinates (Angstroms)
 Number     Number       Type             X           Y           Z
 ---------------------------------------------------------------------
      1          6           0       -0.690584   -0.030280   -0.000163
      2          6           0        0.446368   -0.834772    0.000074
      3          6           0       -2.058342   -0.088300   -0.000003
      4          1           0       -2.993592    0.486072    0.000551
      5          6           0        0.410215    0.834439   -0.000094
      6          6           0        1.635121    0.024957    0.000077
      7          1           0        2.268450    0.039119    0.910663
      8          1           0        2.268470    0.038543   -0.910560
 ---------------------------------------------------------------------

 SCF Done:  E(UB3LYP) =  -191.226323545     A.U. after   17 cycles

 The electronic state is 2-A.
 Alpha  occ. eigenvalues --  -10.80285 -10.79387 -10.79204 -10.75425 -10.71234
 Alpha  occ. eigenvalues --   -1.48394  -1.28962  -1.17619  -1.06828  -1.01983
 Alpha  occ. eigenvalues --   -0.95753  -0.95139  -0.92722  -0.84232  -0.78768
 Alpha  occ. eigenvalues --   -0.77469
 Alpha virt. eigenvalues --   -0.65749  -0.57342  -0.52613  -0.43878  -0.33524
 Alpha virt. eigenvalues --   -0.32911  -0.30855  -0.28865  -0.28067  -0.26091
 Alpha virt. eigenvalues --   -0.23326  -0.22578  -0.22565  -0.20809  -0.20474

  Beta  occ. eigenvalues --  -10.79218 -10.79161 -10.78532 -10.75502 -10.71182
  Beta  occ. eigenvalues --   -1.48300  -1.26869  -1.16074  -1.06292  -1.00622
  Beta  occ. eigenvalues --   -0.95844  -0.94828  -0.91677  -0.83991  -0.78382
  Beta virt. eigenvalues --   -0.63952  -0.60348  -0.57296  -0.51248  -0.43240
  Beta virt. eigenvalues --   -0.33041  -0.32250  -0.30508  -0.28567  -0.28075
  Beta virt. eigenvalues --   -0.25683  -0.22853  -0.22417  -0.21990  -0.20705

 Mulliken charges and spin densities:
               1          2
     1  C    0.139745  -0.046970
     2  C    1.141584   0.019096
     3  C   -0.384366   0.944848
     4  H    0.385666   0.000481
     5  C    1.120038   0.058052
     6  C   -1.023773   0.039077
     7  H    0.310564  -0.007292
     8  H    0.310542  -0.007293
 Sum of Mulliken charges =   2.00000   1.00000

 Dipole moment (field-independent basis, Debye):
    X=             -1.5300    Y=              0.5063    Z=              0.0005  Tot=              1.6116
 Quadrupole moment (field-independent basis, Debye-Ang):
   XX=             12.1279   YY=            -23.2464   ZZ=            -21.1458
   XY=             -1.5674   XZ=             -0.0018   YZ=              0.0008

  Exact polarizability:  73.446   0.094  37.104  -0.001  -0.000  27.096
 Approx polarizability: 139.765   1.798  89.944   0.001  -0.004  42.451

                      1                      2                      3
                      A                      A                      A
 Frequencies --    227.0968               324.7429               481.3236
 Red. masses --      2.7490                 2.6695                 1.8844
 Frc consts  --      0.0835                 0.1659                 0.2572
 IR Inten    --     22.9523                29.3645                 0.1521

                      4                      5                      6
                      A                      A                      A
 Frequencies --    552.1146               575.3166               697.5637
 Red. masses --      1.3972                 1.9943                 6.0319
 Frc consts  --      0.2509                 0.3889                 1.7293
 IR Inten    --     25.6891                 7.7471                32.6936

                      7                      8                      9
                      A                      A                      A
 Frequencies --    720.7737               893.1863               944.8484
 Red. masses --      4.1701                 2.1692                10.0034
 Frc consts  --      1.2764                 1.0196                 5.2616
 IR Inten    --     57.4198                 7.3587                 0.1815

                     10                     11                     12
                      A                      A                      A
 Frequencies --    952.8747               992.6631              1083.0859
 Red. masses --      1.1708                 8.4950                 1.2503
 Frc consts  --      0.6263                 4.9319                 0.8642
 IR Inten    --      2.1636                 6.5288                30.2302

                     13                     14                     15
                      A                      A                      A
 Frequencies --   1216.5866              1273.6441              1560.2935
 Red. masses --      4.7512                 1.1979                 7.9350
 Frc consts  --      4.1432                 1.1449                11.3817
 IR Inten    --     63.5183               266.9764               406.4869

                     16                     17                     18
                      A                      A                      A
 Frequencies --   2893.9009              2928.3023              3094.1259
 Red. masses --      1.0582                 1.1069                 1.1070
 Frc consts  --      5.2213                 5.5923                 6.2439
 IR Inten    --    646.8518               231.1397               242.9692

 - Thermochemistry -
 -------------------
 Temperature   298.150 Kelvin.  Pressure   1.00000 Atm.
 Atom     1 has atomic number  6 and mass  12.00000

 Molecular mass:    63.02348 amu.
 Principal axes and moments of inertia in atomic units:
                           1         2         3
     Eigenvalues --    66.85285 407.50360 462.41906
           X            0.99991  -0.01316  -0.00001
           Y            0.01316   0.99991   0.00005
           Z            0.00001  -0.00005   1.00000
 This molecule is an asymmetric top.
 Rotational symmetry number  1.
 Rotational temperatures (Kelvin)      1.29559     0.21255     0.18731
 Rotational constants (GHZ):          26.99573     4.42877     3.90283
 Zero-point vibrational energy     128074.9 (Joules/Mol)
                                   30.61062 (Kcal/Mol)
 Warning -- explicit consideration of   5 degrees of freedom as
           vibrations may cause significant error
 Vibrational temperatures:    326.74   467.23   692.52   794.37   827.75
          (Kelvin)           1003.64  1037.03  1285.09  1359.42  1370.97
                             1428.22  1558.32  1750.39  1832.49  2244.91
                             4163.67  4213.17  4451.75

 Zero-point correction=                           0.048781 (Hartree/Particle)
 Thermal correction to Energy=                    0.053584
 Thermal correction to Enthalpy=                  0.054528
 Thermal correction to Gibbs Free Energy=         0.021316
 Sum of electronic and zero-point Energies=           -191.177542
 Sum of electronic and thermal Energies=              -191.172740
 Sum of electronic and thermal Enthalpies=            -191.171796
 Sum of electronic and thermal Free Energies=         -191.205008

                     E (Thermal)             CV                S
                      KCal/Mol        Cal/Mol-Kelvin    Cal/Mol-Kelvin
 Total                   33.624             17.002             69.901
 Electronic               0.000              0.000              1.377
 Translational            0.889              2.981             38.342
 Rotational               0.889              2.981             24.047
 Vibrational             31.847             11.041              6.134
 Vibration     1          0.651              1.800              1.902
 Vibration     2          0.709              1.626              1.286
 Vibration     3          0.838              1.291              0.707
 Vibration     4          0.907              1.135              0.540
 Vibration     5          0.932              1.085              0.494

 Optimization completed.
    -- Stationary point found.
 Normal termination of Gaussian 09 at Sun Jun 19 11:51:54 2016.
