 Gaussian 09, Revision E.01,
 Gaussian 09:  EM64L-G09RevE.01 30-Nov-2015

 ---------------------------------------------
 #p b3lyp/6-311++G(3df,2p) freq symmetry=Loose
 ---------------------------------------------

 ---------
 b3lyp opt
 ---------
 Symbolic Z-matrix:
 Charge =  0 Multiplicity = 4

                         Standard orientation:
 ---------------------------------------------------------------------
 Center     Atomic      Atomic             Coordinates (Angstroms)
 Number     Number       Type             X           Y           Z
 ---------------------------------------------------------------------
      1          6           0        0.277417    1.750791   -0.000000
      2          1           0        1.298466    2.103758   -0.000000
      3          1           0       -0.514905    2.485468   -0.000000
      4          6           0        0.000000    0.454004   -0.000000
      5          6           0        0.817252   -0.819865   -0.000000
      6          1           0        1.878032   -1.012028   -0.000000
      7          6           0       -0.346183   -1.558097    0.000000
      8          6           0       -1.192085   -0.423032    0.000000
 ---------------------------------------------------------------------

 SCF Done:  E(UB3LYP) =  -192.086730130     A.U. after   16 cycles

 The electronic state is 4-A".
 Alpha  occ. eigenvalues --  -10.24215 -10.24150 -10.22683 -10.21981 -10.18259
 Alpha  occ. eigenvalues --   -0.93065  -0.76296  -0.67128  -0.59163  -0.50259
 Alpha  occ. eigenvalues --   -0.47598  -0.47448  -0.41745  -0.39261  -0.30317
 Alpha  occ. eigenvalues --   -0.28909  -0.26677  -0.21770
 Alpha virt. eigenvalues --   -0.05043  -0.00293   0.01336   0.02751   0.03703
 Alpha virt. eigenvalues --    0.04608   0.05129   0.06885   0.07446   0.08833
 Alpha virt. eigenvalues --    0.09474   0.09960   0.10809   0.10859   0.12738

  Beta  occ. eigenvalues --  -10.22796 -10.22414 -10.21565 -10.20898 -10.18202
  Beta  occ. eigenvalues --   -0.89614  -0.75448  -0.62736  -0.56855  -0.47229
  Beta  occ. eigenvalues --   -0.45504  -0.45067  -0.37916  -0.36952  -0.25648
  Beta virt. eigenvalues --   -0.14589  -0.11280  -0.08428  -0.03590  -0.00177
  Beta virt. eigenvalues --    0.01528   0.03027   0.04613   0.05521   0.05661
  Beta virt. eigenvalues --    0.07239   0.08357   0.09324   0.10208   0.10495

 Mulliken charges and spin densities:
               1          2
     1  C   -0.723179   0.046191
     2  H    0.169360   0.000922
     3  H    0.170317   0.008221
     4  C    0.476138   0.006102
     5  C   -0.107132   0.589836
     6  H    0.248876   0.020245
     7  C   -0.105729   0.742370
     8  C   -0.128650   1.586113
 Sum of Mulliken charges =  -0.00000   3.00000

 Dipole moment (field-independent basis, Debye):
    X=              1.2731    Y=              0.6484    Z=             -0.0000  Tot=              1.4287
 Quadrupole moment (field-independent basis, Debye-Ang):
   XX=            -27.5198   YY=            -28.3730   ZZ=            -32.1085
   XY=             -1.0345   XZ=              0.0000   YZ=             -0.0000

  Exact polarizability:  57.735   4.065  78.893   0.000  -0.000  38.741
 Approx polarizability:  95.971   9.194 132.142  -0.000  -0.000  55.434

                      1                      2                      3
                     A"                     A'                     A"
 Frequencies --    257.8139               355.3154               549.5353
 Red. masses --      6.6889                 2.5647                 1.1337
 Frc consts  --      0.2619                 0.1908                 0.2017
 IR Inten    --      0.5911                 1.3697                64.3683

                      4                      5                      6
                     A"                     A'                     A"
 Frequencies --    603.4360               715.4406               726.4302
 Red. masses --      6.4656                 5.2093                 1.1281
 Frc consts  --      1.3871                 1.5710                 0.3508
 IR Inten    --      2.1640                 1.6874                 4.2389

                      7                      8                      9
                     A'                     A"                     A'
 Frequencies --    792.0546               891.9168               930.2885
 Red. masses --      4.4510                 1.3598                 3.6196
 Frc consts  --      1.6452                 0.6373                 1.8457
 IR Inten    --      0.9628                49.7070                 0.7298

                     10                     11                     12
                     A'                     A'                     A'
 Frequencies --   1020.4138              1082.4045              1132.8406
 Red. masses --      2.7404                 1.8133                 2.4068
 Frc consts  --      1.6812                 1.2517                 1.8198
 IR Inten    --      7.2604                11.6659                 1.0089

                     13                     14                     15
                     A'                     A'                     A'
 Frequencies --   1353.2450              1441.7858              1708.5387
 Red. masses --      6.3304                 1.1764                 7.0568
 Frc consts  --      6.8303                 1.4408                12.1369
 IR Inten    --      1.5914                 0.1862                36.1626

                     16                     17                     18
                     A'                     A'                     A'
 Frequencies --   3150.2043              3227.6847              3237.6211
 Red. masses --      1.0581                 1.0957                 1.1171
 Frc consts  --      6.1864                 6.7257                 6.8993
 IR Inten    --      0.6257                 2.7996                 2.6348

 - Thermochemistry -
 -------------------
 Temperature   298.150 Kelvin.  Pressure   1.00000 Atm.
 Atom     1 has atomic number  6 and mass  12.00000

 Molecular mass:    63.02348 amu.
 Principal axes and moments of inertia in atomic units:
                           1         2         3
     Eigenvalues --   111.55303 327.54708 439.10011
           X            0.16272   0.98667   0.00000
           Y            0.98667  -0.16272   0.00000
           Z           -0.00000  -0.00000   1.00000
 This molecule is an asymmetric top.
 Rotational symmetry number  1.
 Rotational temperatures (Kelvin)      0.77644     0.26443     0.19725
 Rotational constants (GHZ):          16.17833     5.50987     4.11009
 Zero-point vibrational energy     138629.1 (Joules/Mol)
                                   33.13314 (Kcal/Mol)
 Warning -- explicit consideration of   4 degrees of freedom as
           vibrations may cause significant error
 Vibrational temperatures:    370.94   511.22   790.66   868.21  1029.36
          (Kelvin)           1045.17  1139.59  1283.27  1338.48  1468.15
                             1557.34  1629.90  1947.02  2074.41  2458.20
                             4532.44  4643.91  4658.21

 Zero-point correction=                           0.052801 (Hartree/Particle)
 Thermal correction to Energy=                    0.057306
 Thermal correction to Enthalpy=                  0.058250
 Thermal correction to Gibbs Free Energy=         0.024759
 Sum of electronic and zero-point Energies=           -192.033929
 Sum of electronic and thermal Energies=              -192.029424
 Sum of electronic and thermal Enthalpies=            -192.028480
 Sum of electronic and thermal Free Energies=         -192.061971

                     E (Thermal)             CV                S
                      KCal/Mol        Cal/Mol-Kelvin    Cal/Mol-Kelvin
 Total                   35.960             15.811             70.488
 Electronic               0.000              0.000              2.755
 Translational            0.889              2.981             38.342
 Rotational               0.889              2.981             24.288
 Vibrational             34.183              9.849              5.104
 Vibration     1          0.667              1.750              1.677
 Vibration     2          0.731              1.564              1.143
 Vibration     3          0.905              1.141              0.545
 Vibration     4          0.962              1.025              0.444

 Optimization completed.
    -- Stationary point found.
 Normal termination of Gaussian 09 at Sun Jun 19 08:42:44 2016.
