 Gaussian 09, Revision E.01,
 Gaussian 09:  EM64L-G09RevE.01 30-Nov-2015

 ---------------------------------------------
 #p b3lyp/6-311++G(3df,2p) freq symmetry=Loose
 ---------------------------------------------

 ---------
 b3lyp opt
 ---------
 Symbolic Z-matrix:
 Charge =  1 Multiplicity = 1

                         Standard orientation:
 ---------------------------------------------------------------------
 Center     Atomic      Atomic             Coordinates (Angstroms)
 Number     Number       Type             X           Y           Z
 ---------------------------------------------------------------------
      1          6           0       -1.339487   -1.662412    0.000000
      2          1           0       -0.473138   -2.311340    0.000000
      3          1           0       -2.318291   -2.125112    0.000000
      4          6           0       -1.226309   -0.307245    0.000000
      5          1           0       -2.096976    0.346253    0.000000
      6          6           0        0.000000    0.298496    0.000000
      7          6           0        1.109724    0.869031    0.000000
      8          6           0        2.270807    1.483831    0.000000
 ---------------------------------------------------------------------

 SCF Done:  E(RB3LYP) =  -191.866442457     A.U. after   14 cycles

 The electronic state is 1-A'.
 Alpha  occ. eigenvalues --  -10.52964 -10.51223 -10.46282 -10.45430 -10.43443
 Alpha  occ. eigenvalues --   -1.09798  -1.03757  -0.94807  -0.87787  -0.76343
 Alpha  occ. eigenvalues --   -0.71019  -0.63862  -0.62811  -0.58424  -0.53788
 Alpha  occ. eigenvalues --   -0.53158
 Alpha virt. eigenvalues --   -0.38038  -0.37605  -0.24807  -0.16502  -0.14565
 Alpha virt. eigenvalues --   -0.13305  -0.11666  -0.10458  -0.09851  -0.08829
 Alpha virt. eigenvalues --   -0.07885  -0.07490  -0.05580  -0.05215  -0.04822

 Mulliken charges:
               1
     1  C   -0.425362
     2  H    0.220368
     3  H    0.248807
     4  C    0.189730
     5  H    0.220467
     6  C   -0.172872
     7  C    1.127960
     8  C   -0.409098
 Sum of Mulliken charges =   1.00000

 Dipole moment (field-independent basis, Debye):
    X=             -2.7097    Y=             -1.9779    Z=              0.0000  Tot=              3.3548
 Quadrupole moment (field-independent basis, Debye-Ang):
   XX=            -16.3799   YY=            -16.6803   ZZ=            -27.4763
   XY=              5.6916   XZ=              0.0000   YZ=              0.0000

  Exact polarizability:  86.434  36.884  69.397  -0.000  -0.000  31.104
 Approx polarizability: 201.733 104.268 140.629  -0.000  -0.000  45.348

                      1                      2                      3
                     A'                     A"                     A'
 Frequencies --    106.6253               137.7361               247.5524
 Red. masses --      6.1403                 5.1680                 4.6632
 Frc consts  --      0.0411                 0.0578                 0.1684
 IR Inten    --      1.4658                 0.4731                 0.9224

                      4                      5                      6
                     A"                     A'                     A"
 Frequencies --    375.8472               601.2417               679.5447
 Red. masses --      2.0282                 4.8916                 3.0206
 Frc consts  --      0.1688                 1.0418                 0.8218
 IR Inten    --      3.7254                 0.2832                 9.9216

                      7                      8                      9
                     A'                     A"                     A'
 Frequencies --    818.6695               933.0990              1063.5786
 Red. masses --      3.3068                 1.1001                 1.4498
 Frc consts  --      1.3058                 0.5643                 0.9662
 IR Inten    --     25.4630                32.3922                 7.3626

                     10                     11                     12
                     A"                     A'                     A'
 Frequencies --   1093.8903              1287.2006              1387.8625
 Red. masses --      1.3704                 1.3689                 2.0954
 Frc consts  --      0.9662                 1.3363                 2.3780
 IR Inten    --     12.7156                17.4438               206.2439

                     13                     14                     15
                     A'                     A'                     A'
 Frequencies --   1522.2366              1608.1271              2219.2179
 Red. masses --      1.9502                 4.5065                11.9726
 Frc consts  --      2.6625                 6.8664                34.7407
 IR Inten    --     25.8716               107.3388              1791.7053

                     16                     17                     18
                     A'                     A'                     A'
 Frequencies --   3117.6931              3147.4003              3251.3055
 Red. masses --      1.0860                 1.0606                 1.1215
 Frc consts  --      6.2195                 6.1905                 6.9847
 IR Inten    --     55.5860                12.9271                20.1817

 - Thermochemistry -
 -------------------
 Temperature   298.150 Kelvin.  Pressure   1.00000 Atm.
 Atom     1 has atomic number  6 and mass  12.00000

 Molecular mass:    63.02348 amu.
 Principal axes and moments of inertia in atomic units:
                           1         2         3
     Eigenvalues --    43.41768 694.28564 737.70333
           X            0.79009  -0.61299   0.00000
           Y            0.61299   0.79009   0.00000
           Z            0.00000   0.00000   1.00000
 This molecule is an asymmetric top.
 Rotational symmetry number  1.
 Rotational temperatures (Kelvin)      1.99490     0.12475     0.11741
 Rotational constants (GHZ):          41.56696     2.59942     2.44643
 Zero-point vibrational energy     141152.3 (Joules/Mol)
                                   33.73622 (Kcal/Mol)
 Warning -- explicit consideration of   5 degrees of freedom as
           vibrations may cause significant error
 Vibrational temperatures:    153.41   198.17   356.17   540.76   865.05
          (Kelvin)            977.71  1177.88  1342.52  1530.25  1573.86
                             1851.99  1996.82  2190.16  2313.73  3192.96
                             4485.66  4528.40  4677.90

 Zero-point correction=                           0.053762 (Hartree/Particle)
 Thermal correction to Energy=                    0.059288
 Thermal correction to Enthalpy=                  0.060232
 Thermal correction to Gibbs Free Energy=         0.025444
 Sum of electronic and zero-point Energies=           -191.812680
 Sum of electronic and thermal Energies=              -191.807154
 Sum of electronic and thermal Enthalpies=            -191.806210
 Sum of electronic and thermal Free Energies=         -191.840999

                     E (Thermal)             CV                S
                      KCal/Mol        Cal/Mol-Kelvin    Cal/Mol-Kelvin
 Total                   37.204             17.073             73.219
 Electronic               0.000              0.000              0.000
 Translational            0.889              2.981             38.342
 Rotational               0.889              2.981             24.612
 Vibrational             35.426             11.111             10.265
 Vibration     1          0.606              1.944              3.329
 Vibration     2          0.614              1.916              2.835
 Vibration     3          0.661              1.767              1.748
 Vibration     4          0.747              1.522              1.056
 Vibration     5          0.959              1.029              0.448

 Optimization completed.
    -- Stationary point found.
 Normal termination of Gaussian 09 at Sun Jun 19 09:43:56 2016.
