 Gaussian 09, Revision E.01,
 Gaussian 09:  EM64L-G09RevE.01 30-Nov-2015

 ---------------------------------------------
 #p b3lyp/6-311++G(3df,2p) freq symmetry=Loose
 ---------------------------------------------

 ---------
 b3lyp opt
 ---------
 Symbolic Z-matrix:
 Charge =  2 Multiplicity = 2

                         Standard orientation:
 ---------------------------------------------------------------------
 Center     Atomic      Atomic             Coordinates (Angstroms)
 Number     Number       Type             X           Y           Z
 ---------------------------------------------------------------------
      1          6           0       -0.665717    1.510052    0.000000
      2          1           0       -1.650550    1.980314    0.000000
      3          6           0        0.000000    0.285604    0.000000
      4          6           0        0.669539    1.508016    0.000000
      5          1           0        1.655514    1.975816    0.000000
      6          6           0       -0.000995   -1.072352   -0.000000
      7          6           0       -0.002924   -2.322071   -0.000000
      8          1           0       -0.004379   -3.411626   -0.000000
 ---------------------------------------------------------------------

 SCF Done:  E(UB3LYP) =  -191.364630889     A.U. after   15 cycles

 The electronic state is 2-A'.
 Alpha  occ. eigenvalues --  -10.75083 -10.74493 -10.73504 -10.71973 -10.71891
 Alpha  occ. eigenvalues --   -1.43249  -1.30307  -1.16641  -1.05323  -1.00688
 Alpha  occ. eigenvalues --   -0.99536  -0.88551  -0.87827  -0.87398  -0.79154
 Alpha  occ. eigenvalues --   -0.79103
 Alpha virt. eigenvalues --   -0.55516  -0.49200  -0.47725  -0.36737  -0.32051
 Alpha virt. eigenvalues --   -0.31789  -0.29716  -0.28192  -0.27919  -0.25217
 Alpha virt. eigenvalues --   -0.24375  -0.23946  -0.23143  -0.20307  -0.19695

  Beta  occ. eigenvalues --  -10.74435 -10.74188 -10.73010 -10.71868 -10.71785
  Beta  occ. eigenvalues --   -1.42645  -1.27346  -1.15596  -1.04650  -0.99955
  Beta  occ. eigenvalues --   -0.98822  -0.88376  -0.86997  -0.84762  -0.78246
  Beta virt. eigenvalues --   -0.67744  -0.55048  -0.47618  -0.44184  -0.36260
  Beta virt. eigenvalues --   -0.31681  -0.30774  -0.29543  -0.28015  -0.27505
  Beta virt. eigenvalues --   -0.25195  -0.23705  -0.23584  -0.22467  -0.20030

 Mulliken charges and spin densities:
               1          2
     1  C    0.144445   0.005218
     2  H    0.367950   0.015140
     3  C   -0.067889   0.252044
     4  C    0.142787   0.005648
     5  H    0.367938   0.015073
     6  C   -0.063794   0.378051
     7  C    0.668764   0.345714
     8  H    0.439798  -0.016888
 Sum of Mulliken charges =   2.00000   1.00000

 Dipole moment (field-independent basis, Debye):
    X=             -0.0019    Y=             -1.6000    Z=             -0.0000  Tot=              1.6000
 Quadrupole moment (field-independent basis, Debye-Ang):
   XX=            -15.1224   YY=             18.9893   ZZ=            -24.3868
   XY=              0.0414   XZ=              0.0000   YZ=              0.0000

  Exact polarizability:  32.458   0.067  83.377   0.000  -0.000  23.307
 Approx polarizability:  50.478   0.130 153.568  -0.000   0.000  33.648

                      1                      2                      3
                     A'                     A"                     A'
 Frequencies --    181.8868               210.4292               488.3324
 Red. masses --      3.3292                 4.1900                 3.7164
 Frc consts  --      0.0649                 0.1093                 0.5222
 IR Inten    --     13.5503                22.1279                 1.3414

                      4                      5                      6
                     A"                     A'                     A'
 Frequencies --    539.4169               722.4569               739.1737
 Red. masses --      4.2110                 3.6531                 1.4306
 Frc consts  --      0.7219                 1.1234                 0.4605
 IR Inten    --      2.0993                 0.1477                13.2647

                      7                      8                      9
                     A"                     A"                     A"
 Frequencies --    770.9271               864.2970               900.9313
 Red. masses --      1.2896                 1.3515                 1.4634
 Frc consts  --      0.4516                 0.5948                 0.6999
 IR Inten    --     25.7808                55.3878                 0.0000

                     10                     11                     12
                     A'                     A'                     A'
 Frequencies --    956.3705              1017.6114              1052.7590
 Red. masses --      1.2759                 1.4242                 6.0600
 Frc consts  --      0.6876                 0.8689                 3.9571
 IR Inten    --      0.1030                29.5611                53.8115

                     13                     14                     15
                     A'                     A'                     A'
 Frequencies --   1197.0912              1681.9959              2036.0730
 Red. masses --      7.5864                 5.1567                 6.2902
 Frc consts  --      6.4054                 8.5955                15.3639
 IR Inten    --     53.4629               146.4188               124.5631

                     16                     17                     18
                     A'                     A'                     A'
 Frequencies --   3121.6277              3166.3799              3201.4058
 Red. masses --      1.0952                 1.1586                 1.1613
 Frc consts  --      6.2881                 6.8438                 7.0125
 IR Inten    --    284.0475               299.7529               309.3354

 - Thermochemistry -
 -------------------
 Temperature   298.150 Kelvin.  Pressure   1.00000 Atm.
 Atom     1 has atomic number  6 and mass  12.00000

 Molecular mass:    63.02348 amu.
 Principal axes and moments of inertia in atomic units:
                           1         2         3
     Eigenvalues --    57.87011 549.04128 606.91139
           X            0.00120   1.00000   0.00000
           Y            1.00000  -0.00120   0.00000
           Z            0.00000   0.00000   1.00000
 This molecule is an asymmetric top.
 Rotational symmetry number  1.
 Rotational temperatures (Kelvin)      1.49669     0.15775     0.14271
 Rotational constants (GHZ):          31.18607     3.28708     2.97365
 Zero-point vibrational energy     136668.4 (Joules/Mol)
                                   32.66452 (Kcal/Mol)
 Warning -- explicit consideration of   4 degrees of freedom as
           vibrations may cause significant error
 Vibrational temperatures:    261.69   302.76   702.60   776.10  1039.45
          (Kelvin)           1063.50  1109.19  1243.53  1296.24  1376.00
                             1464.11  1514.68  1722.35  2420.01  2929.45
                             4491.32  4555.71  4606.10

 Zero-point correction=                           0.052054 (Hartree/Particle)
 Thermal correction to Energy=                    0.056983
 Thermal correction to Enthalpy=                  0.057927
 Thermal correction to Gibbs Free Energy=         0.024102
 Sum of electronic and zero-point Energies=           -191.312577
 Sum of electronic and thermal Energies=              -191.307648
 Sum of electronic and thermal Enthalpies=            -191.306704
 Sum of electronic and thermal Free Energies=         -191.340529

                     E (Thermal)             CV                S
                      KCal/Mol        Cal/Mol-Kelvin    Cal/Mol-Kelvin
 Total                   35.757             16.747             71.192
 Electronic               0.000              0.000              1.377
 Translational            0.889              2.981             38.342
 Rotational               0.889              2.981             24.470
 Vibrational             33.980             10.786              7.002
 Vibration     1          0.630              1.864              2.309
 Vibration     2          0.643              1.825              2.040
 Vibration     3          0.844              1.276              0.688
 Vibration     4          0.894              1.163              0.567

 Optimization completed.
    -- Stationary point found.
 Normal termination of Gaussian 09 at Sun Jun 19 12:18:21 2016.
