 Gaussian 09, Revision E.01,
 Gaussian 09:  EM64L-G09RevE.01 30-Nov-2015

 ---------------------------------------------
 #p b3lyp/6-311++G(3df,2p) freq symmetry=Loose
 ---------------------------------------------

 ---------
 b3lyp opt
 ---------
 Symbolic Z-matrix:
 Charge =  0 Multiplicity = 4

                         Standard orientation:
 ---------------------------------------------------------------------
 Center     Atomic      Atomic             Coordinates (Angstroms)
 Number     Number       Type             X           Y           Z
 ---------------------------------------------------------------------
      1          6           0       -0.000000   -0.740136   -1.041103
      2          6           0       -0.000000   -1.188126    0.238447
      3          1           0       -0.000000   -2.203121    0.598180
      4          6           0        0.000000    0.000000    1.050497
      5          1           0        0.000000    0.000000    2.132541
      6          6           0        0.000000    1.188126    0.238447
      7          1           0        0.000000    2.203121    0.598180
      8          6           0        0.000000    0.740136   -1.041103
 ---------------------------------------------------------------------

 SCF Done:  E(UB3LYP) =  -192.141131244     A.U. after   13 cycles

 The electronic state is 4-A2.
 Alpha  occ. eigenvalues --  -10.23435 -10.23405 -10.22409 -10.18311 -10.18307
 Alpha  occ. eigenvalues --   -0.90559  -0.73409  -0.71588  -0.56514  -0.52866
 Alpha  occ. eigenvalues --   -0.51258  -0.41981  -0.40925  -0.40705  -0.30677
 Alpha  occ. eigenvalues --   -0.27860  -0.25436  -0.25041
 Alpha virt. eigenvalues --   -0.00377   0.01360   0.02334   0.02362   0.02511
 Alpha virt. eigenvalues --    0.05422   0.05636   0.05659   0.07505   0.09309
 Alpha virt. eigenvalues --    0.09311   0.10185   0.10906   0.11748   0.12356

  Beta  occ. eigenvalues --  -10.21338 -10.21251 -10.21227 -10.18398 -10.18395
  Beta  occ. eigenvalues --   -0.87582  -0.71996  -0.67052  -0.55136  -0.49932
  Beta  occ. eigenvalues --   -0.47991  -0.40973  -0.39187  -0.36756  -0.23900
  Beta virt. eigenvalues --   -0.13778  -0.13539  -0.09273  -0.00294   0.01482
  Beta virt. eigenvalues --    0.02669   0.04649   0.05769   0.06192   0.06491
  Beta virt. eigenvalues --    0.07012   0.07769   0.09243   0.10032   0.10366

 Mulliken charges and spin densities:
               1          2
     1  C   -0.071233   1.364344
     2  C   -0.242936  -0.239680
     3  H    0.176417   0.019449
     4  C    0.093557   0.708530
     5  H    0.181948   0.003244
     6  C   -0.242936  -0.239680
     7  H    0.176417   0.019449
     8  C   -0.071233   1.364344
 Sum of Mulliken charges =  -0.00000   3.00000

 Dipole moment (field-independent basis, Debye):
    X=              0.0000    Y=             -0.0000    Z=              1.6109  Tot=              1.6109
 Quadrupole moment (field-independent basis, Debye-Ang):
   XX=            -31.9401   YY=            -27.0423   ZZ=            -27.9865
   XY=              0.0000   XZ=              0.0000   YZ=              0.0000

  Exact polarizability:  37.439  -0.000  60.138   0.000  -0.000  60.312
 Approx polarizability:  54.158   0.000  88.998  -0.000  -0.000 104.976

                      1                      2                      3
                     A2                     B1                     B2
 Frequencies --    447.0575               508.2902               546.0097
 Red. masses --      2.0425                 2.6678                11.0239
 Frc consts  --      0.2405                 0.4061                 1.9364
 IR Inten    --      0.0000                 0.8363                 1.7867

                      4                      5                      6
                     A2                     B1                     A1
 Frequencies --    694.2256               721.8150               787.6091
 Red. masses --      2.3286                 1.1799                 5.8893
 Frc consts  --      0.6612                 0.3622                 2.1525
 IR Inten    --      0.0000                98.1141                 1.8664

                      7                      8                      9
                     B1                     B2                     A1
 Frequencies --    839.9653               921.3632               952.9146
 Red. masses --      1.4507                 2.3985                 2.0183
 Frc consts  --      0.6031                 1.1996                 1.0798
 IR Inten    --      8.3315                 8.5940                 0.2991

                     10                     11                     12
                     A1                     B2                     B2
 Frequencies --   1087.5298              1166.7965              1189.9080
 Red. masses --      8.4549                 1.6159                 1.3981
 Frc consts  --      5.8917                 1.2962                 1.1663
 IR Inten    --      1.1407                 3.5521                 9.7260

                     13                     14                     15
                     A1                     B2                     A1
 Frequencies --   1284.3022              1459.6809              1463.8823
 Red. masses --      1.9339                 3.4505                 7.3261
 Frc consts  --      1.8794                 4.3316                 9.2498
 IR Inten    --     19.0279                 4.3554                26.8087

                     16                     17                     18
                     A1                     B2                     A1
 Frequencies --   3181.4400              3235.3941              3238.3868
 Red. masses --      1.0890                 1.0933                 1.0976
 Frc consts  --      6.4942                 6.7430                 6.7821
 IR Inten    --      3.9061                 0.7220                 0.0348

 - Thermochemistry -
 -------------------
 Temperature   298.150 Kelvin.  Pressure   1.00000 Atm.
 Atom     1 has atomic number  6 and mass  12.00000

 Molecular mass:    63.02348 amu.
 Principal axes and moments of inertia in atomic units:
                           1         2         3
     Eigenvalues --   163.38361 202.87262 366.25622
           X            0.00000   0.00000   1.00000
           Y            1.00000   0.00000  -0.00000
           Z            0.00000   1.00000   0.00000
 This molecule is an asymmetric top.
 Rotational symmetry number  2.
 Rotational temperatures (Kelvin)      0.53013     0.42694     0.23648
 Rotational constants (GHZ):          11.04604     8.89593     4.92754
 Zero-point vibrational energy     141916.4 (Joules/Mol)
                                   33.91884 (Kcal/Mol)
 Warning -- explicit consideration of   3 degrees of freedom as
           vibrations may cause significant error
 Vibrational temperatures:    643.22   731.32   785.59   998.83  1038.53
          (Kelvin)           1133.19  1208.52  1325.63  1371.03  1564.71
                             1678.76  1712.01  1847.82  2100.15  2106.20
                             4577.38  4655.00  4659.31

 Zero-point correction=                           0.054053 (Hartree/Particle)
 Thermal correction to Energy=                    0.058111
 Thermal correction to Enthalpy=                  0.059056
 Thermal correction to Gibbs Free Energy=         0.027142
 Sum of electronic and zero-point Energies=           -192.087078
 Sum of electronic and thermal Energies=              -192.083020
 Sum of electronic and thermal Enthalpies=            -192.082076
 Sum of electronic and thermal Free Energies=         -192.113989

                     E (Thermal)             CV                S
                      KCal/Mol        Cal/Mol-Kelvin    Cal/Mol-Kelvin
 Total                   36.465             14.556             67.168
 Electronic               0.000              0.000              2.755
 Translational            0.889              2.981             38.342
 Rotational               0.889              2.981             22.633
 Vibrational             34.688              8.595              3.438
 Vibration     1          0.806              1.367              0.805
 Vibration     2          0.863              1.232              0.638
 Vibration     3          0.901              1.148              0.553

 Optimization completed.
    -- Stationary point found.
 Normal termination of Gaussian 09 at Tue Jul 19 16:24:27 2016.
