 Gaussian 09, Revision E.01,
 Gaussian 09:  EM64L-G09RevE.01 30-Nov-2015

 ---------------------------------------------
 #p b3lyp/6-311++G(3df,2p) freq symmetry=Loose
 ---------------------------------------------

 ---------
 b3lyp opt
 ---------
 Symbolic Z-matrix:
 Charge =  2 Multiplicity = 4

                         Standard orientation:
 ---------------------------------------------------------------------
 Center     Atomic      Atomic             Coordinates (Angstroms)
 Number     Number       Type             X           Y           Z
 ---------------------------------------------------------------------
      1          6           0       -0.381871   -0.192840    0.000077
      2          6           0       -1.473915   -1.049490   -0.000179
      3          6           0       -1.027913    1.054702    0.000083
      4          1           0       -2.123099    1.140329   -0.000229
      5          1           0       -0.468704    1.998191    0.000316
      6          6           0        1.039838   -0.520242    0.000151
      7          6           0        2.051495    0.447190   -0.000234
      8          1           0        1.346002   -1.574441    0.000525
 ---------------------------------------------------------------------

 SCF Done:  E(UB3LYP) =  -191.099565873     A.U. after   26 cycles

 The electronic state is 4-A.
 Alpha  occ. eigenvalues --  -10.79618 -10.78467 -10.76014 -10.74558 -10.70778
 Alpha  occ. eigenvalues --   -1.36605  -1.28431  -1.15482  -1.08765  -1.00534
 Alpha  occ. eigenvalues --   -0.94115  -0.90125  -0.87100  -0.87021  -0.78331
 Alpha  occ. eigenvalues --   -0.78078  -0.72279
 Alpha virt. eigenvalues --   -0.60368  -0.58401  -0.55563  -0.40953  -0.32978
 Alpha virt. eigenvalues --   -0.30152  -0.29223  -0.27754  -0.25969  -0.25865
 Alpha virt. eigenvalues --   -0.23886  -0.21544  -0.21495  -0.20197  -0.19681

  Beta  occ. eigenvalues --  -10.79448 -10.75158 -10.74403 -10.74242 -10.70675
  Beta  occ. eigenvalues --   -1.35392  -1.23366  -1.14577  -1.04539  -0.98701
  Beta  occ. eigenvalues --   -0.92273  -0.89521  -0.84252  -0.77937
  Beta virt. eigenvalues --   -0.66318  -0.63082  -0.58870  -0.58150  -0.51235
  Beta virt. eigenvalues --   -0.48349  -0.37652  -0.32396  -0.29596  -0.28927
  Beta virt. eigenvalues --   -0.27267  -0.25361  -0.25090  -0.23169  -0.21025

 Mulliken charges and spin densities:
               1          2
     1  C    1.177234  -0.023534
     2  C    0.103540   0.100667
     3  C   -0.387510   0.077509
     4  H    0.287734  -0.002341
     5  H    0.268328   0.002390
     6  C   -0.004846   0.493461
     7  C    0.263794   2.313611
     8  H    0.291727   0.038237
 Sum of Mulliken charges =   2.00000   3.00000

 Dipole moment (field-independent basis, Debye):
    X=              1.0154    Y=              1.4325    Z=              0.0003  Tot=              1.7559
 Quadrupole moment (field-independent basis, Debye-Ang):
   XX=             -2.4166   YY=            -11.4245   ZZ=            -24.1322
   XY=             -3.4553   XZ=             -0.0002   YZ=             -0.0006

  Exact polarizability:  67.660   3.574  49.278  -0.001  -0.000  26.541
 Approx polarizability: 108.600  12.989  90.784  -0.003   0.000  40.411

                      1                      2                      3
                      A                      A                      A
 Frequencies --    101.7189               118.6759               247.0805
 Red. masses --      3.7104                 5.0562                 4.8038
 Frc consts  --      0.0226                 0.0420                 0.1728
 IR Inten    --      4.2984                11.8542                 4.2775

                      4                      5                      6
                      A                      A                      A
 Frequencies --    379.4428               528.1372               530.4223
 Red. masses --      3.6215                 1.0394                 5.4430
 Frc consts  --      0.3072                 0.1708                 0.9023
 IR Inten    --      8.1474                 1.7231                 4.4324

                      7                      8                      9
                      A                      A                      A
 Frequencies --    850.7292               890.9598               927.1347
 Red. masses --      4.9814                 1.6313                 1.4917
 Frc consts  --      2.1241                 0.7630                 0.7555
 IR Inten    --      3.0450                13.3221                39.1502

                     10                     11                     12
                      A                      A                      A
 Frequencies --   1121.6060              1233.0031              1315.7946
 Red. masses --      1.3655                 2.3521                 1.6882
 Frc consts  --      1.0121                 2.1068                 1.7221
 IR Inten    --     16.2441                38.3581               127.3406

                     13                     14                     15
                      A                      A                      A
 Frequencies --   1333.2001              1455.0466              1464.2890
 Red. masses --      6.9003                 2.6050                 1.6736
 Frc consts  --      7.2262                 3.2494                 2.1142
 IR Inten    --    132.8257               159.4789               108.5925

                     16                     17                     18
                      A                      A                      A
 Frequencies --   3003.9543              3039.3375              3104.1930
 Red. masses --      1.0558                 1.0895                 1.1204
 Frc consts  --      5.6133                 5.9295                 6.3608
 IR Inten    --    147.8891                95.1374               105.6235

 - Thermochemistry -
 -------------------
 Temperature   298.150 Kelvin.  Pressure   1.00000 Atm.
 Atom     1 has atomic number  6 and mass  12.00000

 Molecular mass:    63.02348 amu.
 Principal axes and moments of inertia in atomic units:
                           1         2         3
     Eigenvalues --   142.95275 396.26805 539.22079
           X            0.99701  -0.07726   0.00001
           Y            0.07726   0.99701  -0.00001
           Z           -0.00001   0.00001   1.00000
 This molecule is an asymmetric top.
 Rotational symmetry number  1.
 Rotational temperatures (Kelvin)      0.60589     0.21857     0.16063
 Rotational constants (GHZ):          12.62474     4.55434     3.34694
 Zero-point vibrational energy     129464.2 (Joules/Mol)
                                   30.94269 (Kcal/Mol)
 Warning -- explicit consideration of   6 degrees of freedom as
           vibrations may cause significant error
 Vibrational temperatures:    146.35   170.75   355.49   545.93   759.87
          (Kelvin)            763.16  1224.01  1281.89  1333.94  1613.74
                             1774.01  1893.13  1918.18  2093.48  2106.78
                             4322.01  4372.92  4466.24

 Zero-point correction=                           0.049310 (Hartree/Particle)
 Thermal correction to Energy=                    0.055040
 Thermal correction to Enthalpy=                  0.055984
 Thermal correction to Gibbs Free Energy=         0.019329
 Sum of electronic and zero-point Energies=           -191.050256
 Sum of electronic and thermal Energies=              -191.044526
 Sum of electronic and thermal Enthalpies=            -191.043582
 Sum of electronic and thermal Free Energies=         -191.080237

                     E (Thermal)             CV                S
                      KCal/Mol        Cal/Mol-Kelvin    Cal/Mol-Kelvin
 Total                   34.538             17.935             77.148
 Electronic               0.000              0.000              2.755
 Translational            0.889              2.981             38.342
 Rotational               0.889              2.981             24.927
 Vibrational             32.761             11.973             11.124
 Vibration     1          0.604              1.948              3.421
 Vibration     2          0.609              1.934              3.122
 Vibration     3          0.661              1.768              1.751
 Vibration     4          0.749              1.514              1.041
 Vibration     5          0.883              1.188              0.591
 Vibration     6          0.885              1.183              0.586

 Optimization completed.
    -- Stationary point found.
 Normal termination of Gaussian 09 at Sun Jun 19 12:22:16 2016.
