 Gaussian 09, Revision E.01,
 Gaussian 09:  EM64L-G09RevE.01 30-Nov-2015

 ---------------------------------------------
 #p b3lyp/6-311++G(3df,2p) freq symmetry=Loose
 ---------------------------------------------

 ---------
 b3lyp opt
 ---------
 Symbolic Z-matrix:
 Charge =  1 Multiplicity = 3

                         Standard orientation:
 ---------------------------------------------------------------------
 Center     Atomic      Atomic             Coordinates (Angstroms)
 Number     Number       Type             X           Y           Z
 ---------------------------------------------------------------------
      1          6           0        1.540557    0.643673    0.000334
      2          1           0        1.973989    1.631480   -0.002271
      3          6           0       -1.061458    0.000273    0.036858
      4          6           0        1.541048   -0.643166    0.000502
      5          1           0        1.976369   -1.630174   -0.002779
      6          6           0        0.223622   -0.000926    0.005905
      7          6           0       -2.351199    0.000011   -0.108079
      8          1           0       -3.305783   -0.000496    0.391929
 ---------------------------------------------------------------------

 SCF Done:  E(UB3LYP) =  -191.845298807     A.U. after   16 cycles

 The electronic state is 3-A.
 Alpha  occ. eigenvalues --  -10.47085 -10.46965 -10.46715 -10.46268 -10.45871
 Alpha  occ. eigenvalues --   -1.16904  -1.03702  -0.92250  -0.82681  -0.78329
 Alpha  occ. eigenvalues --   -0.74135  -0.65934  -0.64622  -0.62333  -0.55525
 Alpha  occ. eigenvalues --   -0.52007  -0.41474
 Alpha virt. eigenvalues --   -0.25583  -0.24962  -0.16550  -0.14262  -0.12778
 Alpha virt. eigenvalues --   -0.12655  -0.10590  -0.09817  -0.09136  -0.07225
 Alpha virt. eigenvalues --   -0.06051  -0.05484  -0.04950  -0.03056  -0.02194

  Beta  occ. eigenvalues --  -10.46831 -10.46711 -10.46030 -10.45699 -10.44397
  Beta  occ. eigenvalues --   -1.15536  -1.00708  -0.89112  -0.81730  -0.77439
  Beta  occ. eigenvalues --   -0.72344  -0.65050  -0.62129  -0.59004  -0.51588
  Beta virt. eigenvalues --   -0.41034  -0.30323  -0.23974  -0.20763  -0.14488
  Beta virt. eigenvalues --   -0.13142  -0.12453  -0.12401  -0.10127  -0.09525
  Beta virt. eigenvalues --   -0.08972  -0.06597  -0.05631  -0.04843  -0.03802

 Mulliken charges and spin densities:
               1          2
     1  C   -0.016989   0.124400
     2  H    0.315212   0.017132
     3  C    0.500225   0.094173
     4  C   -0.013884   0.122572
     5  H    0.315160   0.017316
     6  C   -0.336416   0.576375
     7  C   -0.044763   1.045602
     8  H    0.281454   0.002430
 Sum of Mulliken charges =   1.00000   2.00000

 Dipole moment (field-independent basis, Debye):
    X=              0.4702    Y=              0.0018    Z=              0.4959  Tot=              0.6833
 Quadrupole moment (field-independent basis, Debye-Ang):
   XX=             -3.1593   YY=            -19.7224   ZZ=            -27.9922
   XY=             -0.0002   XZ=             -1.8564   YZ=              0.0005

  Exact polarizability:  97.323   0.002  38.414   1.628  -0.001  29.447
 Approx polarizability: 174.471   0.016  61.991   5.554  -0.004  42.014

                      1                      2                      3
                      A                      A                      A
 Frequencies --    157.0256               222.7284               365.0879
 Red. masses --      3.5448                 4.4806                 6.8421
 Frc consts  --      0.0515                 0.1310                 0.5373
 IR Inten    --      7.7521                15.9801                 0.2126

                      4                      5                      6
                      A                      A                      A
 Frequencies --    485.2568               541.3470               653.7611
 Red. masses --      3.1699                 1.3519                 2.2299
 Frc consts  --      0.4398                 0.2334                 0.5615
 IR Inten    --      0.4030                86.2204                 0.0847

                      7                      8                      9
                      A                      A                      A
 Frequencies --    694.8965               719.5254               720.5642
 Red. masses --      3.0707                 2.1694                 1.6598
 Frc consts  --      0.8736                 0.6617                 0.5077
 IR Inten    --     27.2289                27.2548                56.8939

                     10                     11                     12
                      A                      A                      A
 Frequencies --    797.2532               928.6139               998.5792
 Red. masses --      1.4918                 1.1782                 1.3151
 Frc consts  --      0.5587                 0.5986                 0.7726
 IR Inten    --      0.0284                22.8843                14.5163

                     13                     14                     15
                      A                      A                      A
 Frequencies --   1240.0528              1694.7737              1967.5388
 Red. masses --      5.9492                 5.2920                 8.1347
 Frc consts  --      5.3900                 8.9556                18.5541
 IR Inten    --     70.7952                 0.3444                 1.2444

                     16                     17                     18
                      A                      A                      A
 Frequencies --   3229.6191              3268.9675              3286.3966
 Red. masses --      1.0851                 1.1092                 1.1620
 Frc consts  --      6.6685                 6.9834                 7.3946
 IR Inten    --    139.1302               103.2854               101.0615

 - Thermochemistry -
 -------------------
 Temperature   298.150 Kelvin.  Pressure   1.00000 Atm.
 Atom     1 has atomic number  6 and mass  12.00000

 Molecular mass:    63.02348 amu.
 Principal axes and moments of inertia in atomic units:
                           1         2         3
     Eigenvalues --    55.69166 559.28626 612.84461
           X            0.99997   0.00000  -0.00828
           Y           -0.00000   1.00000   0.00004
           Z            0.00828  -0.00004   0.99997
 This molecule is an asymmetric top.
 Rotational symmetry number  1.
 Rotational temperatures (Kelvin)      1.55524     0.15486     0.14133
 Rotational constants (GHZ):          32.40595     3.22686     2.94486
 Zero-point vibrational energy     131421.7 (Joules/Mol)
                                   31.41053 (Kcal/Mol)
 Warning -- explicit consideration of   5 degrees of freedom as
           vibrations may cause significant error
 Vibrational temperatures:    225.92   320.46   525.28   698.18   778.88
          (Kelvin)            940.62   999.80  1035.24  1036.73  1147.07
                             1336.07  1436.73  1784.16  2438.40  2830.85
                             4646.70  4703.31  4728.39

 Zero-point correction=                           0.050056 (Hartree/Particle)
 Thermal correction to Energy=                    0.055460
 Thermal correction to Enthalpy=                  0.056404
 Thermal correction to Gibbs Free Energy=         0.021444
 Sum of electronic and zero-point Energies=           -191.795243
 Sum of electronic and thermal Energies=              -191.789839
 Sum of electronic and thermal Enthalpies=            -191.788895
 Sum of electronic and thermal Free Energies=         -191.823855

                     E (Thermal)             CV                S
                      KCal/Mol        Cal/Mol-Kelvin    Cal/Mol-Kelvin
 Total                   34.802             18.718             73.581
 Electronic               0.000              0.000              2.183
 Translational            0.889              2.981             38.342
 Rotational               0.889              2.981             24.460
 Vibrational             33.024             12.756              8.595
 Vibration     1          0.621              1.895              2.585
 Vibration     2          0.648              1.806              1.937
 Vibration     3          0.738              1.544              1.100
 Vibration     4          0.841              1.283              0.696
 Vibration     5          0.896              1.159              0.562

 Normal termination of Gaussian 09 at Sun Jun 19 11:21:10 2016.
