 Gaussian 09, Revision E.01,
 Gaussian 09:  EM64L-G09RevE.01 30-Nov-2015

 ---------------------------------------------
 #p b3lyp/6-311++G(3df,2p) freq symmetry=Loose
 ---------------------------------------------

 ---------
 b3lyp opt
 ---------
 Symbolic Z-matrix:
 Charge =  1 Multiplicity = 3

                         Standard orientation:
 ---------------------------------------------------------------------
 Center     Atomic      Atomic             Coordinates (Angstroms)
 Number     Number       Type             X           Y           Z
 ---------------------------------------------------------------------
      1          6           0       -0.238022   -0.216484   -0.000208
      2          6           0       -1.429992   -0.843264    0.000073
      3          1           0       -1.903298    1.099936   -0.921086
      4          6           0        1.083608   -0.051734   -0.000122
      5          6           0        2.294153    0.124622    0.000007
      6          1           0        3.355322    0.269830    0.000862
      7          6           0       -1.634398    0.575360    0.000070
      8          1           0       -1.904116    1.099225    0.921304
 ---------------------------------------------------------------------

 SCF Done:  E(UB3LYP) =  -191.824211339     A.U. after   17 cycles

 The electronic state is 3-A.
 Alpha  occ. eigenvalues --  -10.50172 -10.50091 -10.46602 -10.45922 -10.44603
 Alpha  occ. eigenvalues --   -1.16461  -1.03853  -0.92249  -0.85068  -0.76705
 Alpha  occ. eigenvalues --   -0.71635  -0.68363  -0.64999  -0.59810  -0.56394
 Alpha  occ. eigenvalues --   -0.50943  -0.48389
 Alpha virt. eigenvalues --   -0.31553  -0.24096  -0.15228  -0.13518  -0.12985
 Alpha virt. eigenvalues --   -0.11645  -0.11256  -0.11178  -0.08689  -0.07337
 Alpha virt. eigenvalues --   -0.06470  -0.05610  -0.05177  -0.03597  -0.02677

  Beta  occ. eigenvalues --  -10.49505 -10.48423 -10.45758 -10.45614 -10.44772
  Beta  occ. eigenvalues --   -1.14024  -1.02544  -0.90780  -0.82816  -0.75895
  Beta  occ. eigenvalues --   -0.69219  -0.64409  -0.62698  -0.56951  -0.53095
  Beta virt. eigenvalues --   -0.41217  -0.36446  -0.26546  -0.22378  -0.14911
  Beta virt. eigenvalues --   -0.12605  -0.11541  -0.11043  -0.10968  -0.10783
  Beta virt. eigenvalues --   -0.08202  -0.07122  -0.05826  -0.04921  -0.04280

 Mulliken charges and spin densities:
               1          2
     1  C    0.113358   0.351794
     2  C    0.387941   0.900016
     3  H    0.245953   0.060043
     4  C   -0.434619   0.122997
     5  C    0.537917   0.400568
     6  H    0.376665  -0.015500
     7  C   -0.473178   0.120025
     8  H    0.245964   0.060057
 Sum of Mulliken charges =   1.00000   2.00000

 Dipole moment (field-independent basis, Debye):
    X=              0.9911    Y=              1.5053    Z=              0.0009  Tot=              1.8023
 Quadrupole moment (field-independent basis, Debye-Ang):
   XX=             -2.8447   YY=            -25.3331   ZZ=            -24.9191
   XY=             -1.6611   XZ=              0.0015   YZ=             -0.0005

  Exact polarizability: 100.744   3.394  41.262  -0.002  -0.000  30.852
 Approx polarizability: 203.660  20.498  67.172  -0.006  -0.002  44.692

                      1                      2                      3
                      A                      A                      A
 Frequencies --    185.1331               195.9777               446.3289
 Red. masses --      4.0901                 3.8308                 5.5474
 Frc consts  --      0.0826                 0.0867                 0.6511
 IR Inten    --      8.5597                 3.8081                10.4241

                      4                      5                      6
                      A                      A                      A
 Frequencies --    459.9649               582.0042               674.7536
 Red. masses --      4.5261                10.8881                 1.2519
 Frc consts  --      0.5642                 2.1730                 0.3358
 IR Inten    --      4.6752                11.3009                36.1053

                      7                      8                      9
                      A                      A                      A
 Frequencies --    763.4151               814.0262               833.3219
 Red. masses --      1.3518                 1.2683                 1.2168
 Frc consts  --      0.4642                 0.4951                 0.4978
 IR Inten    --     17.4184                 0.4171                 0.8014

                     10                     11                     12
                      A                      A                      A
 Frequencies --    913.1784              1010.5114              1137.8109
 Red. masses --      8.1898                 1.3242                 5.9297
 Frc consts  --      4.0238                 0.7967                 4.5230
 IR Inten    --     36.4121                42.6088                43.0087

                     13                     14                     15
                      A                      A                      A
 Frequencies --   1371.0521              1635.4829              2082.0214
 Red. masses --      1.0989                 9.7796                 7.0194
 Frc consts  --      1.2171                15.4121                17.9276
 IR Inten    --     44.7146                40.7656               230.9387

                     16                     17                     18
                      A                      A                      A
 Frequencies --   3004.5379              3082.6482              3374.7616
 Red. masses --      1.0471                 1.1100                 1.1478
 Frc consts  --      5.5690                 6.2146                 7.7018
 IR Inten    --    111.0606                31.5896               157.2955

 - Thermochemistry -
 -------------------
 Temperature   298.150 Kelvin.  Pressure   1.00000 Atm.
 Atom     1 has atomic number  6 and mass  12.00000

 Molecular mass:    63.02348 amu.
 Principal axes and moments of inertia in atomic units:
                           1         2         3
     Eigenvalues --    61.90193 553.36487 603.05031
           X            0.99972  -0.02379   0.00001
           Y            0.02379   0.99972  -0.00001
           Z           -0.00001   0.00001   1.00000
 This molecule is an asymmetric top.
 Rotational symmetry number  1.
 Rotational temperatures (Kelvin)      1.39921     0.15652     0.14363
 Rotational constants (GHZ):          29.15485     3.26139     2.99269
 Zero-point vibrational energy     134980.2 (Joules/Mol)
                                   32.26105 (Kcal/Mol)
 Warning -- explicit consideration of   5 degrees of freedom as
           vibrations may cause significant error
 Vibrational temperatures:    266.36   281.97   642.17   661.79   837.37
          (Kelvin)            970.82  1098.38  1171.20  1198.96  1313.86
                             1453.90  1637.05  1972.64  2353.09  2995.56
                             4322.85  4435.24  4855.52

 Zero-point correction=                           0.051411 (Hartree/Particle)
 Thermal correction to Energy=                    0.056564
 Thermal correction to Enthalpy=                  0.057508
 Thermal correction to Gibbs Free Energy=         0.022908
 Sum of electronic and zero-point Energies=           -191.772800
 Sum of electronic and thermal Energies=              -191.767647
 Sum of electronic and thermal Enthalpies=            -191.766703
 Sum of electronic and thermal Free Energies=         -191.801304

                     E (Thermal)             CV                S
                      KCal/Mol        Cal/Mol-Kelvin    Cal/Mol-Kelvin
 Total                   35.495             17.531             72.823
 Electronic               0.000              0.000              2.183
 Translational            0.889              2.981             38.342
 Rotational               0.889              2.981             24.539
 Vibrational             33.717             11.570              7.760
 Vibration     1          0.631              1.860              2.276
 Vibration     2          0.636              1.845              2.171
 Vibration     3          0.806              1.369              0.807
 Vibration     4          0.818              1.339              0.766
 Vibration     5          0.939              1.070              0.482

 Optimization completed.
    -- Stationary point found.
 Normal termination of Gaussian 09 at Sun Jun 19 10:07:34 2016.
