 Gaussian 09, Revision E.01,
 Gaussian 09:  EM64L-G09RevE.01 30-Nov-2015

 ---------------------------------------------
 #p b3lyp/6-311++G(3df,2p) freq symmetry=Loose
 ---------------------------------------------

 ---------
 b3lyp opt
 ---------
 Symbolic Z-matrix:
 Charge =  1 Multiplicity = 1

                         Standard orientation:
 ---------------------------------------------------------------------
 Center     Atomic      Atomic             Coordinates (Angstroms)
 Number     Number       Type             X           Y           Z
 ---------------------------------------------------------------------
      1          1           0       -0.383007    1.769324    0.927525
      2          6           0        0.521354   -0.106530   -0.000166
      3          6           0        1.837968   -0.092045   -0.000106
      4          6           0       -1.122851   -0.034665   -0.000635
      5          6           0       -0.585839   -1.185355    0.000059
      6          1           0       -0.601871   -2.261149    0.001536
      7          6           0       -0.422654    1.205384    0.000308
      8          1           0       -0.382984    1.771088   -0.925826
 ---------------------------------------------------------------------

 SCF Done:  E(RB3LYP) =  -191.785518668     A.U. after   13 cycles

 The electronic state is 1-A.
 Alpha  occ. eigenvalues --  -10.53748 -10.51124 -10.50580 -10.48390 -10.47653
 Alpha  occ. eigenvalues --   -1.22607  -1.00575  -0.98240  -0.82582  -0.75622
 Alpha  occ. eigenvalues --   -0.74550  -0.73574  -0.66217  -0.60837  -0.52231
 Alpha  occ. eigenvalues --   -0.49762
 Alpha virt. eigenvalues --   -0.33983  -0.33513  -0.27032  -0.20758  -0.16881
 Alpha virt. eigenvalues --   -0.14546  -0.13681  -0.11678  -0.11596  -0.10596
 Alpha virt. eigenvalues --   -0.07827  -0.07636  -0.07080  -0.05119  -0.04443

 Mulliken charges:
               1
     1  H    0.272498
     2  C    0.731496
     3  C   -0.579968
     4  C    0.633500
     5  C   -0.037423
     6  H    0.360612
     7  C   -0.652936
     8  H    0.272222
 Sum of Mulliken charges =   1.00000

 Dipole moment (field-independent basis, Debye):
    X=             -3.1798    Y=              0.0218    Z=              0.0022  Tot=              3.1798
 Quadrupole moment (field-independent basis, Debye-Ang):
   XX=            -26.4145   YY=            -12.9618   ZZ=            -26.6325
   XY=              0.3253   XZ=             -0.0021   YZ=             -0.0038

  Exact polarizability:  60.014  -0.027  49.313   0.000  -0.002  31.057
 Approx polarizability: 127.636  -4.212  83.506   0.006  -0.005  46.118

                      1                      2                      3
                      A                      A                      A
 Frequencies --    154.9821               197.9994               322.7752
 Red. masses --      3.6893                 5.9790                 4.4248
 Frc consts  --      0.0522                 0.1381                 0.2716
 IR Inten    --      3.6566                 5.0854                10.6630

                      4                      5                      6
                      A                      A                      A
 Frequencies --    524.5020               597.3242               699.8061
 Red. masses --      7.4409                 6.4839                 7.1920
 Frc consts  --      1.2061                 1.3630                 2.0752
 IR Inten    --     48.4341                27.0131                 5.9706

                      7                      8                      9
                      A                      A                      A
 Frequencies --    746.2408               966.0615               988.5042
 Red. masses --      1.2861                 1.1331                 1.2989
 Frc consts  --      0.4220                 0.6230                 0.7478
 IR Inten    --     32.2761                 3.7086                10.9632

                     10                     11                     12
                      A                      A                      A
 Frequencies --   1023.0342              1132.9252              1149.6513
 Red. masses --      1.3227                 1.4182                 2.8390
 Frc consts  --      0.8157                 1.0725                 2.2108
 IR Inten    --      0.4894                15.6445                 5.8759

                     13                     14                     15
                      A                      A                      A
 Frequencies --   1460.5542              1664.5782              1838.4824
 Red. masses --      1.1518                11.6128                 6.8379
 Frc consts  --      1.4477                18.9582                13.6173
 IR Inten    --     10.1819               152.5864                 6.4976

                     16                     17                     18
                      A                      A                      A
 Frequencies --   3105.8284              3200.0552              3304.1923
 Red. masses --      1.0529                 1.1193                 1.1296
 Frc consts  --      5.9838                 6.7531                 7.2661
 IR Inten    --     38.3271                40.3619               151.0614

 - Thermochemistry -
 -------------------
 Temperature   298.150 Kelvin.  Pressure   1.00000 Atm.
 Atom     1 has atomic number  1 and mass   1.00783

 Molecular mass:    63.02348 amu.
 Principal axes and moments of inertia in atomic units:
                           1         2         3
     Eigenvalues --   170.42154 241.23735 399.29654
           X            1.00000  -0.00113  -0.00003
           Y            0.00113   1.00000  -0.00005
           Z            0.00003   0.00005   1.00000
 This molecule is an asymmetric top.
 Rotational symmetry number  1.
 Rotational temperatures (Kelvin)      0.50823     0.35904     0.21692
 Rotational constants (GHZ):          10.58987     7.48118     4.51980
 Zero-point vibrational energy     138034.1 (Joules/Mol)
                                   32.99094 (Kcal/Mol)
 Warning -- explicit consideration of   5 degrees of freedom as
           vibrations may cause significant error
 Vibrational temperatures:    222.98   284.88   464.40   754.64   859.42
          (Kelvin)           1006.86  1073.67  1389.95  1422.24  1471.92
                             1630.02  1654.09  2101.41  2394.95  2645.16
                             4468.59  4604.16  4753.99

 Zero-point correction=                           0.052574 (Hartree/Particle)
 Thermal correction to Energy=                    0.057740
 Thermal correction to Enthalpy=                  0.058684
 Thermal correction to Gibbs Free Energy=         0.025071
 Sum of electronic and zero-point Energies=           -191.732944
 Sum of electronic and thermal Energies=              -191.727778
 Sum of electronic and thermal Enthalpies=            -191.726834
 Sum of electronic and thermal Free Energies=         -191.760447

                     E (Thermal)             CV                S
                      KCal/Mol        Cal/Mol-Kelvin    Cal/Mol-Kelvin
 Total                   36.233             16.939             70.744
 Electronic               0.000              0.000              0.000
 Translational            0.889              2.981             38.342
 Rotational               0.889              2.981             24.310
 Vibrational             34.455             10.977              8.092
 Vibration     1          0.620              1.897              2.610
 Vibration     2          0.637              1.843              2.152
 Vibration     3          0.708              1.630              1.296
 Vibration     4          0.879              1.196              0.600
 Vibration     5          0.955              1.037              0.454

 Normal termination of Gaussian 09 at Sun Jun 19 09:46:30 2016.
