 Gaussian 09, Revision E.01,
 Gaussian 09:  EM64L-G09RevE.01 30-Nov-2015

 ---------------------------------------------
 #p b3lyp/6-311++G(3df,2p) freq symmetry=Loose
 ---------------------------------------------

 ---------
 b3lyp opt
 ---------
 Symbolic Z-matrix:
 Charge =  1 Multiplicity = 1

                         Standard orientation:
 ---------------------------------------------------------------------
 Center     Atomic      Atomic             Coordinates (Angstroms)
 Number     Number       Type             X           Y           Z
 ---------------------------------------------------------------------
      1          6           0       -1.364699    0.487419   -0.000000
      2          1           0       -2.143711    1.260651   -0.000000
      3          6           0        1.045792   -0.060131    0.000000
      4          6           0       -1.857368   -0.750273    0.000000
      5          6           0        2.014538   -0.788479    0.000000
      6          1           0        2.862851   -1.441106    0.000000
      7          6           0        0.000000    0.827190   -0.000000
      8          1           0        0.251273    1.886105   -0.000000
 ---------------------------------------------------------------------

 SCF Done:  E(RB3LYP) =  -191.846822432     A.U. after   14 cycles

 The electronic state is 1-A'.
 Alpha  occ. eigenvalues --  -10.51693 -10.51177 -10.44952 -10.43417 -10.42679
 Alpha  occ. eigenvalues --   -1.09679  -1.01696  -0.94749  -0.82509  -0.75549
 Alpha  occ. eigenvalues --   -0.74019  -0.69164  -0.61232  -0.54393  -0.53095
 Alpha  occ. eigenvalues --   -0.52363
 Alpha virt. eigenvalues --   -0.38223  -0.34784  -0.22337  -0.20948  -0.14750
 Alpha virt. eigenvalues --   -0.12935  -0.12346  -0.11153  -0.10805  -0.09385
 Alpha virt. eigenvalues --   -0.07860  -0.06822  -0.06111  -0.05317  -0.04374

 Mulliken charges:
               1
     1  C    0.213174
     2  H    0.207044
     3  C   -0.028092
     4  C   -0.285366
     5  C    0.447511
     6  H    0.380041
     7  C   -0.169877
     8  H    0.235564
 Sum of Mulliken charges =   1.00000

 Dipole moment (field-independent basis, Debye):
    X=              0.8776    Y=              1.6121    Z=             -0.0000  Tot=              1.8355
 Quadrupole moment (field-independent basis, Debye-Ang):
   XX=             -8.7519   YY=            -20.0922   ZZ=            -27.6026
   XY=             -9.1583   XZ=              0.0000   YZ=              0.0000

  Exact polarizability:  88.536  -8.490  48.664  -0.000   0.001  30.749
 Approx polarizability: 176.645 -19.739  87.493   0.000  -0.000  44.874

                      1                      2                      3
                     A'                     A"                     A'
 Frequencies --    133.8082               169.7732               246.2429
 Red. masses --      7.1704                 3.1205                 5.1970
 Frc consts  --      0.0756                 0.0530                 0.1857
 IR Inten    --     10.8672                11.3785                 6.5877

                      4                      5                      6
                     A"                     A'                     A"
 Frequencies --    318.2802               575.6508               684.7335
 Red. masses --      2.5958                 6.0206                 1.3113
 Frc consts  --      0.1549                 1.1755                 0.3622
 IR Inten    --     17.2321                12.0665                18.2131

                      7                      8                      9
                     A'                     A"                     A'
 Frequencies --    696.9352               842.3764               946.9807
 Red. masses --      1.2443                 1.3465                 2.1567
 Frc consts  --      0.3561                 0.5630                 1.1395
 IR Inten    --     41.7475                15.0671                 1.7934

                     10                     11                     12
                     A"                     A'                     A'
 Frequencies --    987.0746              1063.7907              1193.5791
 Red. masses --      1.6012                 2.0374                 1.5011
 Frc consts  --      0.9192                 1.3584                 1.2599
 IR Inten    --      0.6133                 1.8905                37.1688

                     13                     14                     15
                     A'                     A'                     A'
 Frequencies --   1456.6114              1633.7203              2164.3188
 Red. masses --      2.3546                 7.7353                 6.1351
 Frc consts  --      2.9434                12.1641                16.9321
 IR Inten    --     46.4183               536.6378               462.1234

                     16                     17                     18
                     A'                     A'                     A'
 Frequencies --   3038.2806              3131.3303              3389.1582
 Red. masses --      1.0821                 1.0896                 1.1626
 Frc consts  --      5.8855                 6.2945                 7.8677
 IR Inten    --    107.4717                23.4318               102.2637

 - Thermochemistry -
 -------------------
 Temperature   298.150 Kelvin.  Pressure   1.00000 Atm.
 Atom     1 has atomic number  6 and mass  12.00000

 Molecular mass:    63.02348 amu.
 Principal axes and moments of inertia in atomic units:
                           1         2         3
     Eigenvalues --   106.19593 504.69413 610.89006
           X            0.98730   0.15889   0.00000
           Y           -0.15889   0.98730   0.00000
           Z            0.00000  -0.00000   1.00000
 This molecule is an asymmetric top.
 Rotational symmetry number  1.
 Rotational temperatures (Kelvin)      0.81560     0.17162     0.14178
 Rotational constants (GHZ):          16.99445     3.57591     2.95428
 Zero-point vibrational energy     135612.5 (Joules/Mol)
                                   32.41217 (Kcal/Mol)
 Warning -- explicit consideration of   5 degrees of freedom as
           vibrations may cause significant error
 Vibrational temperatures:    192.52   244.27   354.29   457.93   828.23
          (Kelvin)            985.18  1002.73  1211.99  1362.49  1420.18
                             1530.56  1717.29  2095.74  2350.56  3113.97
                             4371.40  4505.28  4876.24

 Zero-point correction=                           0.051652 (Hartree/Particle)
 Thermal correction to Energy=                    0.057268
 Thermal correction to Enthalpy=                  0.058213
 Thermal correction to Gibbs Free Energy=         0.023339
 Sum of electronic and zero-point Energies=           -191.795170
 Sum of electronic and thermal Energies=              -191.789554
 Sum of electronic and thermal Enthalpies=            -191.788610
 Sum of electronic and thermal Free Energies=         -191.823483

                     E (Thermal)             CV                S
                      KCal/Mol        Cal/Mol-Kelvin    Cal/Mol-Kelvin
 Total                   35.936             18.022             73.397
 Electronic               0.000              0.000              0.000
 Translational            0.889              2.981             38.342
 Rotational               0.889              2.981             24.996
 Vibrational             34.159             12.061             10.059
 Vibration     1          0.613              1.920              2.891
 Vibration     2          0.625              1.880              2.438
 Vibration     3          0.661              1.769              1.757
 Vibration     4          0.705              1.639              1.319
 Vibration     5          0.932              1.084              0.493

 Optimization completed.
    -- Stationary point found.
 Normal termination of Gaussian 09 at Tue Jul 19 15:59:10 2016.
