 Gaussian 09, Revision E.01,
 Gaussian 09:  EM64L-G09RevE.01 30-Nov-2015

 ---------------------------------------------
 #p b3lyp/6-311++G(3df,2p) freq symmetry=Loose
 ---------------------------------------------

 ---------
 b3lyp opt
 ---------
 Symbolic Z-matrix:
 Charge =  1 Multiplicity = 3

                         Standard orientation:
 ---------------------------------------------------------------------
 Center     Atomic      Atomic             Coordinates (Angstroms)
 Number     Number       Type             X           Y           Z
 ---------------------------------------------------------------------
      1          6           0       -1.459215    0.048956   -0.473711
      2          6           0        0.564139   -0.038609    0.055522
      3          6           0       -0.552973    0.907119    0.167566
      4          1           0       -0.705826    1.779589    0.795160
      5          6           0       -0.618493   -0.888084    0.152378
      6          1           0       -0.841350   -1.753277    0.768889
      7          6           0        1.865207   -0.114703   -0.127217
      8          1           0        2.755190    0.485617   -0.211279
 ---------------------------------------------------------------------

 SCF Done:  E(UB3LYP) =  -191.802145314     A.U. after   17 cycles

 The electronic state is 3-A.
 Alpha  occ. eigenvalues --  -10.51015 -10.50912 -10.48759 -10.46932 -10.45319
 Alpha  occ. eigenvalues --   -1.21466  -1.00677  -0.90619  -0.85215  -0.79826
 Alpha  occ. eigenvalues --   -0.73174  -0.67513  -0.64654  -0.64145  -0.55255
 Alpha  occ. eigenvalues --   -0.49796  -0.48254
 Alpha virt. eigenvalues --   -0.30513  -0.29377  -0.21088  -0.14665  -0.12805
 Alpha virt. eigenvalues --   -0.12325  -0.10825  -0.10458  -0.09328  -0.08180
 Alpha virt. eigenvalues --   -0.06450  -0.05973  -0.04446  -0.03958  -0.02916

  Beta  occ. eigenvalues --  -10.50659 -10.50630 -10.47711 -10.47074 -10.43233
  Beta  occ. eigenvalues --   -1.20392  -0.97407  -0.89837  -0.82245  -0.79389
  Beta  occ. eigenvalues --   -0.71354  -0.65862  -0.63656  -0.63265  -0.50452
  Beta virt. eigenvalues --   -0.37815  -0.31779  -0.29436  -0.26920  -0.19232
  Beta virt. eigenvalues --   -0.14365  -0.12365  -0.11922  -0.10303  -0.09993
  Beta virt. eigenvalues --   -0.09035  -0.07830  -0.06160  -0.05412  -0.03855

 Mulliken charges and spin densities:
               1          2
     1  C   -0.159620   0.615115
     2  C    0.266734  -0.152703
     3  C    0.139131   0.147604
     4  H    0.278376   0.002027
     5  C    0.116308   0.111475
     6  H    0.278509   0.003102
     7  C   -0.197469   1.271705
     8  H    0.278031   0.001675
 Sum of Mulliken charges =   1.00000   2.00000

 Dipole moment (field-independent basis, Debye):
    X=              0.3767    Y=              0.5005    Z=              1.4746  Tot=              1.6021
 Quadrupole moment (field-independent basis, Debye-Ang):
   XX=            -17.0752   YY=            -18.7801   ZZ=            -26.0994
   XY=              1.8492   XZ=             -2.5841   YZ=             -0.0386

  Exact polarizability:  85.096  -0.958  42.734   5.418  -0.140  32.668
 Approx polarizability: 156.127  -3.614  71.642  16.663  -0.355  51.300

                      1                      2                      3
                      A                      A                      A
 Frequencies --    252.7946               355.9447               441.2694
 Red. masses --      5.2174                 2.4083                 2.6777
 Frc consts  --      0.1964                 0.1798                 0.3072
 IR Inten    --      0.4581                 4.3946                29.2035

                      4                      5                      6
                      A                      A                      A
 Frequencies --    654.7787               707.2685               722.4845
 Red. masses --      1.6209                 2.6181                 1.6816
 Frc consts  --      0.4095                 0.7716                 0.5172
 IR Inten    --     28.3394                 1.2568                15.1815

                      7                      8                      9
                      A                      A                      A
 Frequencies --    826.7483               920.8611               938.2735
 Red. masses --      5.2770                 2.1484                 1.7873
 Frc consts  --      2.1251                 1.0734                 0.9271
 IR Inten    --      0.6069                 4.2350               125.9566

                     10                     11                     12
                      A                      A                      A
 Frequencies --    997.9408              1097.2008              1159.3962
 Red. masses --      1.4811                 1.1766                 1.9738
 Frc consts  --      0.8690                 0.8346                 1.5632
 IR Inten    --      0.5484                 1.4117                31.1281

                     13                     14                     15
                      A                      A                      A
 Frequencies --   1220.5059              1315.1793              1605.1169
 Red. masses --      5.8274                 4.0511                 7.9426
 Frc consts  --      5.1145                 4.1285                12.0566
 IR Inten    --     13.2967                82.4533               135.2887

                     16                     17                     18
                      A                      A                      A
 Frequencies --   3180.1571              3182.8035              3274.7451
 Red. masses --      1.0968                 1.1007                 1.1039
 Frc consts  --      6.5355                 6.5695                 6.9747
 IR Inten    --     67.5873                26.0186                56.6303

 - Thermochemistry -
 -------------------
 Temperature   298.150 Kelvin.  Pressure   1.00000 Atm.
 Atom     1 has atomic number  6 and mass  12.00000

 Molecular mass:    63.02348 amu.
 Principal axes and moments of inertia in atomic units:
                           1         2         3
     Eigenvalues --   109.91770 332.28512 408.26221
           X            0.99947   0.02490  -0.02102
           Y           -0.02496   0.99968  -0.00268
           Z            0.02095   0.00321   0.99978
 This molecule is an asymmetric top.
 Rotational symmetry number  1.
 Rotational temperatures (Kelvin)      0.78799     0.26066     0.21215
 Rotational constants (GHZ):          16.41902     5.43130     4.42054
 Zero-point vibrational energy     136694.1 (Joules/Mol)
                                   32.67067 (Kcal/Mol)
 Warning -- explicit consideration of   3 degrees of freedom as
           vibrations may cause significant error
 Vibrational temperatures:    363.71   512.12   634.89   942.08  1017.60
          (Kelvin)           1039.49  1189.50  1324.91  1349.96  1435.81
                             1578.63  1668.11  1756.03  1892.25  2309.40
                             4575.53  4579.34  4711.62

 Zero-point correction=                           0.052064 (Hartree/Particle)
 Thermal correction to Energy=                    0.056630
 Thermal correction to Enthalpy=                  0.057574
 Thermal correction to Gibbs Free Energy=         0.024282
 Sum of electronic and zero-point Energies=           -191.750081
 Sum of electronic and thermal Energies=              -191.745515
 Sum of electronic and thermal Enthalpies=            -191.744571
 Sum of electronic and thermal Free Energies=         -191.777863

                     E (Thermal)             CV                S
                      KCal/Mol        Cal/Mol-Kelvin    Cal/Mol-Kelvin
 Total                   35.536             15.992             70.068
 Electronic               0.000              0.000              2.183
 Translational            0.889              2.981             38.342
 Rotational               0.889              2.981             24.215
 Vibrational             33.758             10.031              5.328
 Vibration     1          0.664              1.758              1.711
 Vibration     2          0.731              1.563              1.140
 Vibration     3          0.801              1.380              0.823

 Normal termination of Gaussian 09 at Sun Jun 19 10:53:02 2016.
