 Gaussian 09, Revision E.01,
 Gaussian 09:  EM64L-G09RevE.01 30-Nov-2015

 ---------------------------------------------
 #p b3lyp/6-311++G(3df,2p) freq symmetry=Loose
 ---------------------------------------------

 ---------
 b3lyp opt
 ---------
 Symbolic Z-matrix:
 Charge =  2 Multiplicity = 4

                         Standard orientation:
 ---------------------------------------------------------------------
 Center     Atomic      Atomic             Coordinates (Angstroms)
 Number     Number       Type             X           Y           Z
 ---------------------------------------------------------------------
      1          6           0       -0.194990    1.661507    0.683495
      2          6           0       -0.194990    1.661507   -0.683495
      3          6           0        0.395176    0.416044   -0.000000
      4          1           0        1.505519    0.422585   -0.000000
      5          6           0       -0.194990   -0.933254    0.000000
      6          1           0       -1.320078   -1.113544    0.000000
      7          6           0        0.120292   -2.151066   -0.000000
      8          1           0        0.231569   -3.237470   -0.000000
 ---------------------------------------------------------------------

 SCF Done:  E(UB3LYP) =  -191.139854194     A.U. after   14 cycles

 The electronic state is 4-A".
 Alpha  occ. eigenvalues --  -10.78194 -10.78125 -10.75723 -10.73223 -10.69613
 Alpha  occ. eigenvalues --   -1.41622  -1.30229  -1.14147  -1.03308  -0.98839
 Alpha  occ. eigenvalues --   -0.98207  -0.93676  -0.89037  -0.82042  -0.81510
 Alpha  occ. eigenvalues --   -0.78797  -0.73079
 Alpha virt. eigenvalues --   -0.57607  -0.52697  -0.46658  -0.34321  -0.33071
 Alpha virt. eigenvalues --   -0.31748  -0.31507  -0.27815  -0.26491  -0.26323
 Alpha virt. eigenvalues --   -0.25522  -0.21727  -0.21247  -0.20924  -0.19058

  Beta  occ. eigenvalues --  -10.75712 -10.75663 -10.75474 -10.72702 -10.69591
  Beta  occ. eigenvalues --   -1.37468  -1.29465  -1.11512  -1.02173  -0.96717
  Beta  occ. eigenvalues --   -0.91500  -0.90429  -0.85513  -0.78649
  Beta virt. eigenvalues --   -0.65135  -0.62840  -0.59013  -0.57002  -0.45792
  Beta virt. eigenvalues --   -0.42453  -0.33903  -0.31261  -0.30503  -0.28656
  Beta virt. eigenvalues --   -0.27000  -0.25710  -0.25558  -0.25082  -0.20796

 Mulliken charges and spin densities:
               1          2
     1  C    0.283820   1.382071
     2  C    0.283820   1.382071
     3  C    0.341788  -0.101356
     4  H    0.304567   0.071183
     5  C    0.060662   0.117645
     6  H    0.253338  -0.004567
     7  C    0.034058   0.156301
     8  H    0.437947  -0.003349
 Sum of Mulliken charges =   2.00000   3.00000

 Dipole moment (field-independent basis, Debye):
    X=             -0.0153    Y=             -3.0636    Z=              0.0000  Tot=              3.0636
 Quadrupole moment (field-independent basis, Debye-Ang):
   XX=            -17.7447   YY=             11.9555   ZZ=            -23.3852
   XY=             -0.2748   XZ=              0.0000   YZ=              0.0000

  Exact polarizability:  31.648  -5.145  68.741  -0.000   0.000  34.178
 Approx polarizability:  51.679 -15.093 111.125  -0.000  -0.000  64.551

                      1                      2                      3
                     A"                     A'                     A'
 Frequencies --    118.2359               161.7551               351.0358
 Red. masses --      2.5591                 2.8871                 4.5033
 Frc consts  --      0.0211                 0.0445                 0.3269
 IR Inten    --      0.5861                19.5525                 2.9918

                      4                      5                      6
                     A"                     A"                     A"
 Frequencies --    351.4432               597.5764               684.3806
 Red. masses --      2.7497                 2.4211                 1.5753
 Frc consts  --      0.2001                 0.5094                 0.4347
 IR Inten    --      8.4640                82.6841                16.0544

                      7                      8                      9
                     A"                     A'                     A'
 Frequencies --    702.8109               704.5680               906.2103
 Red. masses --      3.3156                 3.5090                 1.6609
 Frc consts  --      0.9649                 1.0263                 0.8036
 IR Inten    --     11.2232                 6.5700                 8.9592

                     10                     11                     12
                     A"                     A'                     A'
 Frequencies --    910.2069              1003.5846              1048.7252
 Red. masses --      1.2485                 1.8920                 2.3283
 Frc consts  --      0.6094                 1.1227                 1.5087
 IR Inten    --     46.5095                 4.5234                 4.8672

                     13                     14                     15
                     A'                     A'                     A'
 Frequencies --   1213.7926              1450.6198              1850.9974
 Red. masses --      1.1762                10.7014                 5.6715
 Frc consts  --      1.0210                13.2677                11.4487
 IR Inten    --      1.2749                 4.5890               138.9942

                     16                     17                     18
                     A'                     A'                     A'
 Frequencies --   2699.0269              2864.9018              3173.6449
 Red. masses --      1.0718                 1.0765                 1.1461
 Frc consts  --      4.6002                 5.2058                 6.8011
 IR Inten    --    182.0839               170.3106               346.0441

 - Thermochemistry -
 -------------------
 Temperature   298.150 Kelvin.  Pressure   1.00000 Atm.
 Atom     1 has atomic number  6 and mass  12.00000

 Molecular mass:    63.02348 amu.
 Principal axes and moments of inertia in atomic units:
                           1         2         3
     Eigenvalues --    66.11973 548.40245 562.36017
           X           -0.03839   0.00000   0.99926
           Y            0.99926   0.00000   0.03839
           Z           -0.00000   1.00000   0.00000
 This molecule is an asymmetric top.
 Rotational symmetry number  1.
 Rotational temperatures (Kelvin)      1.30995     0.15794     0.15402
 Rotational constants (GHZ):          27.29505     3.29091     3.20923
 Zero-point vibrational energy     124372.8 (Joules/Mol)
                                   29.72582 (Kcal/Mol)
 Warning -- explicit consideration of   5 degrees of freedom as
           vibrations may cause significant error
 Vibrational temperatures:    170.11   232.73   505.06   505.65   859.78
          (Kelvin)            984.67  1011.19  1013.71  1303.83  1309.58
                             1443.93  1508.88  1746.37  2087.12  2663.17
                             3883.29  4121.95  4566.16

 Zero-point correction=                           0.047371 (Hartree/Particle)
 Thermal correction to Energy=                    0.052944
 Thermal correction to Enthalpy=                  0.053888
 Thermal correction to Gibbs Free Energy=         0.018025
 Sum of electronic and zero-point Energies=           -191.092483
 Sum of electronic and thermal Energies=              -191.086910
 Sum of electronic and thermal Enthalpies=            -191.085966
 Sum of electronic and thermal Free Energies=         -191.121829

                     E (Thermal)             CV                S
                      KCal/Mol        Cal/Mol-Kelvin    Cal/Mol-Kelvin
 Total                   33.223             18.456             75.480
 Electronic               0.000              0.000              2.755
 Translational            0.889              2.981             38.342
 Rotational               0.889              2.981             24.526
 Vibrational             31.446             12.495              9.858
 Vibration     1          0.608              1.934              3.129
 Vibration     2          0.622              1.889              2.529
 Vibration     3          0.728              1.573              1.162
 Vibration     4          0.728              1.572              1.160
 Vibration     5          0.955              1.037              0.454

 Optimization completed.
    -- Stationary point found.
 Normal termination of Gaussian 09 at Tue Jul 19 13:24:11 2016.
