 Gaussian 09, Revision E.01,
 Gaussian 09:  EM64L-G09RevE.01 30-Nov-2015

 ------------------------------------------------------
 #p b3lyp/6-311++G(3df,2p) freq IOp(2/17=3) IOp(2/18=3)
 ------------------------------------------------------

 ---------
 b3lyp opt
 ---------
 Symbolic Z-matrix:
 Charge =  0 Multiplicity = 4

                         Standard orientation:
 ---------------------------------------------------------------------
 Center     Atomic      Atomic             Coordinates (Angstroms)
 Number     Number       Type             X           Y           Z
 ---------------------------------------------------------------------
      1          6           0       -2.214236   -0.810984    0.000000
      2          1           0       -3.121172   -1.362948    0.000000
      3          6           0       -1.181311   -0.180145    0.000000
      4          6           0        0.000000    0.557273    0.000000
      5          1           0       -0.065705    1.638011    0.000000
      6          6           0        1.263510   -0.049529    0.000000
      7          1           0        1.312950   -1.139371    0.000000
      8          6           0        2.444358    0.627436    0.000000
 ---------------------------------------------------------------------

 SCF Done:  E(UB3LYP) =  -192.088550625     A.U. after   17 cycles

 The electronic state is 4-A".
 Alpha  occ. eigenvalues --  -10.25391 -10.22213 -10.21829 -10.19172 -10.18786
 Alpha  occ. eigenvalues --   -0.84567  -0.77839  -0.70838  -0.56960  -0.55315
 Alpha  occ. eigenvalues --   -0.50793  -0.44746  -0.39174  -0.38101  -0.31605
 Alpha  occ. eigenvalues --   -0.29848  -0.24412  -0.21924
 Alpha virt. eigenvalues --   -0.01780  -0.00242   0.00686   0.01490   0.02321
 Alpha virt. eigenvalues --    0.04330   0.04708   0.06409   0.07093   0.07902
 Alpha virt. eigenvalues --    0.08765   0.08915   0.10176   0.10833   0.11153

  Beta  occ. eigenvalues --  -10.22320 -10.21499 -10.20893 -10.19376 -10.18303
  Beta  occ. eigenvalues --   -0.82600  -0.76077  -0.67236  -0.54647  -0.53220
  Beta  occ. eigenvalues --   -0.49279  -0.42619  -0.35450  -0.29568  -0.28594
  Beta virt. eigenvalues --   -0.18277  -0.10440  -0.05898   0.00012   0.00814
  Beta virt. eigenvalues --    0.01332   0.01787   0.02530   0.04827   0.05243
  Beta virt. eigenvalues --    0.07270   0.07514   0.08542   0.09114   0.10248

 Mulliken charges and spin densities:
               1          2
     1  C   -0.049469   0.330808
     2  H    0.301396  -0.011050
     3  C   -0.148382  -0.134635
     4  C   -0.126273   0.575510
     5  H    0.153079  -0.022511
     6  C   -0.007164  -0.245106
     7  H    0.151605   0.077178
     8  C   -0.274793   2.429807
 Sum of Mulliken charges =  -0.00000   3.00000

 Dipole moment (field-independent basis, Debye):
    X=             -0.4868    Y=             -0.2998    Z=              0.0000  Tot=              0.5717
 Quadrupole moment (field-independent basis, Debye-Ang):
   XX=            -26.7768   YY=            -27.2784   ZZ=            -32.0019
   XY=              1.7110   XZ=              0.0000   YZ=              0.0000

  Exact polarizability: 110.835  20.768  53.255   0.000   0.000  39.394
 Approx polarizability: 176.267  40.125  80.782  -0.000  -0.000  53.565

                      1                      2                      3
                     A'                     A"                     A'
 Frequencies --    177.6551               179.1683               435.7978
 Red. masses --      4.4298                 4.1636                 5.5529
 Frc consts  --      0.0824                 0.0787                 0.6214
 IR Inten    --      0.2820                 0.6536                 5.8672

                      4                      5                      6
                     A"                     A'                     A"
 Frequencies --    442.9348               560.7916               570.2002
 Red. masses --      4.5711                 6.8121                 1.2804
 Frc consts  --      0.5284                 1.2622                 0.2453
 IR Inten    --      4.7266                 6.0239                46.1343

                      7                      8                      9
                     A'                     A"                     A"
 Frequencies --    676.3698               780.2780               825.8301
 Red. masses --      1.2625                 1.7595                 1.2243
 Frc consts  --      0.3403                 0.6312                 0.4919
 IR Inten    --     43.4584                 8.3115                19.7571

                     10                     11                     12
                     A'                     A'                     A'
 Frequencies --   1038.8599              1172.4282              1236.0931
 Red. masses --      4.4459                 2.4791                 1.3432
 Frc consts  --      2.8270                 2.0078                 1.2092
 IR Inten    --      2.7534                 0.8607                 6.2471

                     13                     14                     15
                     A'                     A'                     A'
 Frequencies --   1296.9156              1413.1864              2098.8158
 Red. masses --      4.3443                 1.8125                 6.4444
 Frc consts  --      4.3052                 2.1327                16.7255
 IR Inten    --     19.5547                 4.4876                 2.8219

                     16                     17                     18
                     A'                     A'                     A'
 Frequencies --   3058.7947              3163.6622              3456.8504
 Red. masses --      1.0838                 1.0865                 1.1465
 Frc consts  --      5.9742                 6.4072                 8.0723
 IR Inten    --      0.8587                 0.9530                75.6927

 - Thermochemistry -
 -------------------
 Temperature   298.150 Kelvin.  Pressure   1.00000 Atm.
 Atom     1 has atomic number  6 and mass  12.00000

 Molecular mass:    63.02348 amu.
 Principal axes and moments of inertia in atomic units:
                           1         2         3
     Eigenvalues --    38.69953 677.56945 716.26897
           X            0.96646  -0.25680   0.00000
           Y            0.25680   0.96646   0.00000
           Z            0.00000   0.00000   1.00000
 This molecule is an asymmetric top.
 Rotational symmetry number  1.
 Rotational temperatures (Kelvin)      2.23811     0.12783     0.12092
 Rotational constants (GHZ):          46.63471     2.66355     2.51964
 Zero-point vibrational energy     135086.1 (Joules/Mol)
                                   32.28635 (Kcal/Mol)
 Warning -- explicit consideration of   6 degrees of freedom as
           vibrations may cause significant error
 Vibrational temperatures:    255.61   257.78   627.02   637.28   806.85
          (Kelvin)            820.39   973.14  1122.64  1188.18  1494.69
                             1686.86  1778.46  1865.97  2033.26  3019.72
                             4400.92  4551.80  4973.63

 Zero-point correction=                           0.051452 (Hartree/Particle)
 Thermal correction to Energy=                    0.056743
 Thermal correction to Enthalpy=                  0.057687
 Thermal correction to Gibbs Free Energy=         0.022589
 Sum of electronic and zero-point Energies=           -192.037099
 Sum of electronic and thermal Energies=              -192.031808
 Sum of electronic and thermal Enthalpies=            -192.030864
 Sum of electronic and thermal Free Energies=         -192.065961

                     E (Thermal)             CV                S
                      KCal/Mol        Cal/Mol-Kelvin    Cal/Mol-Kelvin
 Total                   35.607             17.850             73.868
 Electronic               0.000              0.000              2.755
 Translational            0.889              2.981             38.342
 Rotational               0.889              2.981             24.444
 Vibrational             33.829             11.888              8.327
 Vibration     1          0.628              1.870              2.353
 Vibration     2          0.629              1.868              2.337
 Vibration     3          0.796              1.392              0.840
 Vibration     4          0.803              1.376              0.817
 Vibration     5          0.916              1.116              0.522
 Vibration     6          0.926              1.096              0.504

 Optimization completed.
    -- Stationary point found.
 Normal termination of Gaussian 09 at Thu Jan 31 05:45:42 2019.
