 Gaussian 09, Revision E.01,
 Gaussian 09:  EM64L-G09RevE.01 30-Nov-2015

 ---------------------------------------------
 #p b3lyp/6-311++G(3df,2p) freq symmetry=Loose
 ---------------------------------------------

 ---------
 b3lyp opt
 ---------
 Symbolic Z-matrix:
 Charge =  3 Multiplicity = 3

                         Standard orientation:
 ---------------------------------------------------------------------
 Center     Atomic      Atomic             Coordinates (Angstroms)
 Number     Number       Type             X           Y           Z
 ---------------------------------------------------------------------
      1          1           0        2.618067   -0.168012    0.202495
      2          6           0        0.424919   -0.980992   -0.259201
      3          6           0        1.517795   -0.108191    0.024164
      4          6           0       -0.667274   -0.087648    0.270158
      5          1           0       -0.977923   -0.260756    1.391714
      6          6           0        0.484859    0.906780   -0.024320
      7          1           0        0.455295    1.951363   -0.419431
      8          6           0       -2.109539    0.016285   -0.206598
 ---------------------------------------------------------------------

 SCF Done:  E(UB3LYP) =  -190.296586832     A.U. after   25 cycles

 The electronic state is 3-A.
 Alpha  occ. eigenvalues --  -11.16888 -11.06734 -11.03517 -11.01188 -11.00495
 Alpha  occ. eigenvalues --   -1.69807  -1.52835  -1.37813  -1.35198  -1.24944
 Alpha  occ. eigenvalues --   -1.19994  -1.17714  -1.16333  -1.11116  -1.05672
 Alpha  occ. eigenvalues --   -1.02573
 Alpha virt. eigenvalues --   -0.90258  -0.87586  -0.82196  -0.76430  -0.58510
 Alpha virt. eigenvalues --   -0.55654  -0.54708  -0.52863  -0.49209  -0.48957
 Alpha virt. eigenvalues --   -0.46988  -0.45292  -0.42982  -0.42261  -0.39759

  Beta  occ. eigenvalues --  -11.16219 -11.04722 -11.03111 -11.01012 -10.99954
  Beta  occ. eigenvalues --   -1.67742  -1.50900  -1.35120  -1.33437  -1.22913
  Beta  occ. eigenvalues --   -1.17270  -1.16173  -1.15045  -1.06977
  Beta virt. eigenvalues --   -0.95245  -0.89156  -0.86441  -0.85259  -0.77548
  Beta virt. eigenvalues --   -0.72124  -0.57290  -0.54225  -0.53188  -0.51638
  Beta virt. eigenvalues --   -0.48443  -0.47170  -0.46083  -0.44366  -0.42408

 Mulliken charges and spin densities:
               1          2
     1  H    0.445500   0.009386
     2  C    0.352927   1.056640
     3  C    0.533540   0.257863
     4  C    0.313667  -0.068469
     5  H    0.368126   0.074426
     6  C    0.109987   0.253734
     7  H    0.378840   0.017908
     8  C    0.497413   0.398514
 Sum of Mulliken charges =   3.00000   2.00000

 Dipole moment (field-independent basis, Debye):
    X=             -1.2894    Y=              0.8803    Z=              0.6916  Tot=              1.7076
 Quadrupole moment (field-independent basis, Debye-Ang):
   XX=             13.1242   YY=            -11.3652   ZZ=            -17.5297
   XY=              0.4313   XZ=             -0.5880   YZ=             -1.3250

  Exact polarizability:  79.397  -0.491  36.864   0.700  -0.123  26.731
 Approx polarizability: 179.769  -2.501  71.603   8.644   1.902  45.247

                      1                      2                      3
                      A                      A                      A
 Frequencies --    255.7329               265.0417               439.0740
 Red. masses --      4.0225                 4.2547                 3.4400
 Frc consts  --      0.1550                 0.1761                 0.3907
 IR Inten    --      1.7610                 4.8392                 9.6284

                      4                      5                      6
                      A                      A                      A
 Frequencies --    544.3902               655.4748               703.4734
 Red. masses --      4.3312                 2.9833                 5.0875
 Frc consts  --      0.7563                 0.7552                 1.4834
 IR Inten    --     30.5756                 9.3531                 0.6479

                      7                      8                      9
                      A                      A                      A
 Frequencies --    778.9759               865.8924               905.4528
 Red. masses --      1.4417                 1.5031                 1.6422
 Frc consts  --      0.5154                 0.6640                 0.7932
 IR Inten    --     55.4170                24.9882                32.5646

                     10                     11                     12
                      A                      A                      A
 Frequencies --    932.9636               977.9052              1023.2965
 Red. masses --      1.3743                 1.8509                 2.7947
 Frc consts  --      0.7048                 1.0429                 1.7242
 IR Inten    --     37.1464               226.7861                97.5850

                     13                     14                     15
                      A                      A                      A
 Frequencies --   1096.6137              1127.1594              1225.6328
 Red. masses --      1.4164                 2.9078                 3.8739
 Frc consts  --      1.0036                 2.1767                 3.4286
 IR Inten    --      0.6401               101.2299               269.1972

                     16                     17                     18
                      A                      A                      A
 Frequencies --   2302.7100              2865.2032              2888.7421
 Red. masses --      1.0751                 1.0976                 1.1128
 Frc consts  --      3.3588                 5.3087                 5.4712
 IR Inten    --    569.7158               439.7745               491.3753

 - Thermochemistry -
 -------------------
 Temperature   298.150 Kelvin.  Pressure   1.00000 Atm.
 Atom     1 has atomic number  1 and mass   1.00783

 Molecular mass:    63.02348 amu.
 Principal axes and moments of inertia in atomic units:
                           1         2         3
     Eigenvalues --   106.73715 370.27580 446.43520
           X            0.99990   0.00938  -0.01068
           Y           -0.00996   0.99840  -0.05567
           Z            0.01014   0.05577   0.99839
 This molecule is an asymmetric top.
 Rotational symmetry number  1.
 Rotational temperatures (Kelvin)      0.81147     0.23392     0.19401
 Rotational constants (GHZ):          16.90828     4.87405     4.04256
 Zero-point vibrational energy     118751.7 (Joules/Mol)
                                   28.38234 (Kcal/Mol)
 Warning -- explicit consideration of   4 degrees of freedom as
           vibrations may cause significant error
 Vibrational temperatures:    367.94   381.34   631.73   783.26   943.08
          (Kelvin)           1012.14  1120.77  1245.82  1302.74  1342.32
                             1406.99  1472.29  1577.78  1621.73  1763.41
                             3313.08  4122.38  4156.25

 Zero-point correction=                           0.045230 (Hartree/Particle)
 Thermal correction to Energy=                    0.050100
 Thermal correction to Enthalpy=                  0.051044
 Thermal correction to Gibbs Free Energy=         0.017184
 Sum of electronic and zero-point Energies=           -190.251357
 Sum of electronic and thermal Energies=              -190.246487
 Sum of electronic and thermal Enthalpies=            -190.245543
 Sum of electronic and thermal Free Energies=         -190.279403

                     E (Thermal)             CV                S
                      KCal/Mol        Cal/Mol-Kelvin    Cal/Mol-Kelvin
 Total                   31.438             17.400             71.265
 Electronic               0.000              0.000              2.183
 Translational            0.889              2.981             38.342
 Rotational               0.889              2.981             24.382
 Vibrational             29.661             11.438              6.358
 Vibration     1          0.666              1.753              1.691
 Vibration     2          0.671              1.737              1.628
 Vibration     3          0.799              1.385              0.830
 Vibration     4          0.900              1.152              0.556

 Optimization completed.
    -- Stationary point found.
 Normal termination of Gaussian 09 at Sun Jun 19 14:44:28 2016.
