 Gaussian 09, Revision E.01,
 Gaussian 09:  EM64L-G09RevE.01 30-Nov-2015

 ---------------------------------------------
 #p b3lyp/6-311++G(3df,2p) freq symmetry=Loose
 ---------------------------------------------

 ---------
 b3lyp opt
 ---------
 Symbolic Z-matrix:
 Charge =  1 Multiplicity = 3

                         Standard orientation:
 ---------------------------------------------------------------------
 Center     Atomic      Atomic             Coordinates (Angstroms)
 Number     Number       Type             X           Y           Z
 ---------------------------------------------------------------------
      1          6           0        0.035699    2.004554    0.000000
      2          6           0        0.134008    0.643353    0.000000
      3          6           0        0.035699   -0.390166    1.038524
      4          1           0       -0.005719   -0.364418    2.114578
      5          6           0       -0.165773   -1.347009   -0.000000
      6          1           0       -0.440550   -2.394552   -0.000000
      7          6           0        0.035699   -0.390166   -1.038524
      8          1           0       -0.005719   -0.364418   -2.114578
 ---------------------------------------------------------------------

 SCF Done:  E(UB3LYP) =  -191.792238653     A.U. after   19 cycles

 The electronic state is 3-A".
 Alpha  occ. eigenvalues --  -10.53172 -10.49261 -10.48030 -10.46692 -10.46687
 Alpha  occ. eigenvalues --   -1.17763  -1.01792  -0.92132  -0.85133  -0.77373
 Alpha  occ. eigenvalues --   -0.68790  -0.67190  -0.66887  -0.64174  -0.55118
 Alpha  occ. eigenvalues --   -0.53195  -0.45691
 Alpha virt. eigenvalues --   -0.37085  -0.31209  -0.18137  -0.14848  -0.13873
 Alpha virt. eigenvalues --   -0.12522  -0.12080  -0.10370  -0.09038  -0.08756
 Alpha virt. eigenvalues --   -0.06576  -0.05805  -0.05432  -0.04040  -0.02937

  Beta  occ. eigenvalues --  -10.52377 -10.48956 -10.47901 -10.45746 -10.45744
  Beta  occ. eigenvalues --   -1.15966  -0.99230  -0.89448  -0.83971  -0.76118
  Beta  occ. eigenvalues --   -0.67923  -0.66046  -0.63531  -0.61415  -0.53865
  Beta virt. eigenvalues --   -0.42438  -0.35843  -0.32655  -0.25966  -0.14673
  Beta virt. eigenvalues --   -0.14161  -0.13313  -0.12264  -0.11514  -0.09300
  Beta virt. eigenvalues --   -0.08936  -0.08383  -0.06236  -0.04927  -0.04733

 Mulliken charges and spin densities:
               1          2
     1  C   -0.219248   0.406118
     2  C    0.615938   0.074498
     3  C   -0.174623   0.697320
     4  H    0.300670  -0.017255
     5  C    0.051601   0.167468
     6  H    0.299615  -0.008213
     7  C   -0.174623   0.697320
     8  H    0.300670  -0.017255
 Sum of Mulliken charges =   1.00000   2.00000

 Dipole moment (field-independent basis, Debye):
    X=             -0.2189    Y=             -2.1208    Z=              0.0000  Tot=              2.1320
 Quadrupole moment (field-independent basis, Debye-Ang):
   XX=            -27.3132   YY=            -19.7621   ZZ=            -18.0362
   XY=              1.6365   XZ=             -0.0000   YZ=             -0.0000

  Exact polarizability:  31.889   3.033  69.683  -0.000  -0.000  49.094
 Approx polarizability:  46.414   6.165 128.894   0.000   0.000  80.196

                      1                      2                      3
                     A'                     A"                     A'
 Frequencies --     82.7684               172.5145               404.2924
 Red. masses --      3.8495                 6.2512                 2.9717
 Frc consts  --      0.0155                 0.1096                 0.2862
 IR Inten    --      0.7655                 4.8238                 7.3115

                      4                      5                      6
                     A"                     A'                     A'
 Frequencies --    597.2575               608.0260               721.1952
 Red. masses --      1.3329                 1.2023                 6.9038
 Frc consts  --      0.2801                 0.2619                 2.1157
 IR Inten    --      4.7236                97.6445                 3.1889

                      7                      8                      9
                     A'                     A"                     A'
 Frequencies --    936.4711               938.2899               958.0801
 Red. masses --      2.2711                 3.5005                 1.6885
 Frc consts  --      1.1735                 1.8157                 0.9132
 IR Inten    --      4.3889                 2.0086                 3.9996

                     10                     11                     12
                     A"                     A'                     A"
 Frequencies --    962.2250              1138.7528              1198.8785
 Red. masses --      2.0145                 2.2839                 1.4191
 Frc consts  --      1.0989                 1.7449                 1.2018
 IR Inten    --     34.3173                 9.0812                12.2701

                     13                     14                     15
                     A'                     A"                     A'
 Frequencies --   1315.0821              1317.6122              1496.6818
 Red. masses --      2.8062                 1.9520                11.0371
 Frc consts  --      2.8594                 1.9966                14.5668
 IR Inten    --     72.0935                 0.0389               137.3998

                     16                     17                     18
                     A'                     A"                     A'
 Frequencies --   3207.1721              3258.1573              3265.8369
 Red. masses --      1.0970                 1.0934                 1.1084
 Frc consts  --      6.6481                 6.8390                 6.9653
 IR Inten    --     17.6375                97.0200                 0.6480

 - Thermochemistry -
 -------------------
 Temperature   298.150 Kelvin.  Pressure   1.00000 Atm.
 Atom     1 has atomic number  6 and mass  12.00000

 Molecular mass:    63.02348 amu.
 Principal axes and moments of inertia in atomic units:
                           1         2         3
     Eigenvalues --   126.23392 304.57629 427.58580
           X            0.06274   0.00000   0.99803
           Y            0.99803   0.00000  -0.06274
           Z            0.00000   1.00000   0.00000
 This molecule is an asymmetric top.
 Rotational symmetry number  1.
 Rotational temperatures (Kelvin)      0.68614     0.28437     0.20256
 Rotational constants (GHZ):          14.29680     5.92542     4.22077
 Zero-point vibrational energy     135054.2 (Joules/Mol)
                                   32.27872 (Kcal/Mol)
 Warning -- explicit consideration of   5 degrees of freedom as
           vibrations may cause significant error
 Vibrational temperatures:    119.09   248.21   581.69   859.32   874.81
          (Kelvin)           1037.64  1347.37  1349.99  1378.46  1384.43
                             1638.41  1724.92  1892.11  1895.75  2153.39
                             4614.40  4687.76  4698.81

 Zero-point correction=                           0.051439 (Hartree/Particle)
 Thermal correction to Energy=                    0.056616
 Thermal correction to Enthalpy=                  0.057560
 Thermal correction to Gibbs Free Energy=         0.022492
 Sum of electronic and zero-point Energies=           -191.740799
 Sum of electronic and thermal Energies=              -191.735623
 Sum of electronic and thermal Enthalpies=            -191.734679
 Sum of electronic and thermal Free Energies=         -191.769747

                     E (Thermal)             CV                S
                      KCal/Mol        Cal/Mol-Kelvin    Cal/Mol-Kelvin
 Total                   35.527             16.660             73.806
 Electronic               0.000              0.000              2.183
 Translational            0.889              2.981             38.342
 Rotational               0.889              2.981             24.312
 Vibrational             33.749             10.698              8.969
 Vibration     1          0.600              1.961              3.824
 Vibration     2          0.626              1.876              2.408
 Vibration     3          0.769              1.461              0.947
 Vibration     4          0.955              1.038              0.454
 Vibration     5          0.967              1.015              0.436

 Normal termination of Gaussian 09 at Tue Jul 19 20:16:08 2016.
