 Gaussian 09, Revision E.01,
 Gaussian 09:  EM64L-G09RevE.01 30-Nov-2015

 ---------------------------------------------
 #p b3lyp/6-311++G(3df,2p) freq symmetry=Loose
 ---------------------------------------------

 ---------
 b3lyp opt
 ---------
 Symbolic Z-matrix:
 Charge =  0 Multiplicity = 4

                         Standard orientation:
 ---------------------------------------------------------------------
 Center     Atomic      Atomic             Coordinates (Angstroms)
 Number     Number       Type             X           Y           Z
 ---------------------------------------------------------------------
      1          6           0       -1.218641    0.227589   -0.000000
      2          1           0       -1.851115    0.390027    0.875111
      3          1           0       -1.851115    0.390027   -0.875111
      4          6           0       -0.000000    1.130857   -0.000000
      5          6           0        1.189924    0.413843   -0.000000
      6          1           0        2.181199    0.840657   -0.000000
      7          6           0       -0.539112   -1.101731    0.000000
      8          6           0        0.821334   -0.940677    0.000000
 ---------------------------------------------------------------------

 SCF Done:  E(UB3LYP) =  -192.087072304     A.U. after   17 cycles

 The electronic state is 4-A".
 Alpha  occ. eigenvalues --  -10.24396 -10.22998 -10.22321 -10.22054 -10.21640
 Alpha  occ. eigenvalues --   -0.91504  -0.75247  -0.72350  -0.57688  -0.52586
 Alpha  occ. eigenvalues --   -0.48166  -0.47798  -0.42605  -0.35624  -0.33016
 Alpha  occ. eigenvalues --   -0.27195  -0.25485  -0.24108
 Alpha virt. eigenvalues --   -0.08104  -0.00714   0.01236   0.02181   0.02888
 Alpha virt. eigenvalues --    0.04486   0.05218   0.05908   0.06914   0.07372
 Alpha virt. eigenvalues --    0.09059   0.11476   0.11646   0.11754   0.12444

  Beta  occ. eigenvalues --  -10.22706 -10.22041 -10.21778 -10.21230 -10.20219
  Beta  occ. eigenvalues --   -0.88553  -0.73973  -0.67725  -0.56101  -0.49984
  Beta  occ. eigenvalues --   -0.46755  -0.44211  -0.41399  -0.32976  -0.25036
  Beta virt. eigenvalues --   -0.15828  -0.11621  -0.09845  -0.03672  -0.00538
  Beta virt. eigenvalues --    0.01358   0.02281   0.05298   0.05549   0.06361
  Beta virt. eigenvalues --    0.06382   0.07228   0.07512   0.09744   0.11624

 Mulliken charges and spin densities:
               1          2
     1  C   -0.220821  -0.016035
     2  H    0.152855   0.000655
     3  H    0.152855   0.000655
     4  C   -0.100867   1.166121
     5  C   -0.053835  -0.046391
     6  H    0.184294  -0.004487
     7  C   -0.187608   1.099809
     8  C    0.073127   0.799672
 Sum of Mulliken charges =  -0.00000   3.00000

 Dipole moment (field-independent basis, Debye):
    X=             -0.6224    Y=              1.4848    Z=             -0.0000  Tot=              1.6099
 Quadrupole moment (field-independent basis, Debye-Ang):
   XX=            -26.3131   YY=            -35.8253   ZZ=            -29.2017
   XY=              0.5283   XZ=              0.0000   YZ=             -0.0000

  Exact polarizability:  70.778   0.815  84.436   0.000   0.000  39.183
 Approx polarizability: 117.037   0.679 164.452  -0.000   0.000  58.652

                      1                      2                      3
                     A"                     A"                     A'
 Frequencies --    242.1332               382.0811               673.0391
 Red. masses --      2.0934                 2.0706                 9.6871
 Frc consts  --      0.0723                 0.1781                 2.5854
 IR Inten    --      2.4485                 4.5615                65.0024

                      4                      5                      6
                     A'                     A'                     A"
 Frequencies --    775.2982               821.7537               836.5494
 Red. masses --      7.7958                 3.9281                 2.2553
 Frc consts  --      2.7609                 1.5628                 0.9299
 IR Inten    --     14.0638                46.2498                 0.2722

                      7                      8                      9
                     A"                     A'                     A"
 Frequencies --    878.2540               992.5705              1101.1705
 Red. masses --      1.6364                 6.5782                 1.0960
 Frc consts  --      0.7437                 3.8184                 0.7830
 IR Inten    --      1.4992                 5.4125                 0.0700

                     10                     11                     12
                     A'                     A'                     A'
 Frequencies --   1121.8122              1177.0279              1287.5297
 Red. masses --      2.5688                 1.3363                 2.6515
 Frc consts  --      1.9047                 1.0908                 2.5897
 IR Inten    --      5.0809                 2.8894                 1.3362

                     13                     14                     15
                     A'                     A'                     A'
 Frequencies --   1308.2671              1400.9772              1464.6994
 Red. masses --      3.0604                 1.1544                 7.1325
 Frc consts  --      3.0862                 1.3350                 9.0155
 IR Inten    --      1.0509                32.9306               114.6065

                     16                     17                     18
                     A'                     A"                     A'
 Frequencies --   3050.4147              3079.0259              3209.6896
 Red. masses --      1.0601                 1.1003                 1.0948
 Frc consts  --      5.8118                 6.1459                 6.6451
 IR Inten    --      0.0084                 0.8123                 3.0344

 - Thermochemistry -
 -------------------
 Temperature   298.150 Kelvin.  Pressure   1.00000 Atm.
 Atom     1 has atomic number  6 and mass  12.00000

 Molecular mass:    63.02348 amu.
 Principal axes and moments of inertia in atomic units:
                           1         2         3
     Eigenvalues --   163.10598 213.04333 365.12454
           X            0.99806  -0.06223   0.00000
           Y            0.06223   0.99806   0.00000
           Z           -0.00000   0.00000   1.00000
 This molecule is an asymmetric top.
 Rotational symmetry number  1.
 Rotational temperatures (Kelvin)      0.53103     0.40655     0.23722
 Rotational constants (GHZ):          11.06484     8.47124     4.94281
 Zero-point vibrational energy     142369.3 (Joules/Mol)
                                   34.02709 (Kcal/Mol)
 Warning -- explicit consideration of   2 degrees of freedom as
           vibrations may cause significant error
 Vibrational temperatures:    348.38   549.73   968.35  1115.48  1182.32
          (Kelvin)           1203.61  1263.61  1428.09  1584.34  1614.04
                             1693.48  1852.47  1882.30  2015.69  2107.37
                             4388.86  4430.03  4618.02

 Zero-point correction=                           0.054226 (Hartree/Particle)
 Thermal correction to Energy=                    0.058432
 Thermal correction to Enthalpy=                  0.059376
 Thermal correction to Gibbs Free Energy=         0.026399
 Sum of electronic and zero-point Energies=           -192.032847
 Sum of electronic and thermal Energies=              -192.028640
 Sum of electronic and thermal Enthalpies=            -192.027696
 Sum of electronic and thermal Free Energies=         -192.060674

                     E (Thermal)             CV                S
                      KCal/Mol        Cal/Mol-Kelvin    Cal/Mol-Kelvin
 Total                   36.667             14.194             69.407
 Electronic               0.000              0.000              2.755
 Translational            0.889              2.981             38.342
 Rotational               0.889              2.981             24.054
 Vibrational             34.889              8.232              4.256
 Vibration     1          0.658              1.776              1.787
 Vibration     2          0.752              1.508              1.031

 Optimization completed.
    -- Stationary point found.
 Normal termination of Gaussian 09 at Tue Jul 19 16:47:03 2016.
