 Gaussian 09, Revision E.01,
 Gaussian 09:  EM64L-G09RevE.01 30-Nov-2015

 ---------------------------------------------
 #p b3lyp/6-311++G(3df,2p) freq symmetry=Loose
 ---------------------------------------------

 ---------
 b3lyp opt
 ---------
 Symbolic Z-matrix:
 Charge =  2 Multiplicity = 4

                         Standard orientation:
 ---------------------------------------------------------------------
 Center     Atomic      Atomic             Coordinates (Angstroms)
 Number     Number       Type             X           Y           Z
 ---------------------------------------------------------------------
      1          6           0       -0.356252   -0.044919   -0.129788
      2          6           0        1.041458   -0.399067   -0.344780
      3          1           0        1.230945   -1.194683   -1.081891
      4          6           0       -1.427413    0.756233   -0.380339
      5          6           0        2.129540    0.209393    0.291521
      6          6           0       -1.620386   -0.322273    0.402437
      7          1           0        2.382471    0.985938    1.016790
      8          1           0       -2.215095   -0.987458    1.030800
 ---------------------------------------------------------------------

 SCF Done:  E(UB3LYP) =  -191.228106922     A.U. after   14 cycles

 The electronic state is 4-A.
 Alpha  occ. eigenvalues --  -10.75810 -10.75332 -10.74897 -10.74671 -10.73109
 Alpha  occ. eigenvalues --   -1.44376  -1.30841  -1.13477  -1.05021  -1.01412
 Alpha  occ. eigenvalues --   -0.95281  -0.94343  -0.88196  -0.86222  -0.82429
 Alpha  occ. eigenvalues --   -0.75639  -0.73484
 Alpha virt. eigenvalues --   -0.54051  -0.50628  -0.48741  -0.33875  -0.31027
 Alpha virt. eigenvalues --   -0.29781  -0.29298  -0.27073  -0.26358  -0.25304
 Alpha virt. eigenvalues --   -0.24595  -0.22611  -0.21880  -0.20863  -0.19723

  Beta  occ. eigenvalues --  -10.75019 -10.74628 -10.73409 -10.72889 -10.72285
  Beta  occ. eigenvalues --   -1.43031  -1.26425  -1.09470  -1.03609  -0.99182
  Beta  occ. eigenvalues --   -0.92612  -0.90859  -0.85957  -0.85066
  Beta virt. eigenvalues --   -0.67376  -0.59509  -0.54912  -0.50511  -0.45898
  Beta virt. eigenvalues --   -0.45472  -0.32758  -0.29894  -0.29010  -0.28348
  Beta virt. eigenvalues --   -0.25774  -0.25537  -0.24802  -0.22845  -0.21694

 Mulliken charges and spin densities:
               1          2
     1  C    0.287209  -0.040802
     2  C    0.234047   0.561691
     3  H    0.277892   0.020606
     4  C    0.190754   1.008426
     5  C    0.066195   1.363368
     6  C    0.238545   0.074447
     7  H    0.341182   0.004241
     8  H    0.364176   0.008024
 Sum of Mulliken charges =   2.00000   3.00000

 Dipole moment (field-independent basis, Debye):
    X=              1.2344    Y=             -0.6346    Z=              0.9232  Tot=              1.6670
 Quadrupole moment (field-independent basis, Debye-Ang):
   XX=              5.4683   YY=            -18.0064   ZZ=            -18.7238
   XY=              3.1162   XZ=             -0.5895   YZ=              0.8977

  Exact polarizability:  62.507   1.315  33.160   1.594   0.053  30.428
 Approx polarizability:  90.981  -0.779  53.392   2.411  -2.634  46.064

                      1                      2                      3
                      A                      A                      A
 Frequencies --     54.2070               221.1583               291.5415
 Red. masses --      2.6033                 3.9470                 3.2031
 Frc consts  --      0.0045                 0.1137                 0.1604
 IR Inten    --      2.6862                 2.7822                 5.5156

                      4                      5                      6
                      A                      A                      A
 Frequencies --    534.4297               710.0182               746.9073
 Red. masses --      3.4245                 1.9208                 1.2556
 Frc consts  --      0.5763                 0.5705                 0.4127
 IR Inten    --     23.4601                 8.5405                21.4845

                      7                      8                      9
                      A                      A                      A
 Frequencies --    810.0510               835.5379               928.8214
 Red. masses --      1.8432                 2.1578                 1.4838
 Frc consts  --      0.7126                 0.8876                 0.7542
 IR Inten    --      8.0348                37.7982                17.1303

                     10                     11                     12
                      A                      A                      A
 Frequencies --    980.1834              1153.5634              1232.1381
 Red. masses --      1.2867                 7.9157                 1.3742
 Frc consts  --      0.7283                 6.2061                 1.2292
 IR Inten    --     36.0835                50.1652                 3.1028

                     13                     14                     15
                      A                      A                      A
 Frequencies --   1310.0478              1408.5886              1716.7879
 Red. masses --      6.7014                 4.2780                 8.2890
 Frc consts  --      6.7763                 5.0010                14.3941
 IR Inten    --     17.2851                 5.8380                57.6033

                     16                     17                     18
                      A                      A                      A
 Frequencies --   3010.3904              3133.7536              3150.2911
 Red. masses --      1.0859                 1.1027                 1.1249
 Frc consts  --      5.7981                 6.3805                 6.5773
 IR Inten    --    141.6581               179.3821               206.6052

 - Thermochemistry -
 -------------------
 Temperature   298.150 Kelvin.  Pressure   1.00000 Atm.
 Atom     1 has atomic number  6 and mass  12.00000

 Molecular mass:    63.02348 amu.
 Principal axes and moments of inertia in atomic units:
                           1         2         3
     Eigenvalues --    83.81142 522.92546 540.52132
           X            0.99965   0.02614  -0.00274
           Y           -0.02456   0.96627   0.25634
           Z            0.00935  -0.25619   0.96658
 This molecule is an asymmetric top.
 Rotational symmetry number  1.
 Rotational temperatures (Kelvin)      1.03344     0.16563     0.16024
 Rotational constants (GHZ):          21.53336     3.45124     3.33889
 Zero-point vibrational energy     132955.5 (Joules/Mol)
                                   31.77712 (Kcal/Mol)
 Warning -- explicit consideration of   4 degrees of freedom as
           vibrations may cause significant error
 Vibrational temperatures:     77.99   318.20   419.46   768.92  1021.56
          (Kelvin)           1074.63  1165.48  1202.15  1336.37  1410.26
                             1659.72  1772.77  1884.86  2026.64  2470.07
                             4331.27  4508.77  4532.56

 Zero-point correction=                           0.050640 (Hartree/Particle)
 Thermal correction to Energy=                    0.055949
 Thermal correction to Enthalpy=                  0.056893
 Thermal correction to Gibbs Free Energy=         0.020920
 Sum of electronic and zero-point Energies=           -191.177467
 Sum of electronic and thermal Energies=              -191.172158
 Sum of electronic and thermal Enthalpies=            -191.171214
 Sum of electronic and thermal Free Energies=         -191.207186

                     E (Thermal)             CV                S
                      KCal/Mol        Cal/Mol-Kelvin    Cal/Mol-Kelvin
 Total                   35.108             16.955             75.711
 Electronic               0.000              0.000              2.755
 Translational            0.889              2.981             38.342
 Rotational               0.889              2.981             24.675
 Vibrational             33.331             10.993              9.939
 Vibration     1          0.596              1.976              4.658
 Vibration     2          0.648              1.809              1.950
 Vibration     3          0.687              1.689              1.465
 Vibration     4          0.889              1.174              0.577

 Normal termination of Gaussian 09 at Sun Jun 19 13:19:46 2016.
