 Gaussian 09, Revision E.01,
 Gaussian 09:  EM64L-G09RevE.01 30-Nov-2015

 ---------------------------------------------
 #p b3lyp/6-311++G(3df,2p) freq symmetry=Loose
 ---------------------------------------------

 ---------
 b3lyp opt
 ---------
 Symbolic Z-matrix:
 Charge =  2 Multiplicity = 2

                         Standard orientation:
 ---------------------------------------------------------------------
 Center     Atomic      Atomic             Coordinates (Angstroms)
 Number     Number       Type             X           Y           Z
 ---------------------------------------------------------------------
      1          6           0        0.579695    0.125148    0.000156
      2          6           0       -0.743766   -0.306889   -0.000078
      3          6           0       -1.995346   -0.395552    0.000075
      4          1           0       -3.081020   -0.498779    0.000141
      5          6           0        0.052221    1.427685   -0.000114
      6          6           0        1.841952   -0.515179   -0.000022
      7          1           0        2.750677    0.091557    0.001135
      8          1           0        1.921802   -1.604060   -0.001374
 ---------------------------------------------------------------------

 SCF Done:  E(UB3LYP) =  -191.235675293     A.U. after   23 cycles

 The electronic state is 2-A.
 Alpha  occ. eigenvalues --  -10.78339 -10.75881 -10.74668 -10.73745 -10.72500
 Alpha  occ. eigenvalues --   -1.38140  -1.27200  -1.20174  -1.05221  -1.00490
 Alpha  occ. eigenvalues --   -0.97370  -0.90057  -0.88656  -0.80997  -0.77774
 Alpha  occ. eigenvalues --   -0.77107
 Alpha virt. eigenvalues --   -0.62075  -0.57855  -0.50484  -0.41603  -0.38945
 Alpha virt. eigenvalues --   -0.33062  -0.31757  -0.28848  -0.27817  -0.26301
 Alpha virt. eigenvalues --   -0.25313  -0.24904  -0.23737  -0.20773  -0.20165

  Beta  occ. eigenvalues --  -10.78352 -10.74961 -10.74374 -10.73493 -10.72310
  Beta  occ. eigenvalues --   -1.37411  -1.24574  -1.19056  -1.04819  -0.99735
  Beta  occ. eigenvalues --   -0.96936  -0.89870  -0.85368  -0.80246  -0.77057
  Beta virt. eigenvalues --   -0.67468  -0.59719  -0.57419  -0.47742  -0.41281
  Beta virt. eigenvalues --   -0.35908  -0.32460  -0.31137  -0.28540  -0.27631
  Beta virt. eigenvalues --   -0.26043  -0.24944  -0.24726  -0.23557  -0.20241

 Mulliken charges and spin densities:
               1          2
     1  C    1.329744   0.151551
     2  C   -0.546029   0.229244
     3  C    0.523055   0.489256
     4  H    0.451381  -0.014584
     5  C    0.091067  -0.004951
     6  C   -0.481863   0.161655
     7  H    0.320786  -0.006023
     8  H    0.311858  -0.006148
 Sum of Mulliken charges =   2.00000   1.00000

 Dipole moment (field-independent basis, Debye):
    X=              0.2031    Y=             -2.1162    Z=              0.0004  Tot=              2.1259
 Quadrupole moment (field-independent basis, Debye-Ang):
   XX=             14.8637   YY=            -19.0074   ZZ=            -23.7940
   XY=              0.9716   XZ=             -0.0005   YZ=              0.0026

  Exact polarizability:  81.007   1.147  42.816  -0.003   0.004  25.740
 Approx polarizability: 155.458  13.102  78.719  -0.008   0.005  39.608

                      1                      2                      3
                      A                      A                      A
 Frequencies --    109.9873               156.5013               233.4408
 Red. masses --      4.1397                 1.2022                 3.9111
 Frc consts  --      0.0295                 0.0173                 0.1256
 IR Inten    --     10.1095                 4.1515                14.4167

                      4                      5                      6
                      A                      A                      A
 Frequencies --    281.8203               407.1004               494.9667
 Red. masses --      6.4974                 4.2750                 3.1022
 Frc consts  --      0.3040                 0.4174                 0.4478
 IR Inten    --     32.5648                20.3662                 0.7289

                      7                      8                      9
                      A                      A                      A
 Frequencies --    714.4676               790.0238               840.7571
 Red. masses --      1.3991                 1.2554                 4.0540
 Frc consts  --      0.4208                 0.4617                 1.6884
 IR Inten    --     18.5181                27.5784                17.0297

                     10                     11                     12
                      A                      A                      A
 Frequencies --    954.6673              1148.4127              1157.5306
 Red. masses --      2.1882                 1.3614                 3.0097
 Frc consts  --      1.1750                 1.0579                 2.3760
 IR Inten    --     54.6324                 8.7586                56.3161

                     13                     14                     15
                      A                      A                      A
 Frequencies --   1439.4347              1492.8372              1961.3126
 Red. masses --      1.6610                 2.5624                 6.5084
 Frc consts  --      2.0277                 3.3645                14.7510
 IR Inten    --    276.7602               198.0401               175.9428

                     16                     17                     18
                      A                      A                      A
 Frequencies --   3065.6530              3182.3265              3188.7808
 Red. masses --      1.0559                 1.1269                 1.1553
 Frc consts  --      5.8467                 6.7241                 6.9211
 IR Inten    --    118.0312                89.5530               363.7296

 - Thermochemistry -
 -------------------
 Temperature   298.150 Kelvin.  Pressure   1.00000 Atm.
 Atom     1 has atomic number  6 and mass  12.00000

 Molecular mass:    63.02348 amu.
 Principal axes and moments of inertia in atomic units:
                           1         2         3
     Eigenvalues --   120.01829 428.84745 548.86571
           X            0.99988  -0.01543   0.00000
           Y            0.01543   0.99988  -0.00002
           Z           -0.00000   0.00002   1.00000
 This molecule is an asymmetric top.
 Rotational symmetry number  1.
 Rotational temperatures (Kelvin)      0.72167     0.20197     0.15781
 Rotational constants (GHZ):          15.03722     4.20835     3.28813
 Zero-point vibrational energy     129316.4 (Joules/Mol)
                                   30.90737 (Kcal/Mol)
 Warning -- explicit consideration of   6 degrees of freedom as
           vibrations may cause significant error
 Vibrational temperatures:    158.25   225.17   335.87   405.48   585.73
          (Kelvin)            712.15  1027.96  1136.67  1209.66  1373.55
                             1652.31  1665.43  2071.02  2147.86  2821.89
                             4410.79  4578.65  4587.94

 Zero-point correction=                           0.049254 (Hartree/Particle)
 Thermal correction to Energy=                    0.055270
 Thermal correction to Enthalpy=                  0.056215
 Thermal correction to Gibbs Free Energy=         0.019945
 Sum of electronic and zero-point Energies=           -191.186421
 Sum of electronic and thermal Energies=              -191.180405
 Sum of electronic and thermal Enthalpies=            -191.179461
 Sum of electronic and thermal Free Energies=         -191.215730

                     E (Thermal)             CV                S
                      KCal/Mol        Cal/Mol-Kelvin    Cal/Mol-Kelvin
 Total                   34.683             19.155             76.336
 Electronic               0.000              0.000              1.377
 Translational            0.889              2.981             38.342
 Rotational               0.889              2.981             24.850
 Vibrational             32.905             13.193             11.767
 Vibration     1          0.606              1.941              3.269
 Vibration     2          0.620              1.895              2.592
 Vibration     3          0.654              1.790              1.852
 Vibration     4          0.681              1.707              1.523
 Vibration     5          0.772              1.455              0.937
 Vibration     6          0.851              1.261              0.671

 Normal termination of Gaussian 09 at Sun Jun 19 11:36:39 2016.
