 Gaussian 09, Revision E.01,
 Gaussian 09:  EM64L-G09RevE.01 30-Nov-2015

 ---------------------------------------------
 #p b3lyp/6-311++G(3df,2p) freq symmetry=Loose
 ---------------------------------------------

 ---------
 b3lyp opt
 ---------
 Symbolic Z-matrix:
 Charge =  0 Multiplicity = 4

                         Standard orientation:
 ---------------------------------------------------------------------
 Center     Atomic      Atomic             Coordinates (Angstroms)
 Number     Number       Type             X           Y           Z
 ---------------------------------------------------------------------
      1          6           0        0.638156   -0.006878   -0.035205
      2          6           0       -0.742326   -0.142238   -0.098953
      3          6           0       -1.856448   -0.970391    0.051908
      4          1           0       -0.271805    1.774697    0.978441
      5          6           0        1.849868   -0.505930    0.034434
      6          1           0        2.329725   -1.470399    0.000781
      7          6           0       -0.195954    1.258703    0.026598
      8          1           0       -0.217691    1.896101   -0.851912
 ---------------------------------------------------------------------

 SCF Done:  E(UB3LYP) =  -192.024457707     A.U. after   21 cycles

 The electronic state is 4-A.
 Alpha  occ. eigenvalues --  -10.25526 -10.24834 -10.24164 -10.22520 -10.22081
 Alpha  occ. eigenvalues --   -0.92864  -0.78021  -0.72486  -0.61590  -0.55347
 Alpha  occ. eigenvalues --   -0.49539  -0.43378  -0.39675  -0.35566  -0.31957
 Alpha  occ. eigenvalues --   -0.29336  -0.27298  -0.19951
 Alpha virt. eigenvalues --   -0.09097  -0.01133   0.00631   0.02521   0.03291
 Alpha virt. eigenvalues --    0.03349   0.04429   0.06228   0.06840   0.07103
 Alpha virt. eigenvalues --    0.09138   0.09476   0.10399   0.11077   0.12140

  Beta  occ. eigenvalues --  -10.24283 -10.24162 -10.23544 -10.22131 -10.20261
  Beta  occ. eigenvalues --   -0.91358  -0.74130  -0.68021  -0.59939  -0.53419
  Beta  occ. eigenvalues --   -0.48689  -0.40272  -0.36959  -0.32714  -0.27093
  Beta virt. eigenvalues --   -0.18322  -0.13015  -0.05740  -0.04951  -0.00775
  Beta virt. eigenvalues --    0.00956   0.02832   0.03647   0.04279   0.05703
  Beta virt. eigenvalues --    0.06801   0.07415   0.08143   0.09834   0.09987

 Mulliken charges and spin densities:
               1          2
     1  C    0.300613  -0.142051
     2  C    0.649067   0.471829
     3  C   -0.668973   1.178040
     4  H    0.170608   0.005540
     5  C   -0.340252   1.298629
     6  H    0.221585   0.019807
     7  C   -0.502760   0.164984
     8  H    0.170111   0.003222
 Sum of Mulliken charges =  -0.00000   3.00000

 Dipole moment (field-independent basis, Debye):
    X=              3.2592    Y=              1.6366    Z=             -0.3805  Tot=              3.6668
 Quadrupole moment (field-independent basis, Debye-Ang):
   XX=            -36.1712   YY=            -29.4335   ZZ=            -29.0826
   XY=             -6.8520   XZ=              0.8565   YZ=              0.4414

  Exact polarizability: 110.162   6.900  65.697   4.562   1.581  42.463
 Approx polarizability: 170.322   4.482  90.800   2.126  -0.860  60.287

                      1                      2                      3
                      A                      A                      A
 Frequencies --    156.2547               220.2053               312.5410
 Red. masses --      6.5117                 4.0052                 2.7036
 Frc consts  --      0.0937                 0.1144                 0.1556
 IR Inten    --     37.4636                 9.1500                19.2929

                      4                      5                      6
                      A                      A                      A
 Frequencies --    422.8757               627.6222               666.8345
 Red. masses --      3.5801                 4.2382                 1.2785
 Frc consts  --      0.3772                 0.9836                 0.3349
 IR Inten    --      4.8518                 4.7135                23.5376

                      7                      8                      9
                      A                      A                      A
 Frequencies --    810.7977               827.6254               901.7221
 Red. masses --      2.0154                 3.7469                 1.4759
 Frc consts  --      0.7806                 1.5121                 0.7071
 IR Inten    --     72.5248                18.6306                21.2362

                     10                     11                     12
                      A                      A                      A
 Frequencies --    956.7036               963.9025              1029.5104
 Red. masses --      1.3350                 3.1258                 1.4361
 Frc consts  --      0.7199                 1.7111                 0.8968
 IR Inten    --     32.7863                14.7042                 9.0671

                     13                     14                     15
                      A                      A                      A
 Frequencies --   1318.1810              1444.5500              1631.1041
 Red. masses --      8.6735                 1.1045                 9.7516
 Frc consts  --      8.8797                 1.3579                15.2858
 IR Inten    --     22.9157                 1.3703               225.7817

                     16                     17                     18
                      A                      A                      A
 Frequencies --   3074.3022              3160.9295              3240.9921
 Red. masses --      1.0485                 1.1168                 1.0993
 Frc consts  --      5.8389                 6.5741                 6.8031
 IR Inten    --      3.6753                 1.5577                 4.1473

 - Thermochemistry -
 -------------------
 Temperature   298.150 Kelvin.  Pressure   1.00000 Atm.
 Atom     1 has atomic number  6 and mass  12.00000

 Molecular mass:    63.02348 amu.
 Principal axes and moments of inertia in atomic units:
                           1         2         3
     Eigenvalues --   157.49095 364.65146 508.69386
           X            0.99733  -0.07300  -0.00089
           Y            0.07300   0.99733   0.00313
           Z            0.00066  -0.00319   0.99999
 This molecule is an asymmetric top.
 Rotational symmetry number  1.
 Rotational temperatures (Kelvin)      0.54996     0.23752     0.17027
 Rotational constants (GHZ):          11.45933     4.94922     3.54779
 Zero-point vibrational energy     130193.5 (Joules/Mol)
                                   31.11699 (Kcal/Mol)
 Warning -- explicit consideration of   4 degrees of freedom as
           vibrations may cause significant error
 Vibrational temperatures:    224.82   316.83   449.68   608.42   903.01
          (Kelvin)            959.42  1166.56  1190.77  1297.38  1376.48
                             1386.84  1481.23  1896.57  2078.38  2346.79
                             4423.23  4547.87  4663.06

 Zero-point correction=                           0.049588 (Hartree/Particle)
 Thermal correction to Energy=                    0.054885
 Thermal correction to Enthalpy=                  0.055830
 Thermal correction to Gibbs Free Energy=         0.020485
 Sum of electronic and zero-point Energies=           -191.974870
 Sum of electronic and thermal Energies=              -191.969572
 Sum of electronic and thermal Enthalpies=            -191.968628
 Sum of electronic and thermal Free Energies=         -192.003972

                     E (Thermal)             CV                S
                      KCal/Mol        Cal/Mol-Kelvin    Cal/Mol-Kelvin
 Total                   34.441             17.812             74.388
 Electronic               0.000              0.000              2.755
 Translational            0.889              2.981             38.342
 Rotational               0.889              2.981             24.883
 Vibrational             32.664             11.850              8.408
 Vibration     1          0.620              1.896              2.595
 Vibration     2          0.647              1.810              1.957
 Vibration     3          0.701              1.650              1.349
 Vibration     4          0.785              1.421              0.882

 Optimization completed.
    -- Stationary point found.
 Normal termination of Gaussian 09 at Sun Jun 19 08:45:19 2016.
