 Gaussian 09, Revision E.01,
 Gaussian 09:  EM64L-G09RevE.01 30-Nov-2015

 ---------------------------------------------
 #p b3lyp/6-311++G(3df,2p) freq symmetry=Loose
 ---------------------------------------------

 ---------
 b3lyp opt
 ---------
 Symbolic Z-matrix:
 Charge =  3 Multiplicity = 1

                         Standard orientation:
 ---------------------------------------------------------------------
 Center     Atomic      Atomic             Coordinates (Angstroms)
 Number     Number       Type             X           Y           Z
 ---------------------------------------------------------------------
      1          6           0       -0.092141    0.032372    0.000071
      2          1           0       -1.619453    1.537645    0.000126
      3          6           0        2.471587    0.434230   -0.000130
      4          1           0        1.519511   -1.058827   -0.929993
      5          6           0       -1.320254    0.425289    0.000034
      6          6           0       -2.553843   -0.378545   -0.000103
      7          6           0        1.258059   -0.416725    0.000059
      8          1           0        1.519486   -1.058540    0.930282
 ---------------------------------------------------------------------

 SCF Done:  E(RB3LYP) =  -190.325695622     A.U. after   14 cycles

 The electronic state is 1-A.
 Alpha  occ. eigenvalues --  -11.09636 -11.08192 -11.04318 -10.94131 -10.92883
 Alpha  occ. eigenvalues --   -1.57251  -1.51918  -1.39172  -1.31705  -1.18638
 Alpha  occ. eigenvalues --   -1.17605  -1.16212  -1.03396  -1.03023  -1.00653
 Alpha virt. eigenvalues --   -0.84580  -0.84173  -0.83109  -0.81343  -0.80511
 Alpha virt. eigenvalues --   -0.65568  -0.54857  -0.51914  -0.48606  -0.47848
 Alpha virt. eigenvalues --   -0.44434  -0.42356  -0.41843  -0.41495  -0.39623

 Mulliken charges:
               1
     1  C    0.857519
     2  H    0.309273
     3  C    0.531832
     4  H    0.378501
     5  C    0.273578
     6  C    0.563877
     7  C   -0.293079
     8  H    0.378498
 Sum of Mulliken charges =   3.00000

 Dipole moment (field-independent basis, Debye):
    X=              0.7133    Y=             -0.1134    Z=              0.0001  Tot=              0.7223
 Quadrupole moment (field-independent basis, Debye-Ang):
   XX=             31.3239   YY=            -12.9072   ZZ=            -19.7535
   XY=             -4.6284   XZ=             -0.0000   YZ=              0.0004

  Exact polarizability:  97.299   2.131  35.575   0.000   0.000  28.762
 Approx polarizability: 221.246  15.059  64.380   0.002   0.001  45.306

                      1                      2                      3
                      A                      A                      A
 Frequencies --     73.8063               177.7497               296.7533
 Red. masses --      4.1972                 6.7898                 9.1740
 Frc consts  --      0.0135                 0.1264                 0.4760
 IR Inten    --      2.4484                 3.3267                 1.6272

                      4                      5                      6
                      A                      A                      A
 Frequencies --    341.7814               538.6432               615.7915
 Red. masses --      1.9663                 1.6856                 4.3328
 Frc consts  --      0.1353                 0.2881                 0.9680
 IR Inten    --     24.3792                 3.4680                10.8915

                      7                      8                      9
                      A                      A                      A
 Frequencies --    625.5209               734.2784               808.0015
 Red. masses --      1.8852                 5.1330                 2.6090
 Frc consts  --      0.4346                 1.6306                 1.0036
 IR Inten    --     21.8954                53.9958               327.9993

                     10                     11                     12
                      A                      A                      A
 Frequencies --    848.9184              1017.5129              1123.4456
 Red. masses --      1.1732                 1.1876                 2.0529
 Frc consts  --      0.4981                 0.7244                 1.5266
 IR Inten    --      0.1817                 4.8321               583.1434

                     13                     14                     15
                      A                      A                      A
 Frequencies --   1139.6496              1275.9599              1815.3762
 Red. masses --      1.7075                 2.2147                10.4945
 Frc consts  --      1.3066                 2.1244                20.3773
 IR Inten    --     22.2018               144.7855               936.7561

                     16                     17                     18
                      A                      A                      A
 Frequencies --   2463.1331              2465.3361              2523.2613
 Red. masses --      1.0544                 1.0924                 1.0868
 Frc consts  --      3.7690                 3.9118                 4.0770
 IR Inten    --    783.1423               422.5853               487.0860

 - Thermochemistry -
 -------------------
 Temperature   298.150 Kelvin.  Pressure   1.00000 Atm.
 Atom     1 has atomic number  6 and mass  12.00000

 Molecular mass:    63.02348 amu.
 Principal axes and moments of inertia in atomic units:
                           1         2         3
     Eigenvalues --    51.62585 716.94151 756.11254
           X            0.99954  -0.03048   0.00000
           Y            0.03048   0.99954   0.00001
           Z           -0.00000  -0.00001   1.00000
 This molecule is an asymmetric top.
 Rotational symmetry number  1.
 Rotational temperatures (Kelvin)      1.67772     0.12081     0.11455
 Rotational constants (GHZ):          34.95809     2.51728     2.38687
 Zero-point vibrational energy     112956.9 (Joules/Mol)
                                   26.99735 (Kcal/Mol)
 Warning -- explicit consideration of   6 degrees of freedom as
           vibrations may cause significant error
 Vibrational temperatures:    106.19   255.74   426.96   491.75   774.99
          (Kelvin)            885.99   899.98  1056.46  1162.53  1221.40
                             1463.97  1616.39  1639.70  1835.82  2611.92
                             3543.89  3547.06  3630.41

 Zero-point correction=                           0.043023 (Hartree/Particle)
 Thermal correction to Energy=                    0.048861
 Thermal correction to Enthalpy=                  0.049805
 Thermal correction to Gibbs Free Energy=         0.014412
 Sum of electronic and zero-point Energies=           -190.282673
 Sum of electronic and thermal Energies=              -190.276834
 Sum of electronic and thermal Enthalpies=            -190.275890
 Sum of electronic and thermal Free Energies=         -190.311284

                     E (Thermal)             CV                S
                      KCal/Mol        Cal/Mol-Kelvin    Cal/Mol-Kelvin
 Total                   30.661             19.243             74.492
 Electronic               0.000              0.000              0.000
 Translational            0.889              2.981             38.342
 Rotational               0.889              2.981             24.840
 Vibrational             28.883             13.281             11.310
 Vibration     1          0.599              1.966              4.049
 Vibration     2          0.628              1.870              2.352
 Vibration     3          0.690              1.680              1.435
 Vibration     4          0.721              1.592              1.204
 Vibration     5          0.894              1.165              0.568
 Vibration     6          0.975              0.998              0.423

 Optimization completed.
    -- Stationary point found.
 Normal termination of Gaussian 09 at Sun Jun 19 13:30:40 2016.
