 Gaussian 09, Revision E.01,
 Gaussian 09:  EM64L-G09RevE.01 30-Nov-2015

 ---------------------------------------------
 #p b3lyp/6-311++G(3df,2p) freq symmetry=Loose
 ---------------------------------------------

 ---------
 b3lyp opt
 ---------
 Symbolic Z-matrix:
 Charge =  0 Multiplicity = 4

                         Standard orientation:
 ---------------------------------------------------------------------
 Center     Atomic      Atomic             Coordinates (Angstroms)
 Number     Number       Type             X           Y           Z
 ---------------------------------------------------------------------
      1          6           0       -0.000000    2.054611    0.000000
      2          6           0       -0.064567    0.666643    0.000000
      3          6           0        0.016906   -0.401654    1.027738
      4          1           0        0.021521   -0.417419    2.104669
      5          6           0        0.025463   -1.370377   -0.000000
      6          1           0       -0.011297   -2.450622   -0.000000
      7          6           0        0.016906   -0.401654   -1.027738
      8          1           0        0.021521   -0.417419   -2.104669
 ---------------------------------------------------------------------

 SCF Done:  E(UB3LYP) =  -192.079999408     A.U. after   20 cycles

 The electronic state is 4-A'.
 Alpha  occ. eigenvalues --  -10.24761 -10.23519 -10.22623 -10.22617 -10.20254
 Alpha  occ. eigenvalues --   -0.93389  -0.74849  -0.69233  -0.62058  -0.55711
 Alpha  occ. eigenvalues --   -0.45185  -0.44621  -0.43401  -0.41243  -0.29869
 Alpha  occ. eigenvalues --   -0.27257  -0.22944  -0.20284
 Alpha virt. eigenvalues --   -0.07146  -0.01276   0.00794   0.01236   0.02833
 Alpha virt. eigenvalues --    0.04210   0.05667   0.05903   0.06748   0.08178
 Alpha virt. eigenvalues --    0.08527   0.09850   0.10259   0.10555   0.11174

  Beta  occ. eigenvalues --  -10.24532 -10.23157 -10.21595 -10.21592 -10.18339
  Beta  occ. eigenvalues --   -0.91268  -0.70940  -0.66371  -0.59791  -0.54431
  Beta  occ. eigenvalues --   -0.43657  -0.42586  -0.39937  -0.37748  -0.25662
  Beta virt. eigenvalues --   -0.17200  -0.10801  -0.05159  -0.02143  -0.01220
  Beta virt. eigenvalues --    0.01220   0.01392   0.03914   0.04726   0.05845
  Beta virt. eigenvalues --    0.07018   0.07538   0.08365   0.09439   0.10211

 Mulliken charges and spin densities:
               1          2
     1  C   -0.614201   1.248139
     2  C    0.498797   0.221328
     3  C   -0.304587   0.737391
     4  H    0.239741  -0.020944
     5  C    0.003853   0.108614
     6  H    0.241244  -0.010975
     7  C   -0.304587   0.737391
     8  H    0.239741  -0.020944
 Sum of Mulliken charges =  -0.00000   3.00000

 Dipole moment (field-independent basis, Debye):
    X=             -0.3487    Y=             -4.8231    Z=             -0.0000  Tot=              4.8357
 Quadrupole moment (field-independent basis, Debye-Ang):
   XX=            -30.8855   YY=            -36.6894   ZZ=            -26.4025
   XY=             -0.9529   XZ=             -0.0000   YZ=              0.0000

  Exact polarizability:  40.604  -6.998 111.652   0.000  -0.000  61.947
 Approx polarizability:  57.920  -2.165 156.208   0.000   0.000  94.863

                      1                      2                      3
                     A'                     A"                     A'
 Frequencies --    216.7273               357.9796               465.9008
 Red. masses --      3.9353                 5.0575                 3.1927
 Frc consts  --      0.1089                 0.3819                 0.4083
 IR Inten    --      9.4119                 4.8293               177.8216

                      4                      5                      6
                     A"                     A'                     A'
 Frequencies --    598.2773               607.2713               727.4227
 Red. masses --      1.3260                 1.2291                 4.9365
 Frc consts  --      0.2796                 0.2671                 1.5390
 IR Inten    --      0.1622               146.9152                 4.2010

                      7                      8                      9
                     A'                     A'                     A"
 Frequencies --    912.1157               917.7188               947.4104
 Red. masses --      2.0643                 1.7546                 1.9480
 Frc consts  --      1.0118                 0.8706                 1.0302
 IR Inten    --     15.6451                 7.1998                22.0228

                     10                     11                     12
                     A"                     A'                     A"
 Frequencies --    985.0830              1112.5140              1200.9137
 Red. masses --      2.3944                 2.6267                 1.8490
 Frc consts  --      1.3690                 1.9155                 1.5712
 IR Inten    --      0.8941                11.1068                 8.0601

                     13                     14                     15
                     A"                     A'                     A'
 Frequencies --   1316.3097              1335.0831              1370.3542
 Red. masses --      2.0671                 3.5238                 5.4546
 Frc consts  --      2.1102                 3.7006                 6.0350
 IR Inten    --      0.0992               257.7536                 9.9613

                     16                     17                     18
                     A'                     A"                     A'
 Frequencies --   3201.6933              3242.5800              3252.3910
 Red. masses --      1.0914                 1.0923                 1.1076
 Frc consts  --      6.5918                 6.7666                 6.9031
 IR Inten    --      0.3891                 0.2146                 1.4560

 - Thermochemistry -
 -------------------
 Temperature   298.150 Kelvin.  Pressure   1.00000 Atm.
 Atom     1 has atomic number  6 and mass  12.00000

 Molecular mass:    63.02348 amu.
 Principal axes and moments of inertia in atomic units:
                           1         2         3
     Eigenvalues --   122.59775 316.74606 438.96972
           X           -0.01227   0.00000   0.99992
           Y            0.99992   0.00000   0.01227
           Z            0.00000   1.00000   0.00000
 This molecule is an asymmetric top.
 Rotational symmetry number  1.
 Rotational temperatures (Kelvin)      0.70649     0.27345     0.19731
 Rotational constants (GHZ):          14.72083     5.69775     4.11131
 Zero-point vibrational energy     136181.4 (Joules/Mol)
                                   32.54813 (Kcal/Mol)
 Warning -- explicit consideration of   5 degrees of freedom as
           vibrations may cause significant error
 Vibrational temperatures:    311.82   515.05   670.33   860.79   873.73
          (Kelvin)           1046.60  1312.33  1320.39  1363.11  1417.31
                             1600.66  1727.84  1893.87  1920.88  1971.63
                             4606.52  4665.34  4679.46

 Zero-point correction=                           0.051869 (Hartree/Particle)
 Thermal correction to Energy=                    0.056514
 Thermal correction to Enthalpy=                  0.057458
 Thermal correction to Gibbs Free Energy=         0.023664
 Sum of electronic and zero-point Energies=           -192.028131
 Sum of electronic and thermal Energies=              -192.023486
 Sum of electronic and thermal Enthalpies=            -192.022542
 Sum of electronic and thermal Free Energies=         -192.056335

                     E (Thermal)             CV                S
                      KCal/Mol        Cal/Mol-Kelvin    Cal/Mol-Kelvin
 Total                   35.463             16.147             71.124
 Electronic               0.000              0.000              2.755
 Translational            0.889              2.981             38.342
 Rotational               0.889              2.981             24.348
 Vibrational             33.685             10.185              5.679
 Vibration     1          0.646              1.816              1.986
 Vibration     2          0.733              1.559              1.131
 Vibration     3          0.823              1.326              0.749
 Vibration     4          0.956              1.035              0.453
 Vibration     5          0.966              1.016              0.437

 Optimization completed.
    -- Stationary point found.
 Normal termination of Gaussian 09 at Sun Jun 19 08:43:09 2016.
