 Gaussian 09, Revision E.01,
 Gaussian 09:  EM64L-G09RevE.01 30-Nov-2015

 ---------------------------------------------
 #p b3lyp/6-311++G(3df,2p) freq symmetry=Loose
 ---------------------------------------------

 ---------
 b3lyp opt
 ---------
 Symbolic Z-matrix:
 Charge =  2 Multiplicity = 2

                         Standard orientation:
 ---------------------------------------------------------------------
 Center     Atomic      Atomic             Coordinates (Angstroms)
 Number     Number       Type             X           Y           Z
 ---------------------------------------------------------------------
      1          6           0       -2.003692   -1.052570    0.000000
      2          1           0       -3.049048   -0.674899    0.000000
      3          1           0       -1.887672   -2.156143    0.000000
      4          6           0       -1.002811   -0.251833    0.000000
      5          6           0        0.000000    0.684744    0.000000
      6          1           0       -0.386584    1.728616    0.000000
      7          6           0        1.334572    0.452741    0.000000
      8          6           0        2.559148    0.350655    0.000000
 ---------------------------------------------------------------------

 SCF Done:  E(UB3LYP) =  -191.251875420     A.U. after   20 cycles

 The electronic state is 2-A'.
 Alpha  occ. eigenvalues --  -10.77105 -10.74362 -10.74349 -10.70275 -10.66320
 Alpha  occ. eigenvalues --   -1.33149  -1.26382  -1.20894  -1.06992  -0.98490
 Alpha  occ. eigenvalues --   -0.96275  -0.91339  -0.84941  -0.84098  -0.76988
 Alpha  occ. eigenvalues --   -0.75217
 Alpha virt. eigenvalues --   -0.61498  -0.59440  -0.44716  -0.42741  -0.34295
 Alpha virt. eigenvalues --   -0.33291  -0.28743  -0.28178  -0.26112  -0.24671
 Alpha virt. eigenvalues --   -0.23899  -0.23311  -0.21521  -0.20701  -0.19633

  Beta  occ. eigenvalues --  -10.77066 -10.74496 -10.71694 -10.70447 -10.66172
  Beta  occ. eigenvalues --   -1.33406  -1.26253  -1.18904  -1.06506  -0.98612
  Beta  occ. eigenvalues --   -0.96484  -0.91460  -0.85444  -0.75758  -0.73376
  Beta virt. eigenvalues --   -0.60958  -0.60282  -0.59026  -0.43849  -0.40082
  Beta virt. eigenvalues --   -0.34355  -0.31419  -0.28733  -0.28127  -0.26191
  Beta virt. eigenvalues --   -0.24739  -0.23794  -0.23352  -0.21472  -0.20712

 Mulliken charges and spin densities:
               1          2
     1  C   -0.203545  -0.086441
     2  H    0.344948   0.002936
     3  H    0.329306   0.002970
     4  C    0.705531   0.020216
     5  C   -0.302765  -0.054326
     6  H    0.276241  -0.006224
     7  C    0.635772  -0.066565
     8  C    0.214513   1.187433
 Sum of Mulliken charges =   2.00000   1.00000

 Dipole moment (field-independent basis, Debye):
    X=             -2.9859    Y=             -1.0423    Z=              0.0000  Tot=              3.1626
 Quadrupole moment (field-independent basis, Debye-Ang):
   XX=             16.7704   YY=            -11.7010   ZZ=            -24.8285
   XY=             11.2433   XZ=              0.0000   YZ=              0.0000

  Exact polarizability:  96.234  19.650  43.874   0.002   0.001  25.169
 Approx polarizability: 210.125  39.130  69.247  -0.000  -0.000  35.161

                      1                      2                      3
                     A'                     A"                     A'
 Frequencies --    105.3327               241.9809               259.9625
 Red. masses --      5.0371                 2.1400                 3.4418
 Frc consts  --      0.0329                 0.0738                 0.1370
 IR Inten    --      3.3084                22.5607                 3.3724

                      4                      5                      6
                     A"                     A'                     A"
 Frequencies --    301.6421               406.7934               434.2307
 Red. masses --      6.7337                 1.9732                 1.3214
 Frc consts  --      0.3610                 0.1924                 0.1468
 IR Inten    --      1.5766                 8.6628                10.6356

                      7                      8                      9
                     A'                     A"                     A"
 Frequencies --    740.8241               842.0724               916.9546
 Red. masses --      3.1922                 1.7486                 1.3449
 Frc consts  --      1.0322                 0.7305                 0.6663
 IR Inten    --      3.3821                 7.0119                48.3726

                     10                     11                     12
                     A'                     A'                     A'
 Frequencies --    926.3774              1108.7504              1212.7524
 Red. masses --      4.5603                 1.4330                 1.1164
 Frc consts  --      2.3058                 1.0379                 0.9675
 IR Inten    --      4.8061                 5.0510               154.5308

                     13                     14                     15
                     A'                     A'                     A'
 Frequencies --   1375.0761              1736.6930              2140.5002
 Red. masses --      3.7606                 9.4540                11.7063
 Frc consts  --      4.1895                16.8000                31.6009
 IR Inten    --      1.2491               168.6418               553.2739

                     16                     17                     18
                     A'                     A'                     A'
 Frequencies --   2871.7061              2905.2866              2942.5119
 Red. masses --      1.0699                 1.0721                 1.1059
 Frc consts  --      5.1983                 5.3315                 5.6415
 IR Inten    --    527.8241               315.7653               286.4952

 - Thermochemistry -
 -------------------
 Temperature   298.150 Kelvin.  Pressure   1.00000 Atm.
 Atom     1 has atomic number  6 and mass  12.00000

 Molecular mass:    63.02348 amu.
 Principal axes and moments of inertia in atomic units:
                           1         2         3
     Eigenvalues --    52.85439 677.89933 730.75372
           X            0.95034  -0.31123   0.00000
           Y            0.31123   0.95034   0.00000
           Z            0.00000   0.00000   1.00000
 This molecule is an asymmetric top.
 Rotational symmetry number  1.
 Rotational temperatures (Kelvin)      1.63873     0.12777     0.11853
 Rotational constants (GHZ):          34.14553     2.66226     2.46970
 Zero-point vibrational energy     128415.8 (Joules/Mol)
                                   30.69212 (Kcal/Mol)
 Warning -- explicit consideration of   6 degrees of freedom as
           vibrations may cause significant error
 Vibrational temperatures:    151.55   348.16   374.03   434.00   585.28
          (Kelvin)            624.76  1065.88  1211.55  1319.29  1332.85
                             1595.24  1744.88  1978.43  2498.71  3079.70
                             4131.74  4180.05  4233.61

 Zero-point correction=                           0.048911 (Hartree/Particle)
 Thermal correction to Energy=                    0.054751
 Thermal correction to Enthalpy=                  0.055695
 Thermal correction to Gibbs Free Energy=         0.019915
 Sum of electronic and zero-point Energies=           -191.202964
 Sum of electronic and thermal Energies=              -191.197124
 Sum of electronic and thermal Enthalpies=            -191.196180
 Sum of electronic and thermal Free Energies=         -191.231960

                     E (Thermal)             CV                S
                      KCal/Mol        Cal/Mol-Kelvin    Cal/Mol-Kelvin
 Total                   34.357             18.854             75.305
 Electronic               0.000              0.000              1.377
 Translational            0.889              2.981             38.342
 Rotational               0.889              2.981             24.774
 Vibrational             32.579             12.892             10.812
 Vibration     1          0.605              1.945              3.353
 Vibration     2          0.658              1.776              1.788
 Vibration     3          0.668              1.746              1.662
 Vibration     4          0.694              1.671              1.408
 Vibration     5          0.772              1.455              0.938
 Vibration     6          0.795              1.396              0.845

 Normal termination of Gaussian 09 at Sun Jun 19 11:34:05 2016.
