 Gaussian 09, Revision E.01,
 Gaussian 09:  EM64L-G09RevE.01 30-Nov-2015

 ------------------------------------------------------
 #p b3lyp/6-311++G(3df,2p) freq IOp(2/17=3) IOp(2/18=3)
 ------------------------------------------------------

 ---------
 b3lyp opt
 ---------
 Symbolic Z-matrix:
 Charge =  3 Multiplicity = 3

                         Standard orientation:
 ---------------------------------------------------------------------
 Center     Atomic      Atomic             Coordinates (Angstroms)
 Number     Number       Type             X           Y           Z
 ---------------------------------------------------------------------
      1          6           0       -0.218752   -0.823140   -0.000000
      2          6           0       -0.072284    0.399086   -0.896705
      3          6           0       -0.000000    1.501064    0.000000
      4          6           0       -0.072284    0.399086    0.896705
      5          1           0       -1.303153   -1.252602   -0.000000
      6          1           0       -0.723391    2.432610    0.000000
      7          1           0        0.876729    2.294421    0.000000
      8          6           0        0.554830   -2.055178   -0.000000
 ---------------------------------------------------------------------

 SCF Done:  E(UB3LYP) =  -190.238438345     A.U. after   20 cycles

 The electronic state is 3-A".
 Alpha  occ. eigenvalues --  -11.13442 -11.05972 -11.05967 -11.03080 -10.96728
 Alpha  occ. eigenvalues --   -1.70592  -1.54275  -1.39521  -1.31897  -1.26060
 Alpha  occ. eigenvalues --   -1.20490  -1.17934  -1.15702  -1.11563  -1.02587
 Alpha  occ. eigenvalues --   -1.01823
 Alpha virt. eigenvalues --   -0.88659  -0.85786  -0.82816  -0.79267  -0.57272
 Alpha virt. eigenvalues --   -0.55721  -0.53947  -0.50223  -0.49802  -0.47061
 Alpha virt. eigenvalues --   -0.46899  -0.45233  -0.42115  -0.40510  -0.38923

  Beta  occ. eigenvalues --  -11.09645 -11.05818 -11.05812 -11.02828 -10.96639
  Beta  occ. eigenvalues --   -1.70213  -1.51182  -1.36715  -1.31312  -1.24476
  Beta  occ. eigenvalues --   -1.19907  -1.16566  -1.12527  -1.02037
  Beta virt. eigenvalues --   -0.92065  -0.85196  -0.83648  -0.82661  -0.82477
  Beta virt. eigenvalues --   -0.75677  -0.55452  -0.55442  -0.52855  -0.49850
  Beta virt. eigenvalues --   -0.49106  -0.46801  -0.46095  -0.43303  -0.41092

 Mulliken charges and spin densities:
               1          2
     1  C    0.314294   0.112269
     2  C    0.710223   0.062270
     3  C   -0.344343   0.042630
     4  C    0.710223   0.062270
     5  H    0.370874  -0.012013
     6  H    0.371164   0.000122
     7  H    0.387336   0.009093
     8  C    0.480230   1.723357
 Sum of Mulliken charges =   3.00000   2.00000

 Dipole moment (field-independent basis, Debye):
    X=              0.1400    Y=             -0.0950    Z=             -0.0000  Tot=              0.1692
 Quadrupole moment (field-independent basis, Debye-Ang):
   XX=            -14.0311   YY=             23.2442   ZZ=            -20.1519
   XY=             -1.8570   XZ=              0.0000   YZ=             -0.0000

  Exact polarizability:  29.821  -1.974  60.429  -0.000  -0.000  36.279
 Approx polarizability:  51.548  -3.956 105.477  -0.000   0.000 101.871

                      1                      2                      3
                     A'                     A"                     A'
 Frequencies --    256.8770               337.7526               438.0130
 Red. masses --      2.8920                 4.6645                 1.6666
 Frc consts  --      0.1124                 0.3135                 0.1884
 IR Inten    --     38.3394                19.3918                95.7290

                      4                      5                      6
                     A"                     A'                     A'
 Frequencies --    531.9373               615.4243               675.0809
 Red. masses --      3.6235                 1.5385                 3.5135
 Frc consts  --      0.6041                 0.3433                 0.9434
 IR Inten    --     23.8121               444.3990               111.6135

                      7                      8                      9
                     A"                     A'                     A'
 Frequencies --    688.0882               692.4256               809.0244
 Red. masses --      1.2813                 3.4661                 6.3253
 Frc consts  --      0.3574                 0.9791                 2.4392
 IR Inten    --      6.9877               128.2879                26.2504

                     10                     11                     12
                     A"                     A"                     A"
 Frequencies --    869.9428               933.7268               940.4222
 Red. masses --      4.2735                 1.2980                 1.4545
 Frc consts  --      1.9055                 0.6668                 0.7579
 IR Inten    --     18.6902                 2.4287                95.3802

                     13                     14                     15
                     A'                     A'                     A'
 Frequencies --    948.3210              1171.7589              1296.1832
 Red. masses --      1.8746                 2.6547                 4.5720
 Frc consts  --      0.9933                 2.1475                 4.5257
 IR Inten    --      4.0314                20.6084                21.6250

                     16                     17                     18
                     A'                     A'                     A'
 Frequencies --   2178.8741              2364.8208              2433.1678
 Red. masses --      1.0688                 1.0807                 1.0937
 Frc consts  --      2.9895                 3.5609                 3.8149
 IR Inten    --    574.4688              1605.5061               554.9869

 - Thermochemistry -
 -------------------
 Temperature   298.150 Kelvin.  Pressure   1.00000 Atm.
 Atom     1 has atomic number  6 and mass  12.00000

 Molecular mass:    63.02348 amu.
 Principal axes and moments of inertia in atomic units:
                           1         2         3
     Eigenvalues --    91.38314 391.83643 438.28142
           X           -0.10615   0.00000   0.99435
           Y            0.99435   0.00000   0.10615
           Z            0.00000   1.00000   0.00000
 This molecule is an asymmetric top.
 Rotational symmetry number  1.
 Rotational temperatures (Kelvin)      0.94781     0.22105     0.19762
 Rotational constants (GHZ):          19.74917     4.60585     4.11777
 Zero-point vibrational energy     108751.6 (Joules/Mol)
                                   25.99225 (Kcal/Mol)
 Warning -- explicit consideration of   5 degrees of freedom as
           vibrations may cause significant error
 Vibrational temperatures:    369.59   485.95   630.20   765.34   885.46
          (Kelvin)            971.29   990.00   996.24  1164.00  1251.65
                             1343.42  1353.06  1364.42  1685.90  1864.92
                             3134.91  3402.45  3500.78

 Zero-point correction=                           0.041421 (Hartree/Particle)
 Thermal correction to Energy=                    0.046395
 Thermal correction to Enthalpy=                  0.047339
 Thermal correction to Gibbs Free Energy=         0.013464
 Sum of electronic and zero-point Energies=           -190.197017
 Sum of electronic and thermal Energies=              -190.192043
 Sum of electronic and thermal Enthalpies=            -190.191099
 Sum of electronic and thermal Free Energies=         -190.224975

                     E (Thermal)             CV                S
                      KCal/Mol        Cal/Mol-Kelvin    Cal/Mol-Kelvin
 Total                   29.113             18.356             71.298
 Electronic               0.000              0.000              2.183
 Translational            0.889              2.981             38.342
 Rotational               0.889              2.981             24.266
 Vibrational             27.336             12.394              6.507
 Vibration     1          0.666              1.751              1.683
 Vibration     2          0.718              1.600              1.223
 Vibration     3          0.798              1.387              0.833
 Vibration     4          0.887              1.179              0.583
 Vibration     5          0.975              0.999              0.424

 Optimization completed.
    -- Stationary point found.
 Normal termination of Gaussian 09 at Thu Jan 31 06:11:25 2019.
