 Gaussian 09, Revision E.01,
 Gaussian 09:  EM64L-G09RevE.01 30-Nov-2015

 ---------------------------------------------
 #p b3lyp/6-311++G(3df,2p) freq symmetry=Loose
 ---------------------------------------------

 ---------
 b3lyp opt
 ---------
 Symbolic Z-matrix:
 Charge =  3 Multiplicity = 1

                         Standard orientation:
 ---------------------------------------------------------------------
 Center     Atomic      Atomic             Coordinates (Angstroms)
 Number     Number       Type             X           Y           Z
 ---------------------------------------------------------------------
      1          6           0        1.261426   -0.014981   -0.001105
      2          6           0        0.009098    0.154277   -0.000112
      3          6           0       -1.395389    0.381815    0.000267
      4          1           0       -1.726581    1.013303    0.913725
      5          1           0       -1.727125    1.013838   -0.912764
      6          6           0       -2.438762   -0.675001    0.000072
      7          6           0        2.531555   -0.142034    0.000429
      8          1           0        3.646142   -0.251603    0.001732
 ---------------------------------------------------------------------

 SCF Done:  E(RB3LYP) =  -190.442200509     A.U. after   14 cycles

 The electronic state is 1-A.
 Alpha  occ. eigenvalues --  -11.08446 -11.03669 -11.03108 -10.92963 -10.92232
 Alpha  occ. eigenvalues --   -1.55951  -1.51017  -1.42395  -1.31701  -1.21067
 Alpha  occ. eigenvalues --   -1.18031  -1.14812  -1.05754  -1.03973  -1.00062
 Alpha virt. eigenvalues --   -0.85239  -0.84975  -0.82134  -0.79797  -0.61204
 Alpha virt. eigenvalues --   -0.60551  -0.53081  -0.50901  -0.47709  -0.46938
 Alpha virt. eigenvalues --   -0.46278  -0.42443  -0.40302  -0.39588  -0.38749

 Mulliken charges:
               1
     1  C    0.563039
     2  C    0.268174
     3  C   -0.104182
     4  H    0.365178
     5  H    0.365451
     6  C    0.444523
     7  C    0.599679
     8  H    0.498138
 Sum of Mulliken charges =   3.00000

 Dipole moment (field-independent basis, Debye):
    X=              1.3874    Y=              0.5270    Z=              0.0038  Tot=              1.4841
 Quadrupole moment (field-independent basis, Debye-Ang):
   XX=             51.0707   YY=            -17.4862   ZZ=            -19.2312
   XY=             -3.9556   XZ=              0.0092   YZ=             -0.0006

  Exact polarizability: 101.268   0.008  29.841   0.005  -0.000  26.246
 Approx polarizability: 255.928  -2.971  50.890   0.014  -0.000  40.175

                      1                      2                      3
                      A                      A                      A
 Frequencies --    155.9334               186.0921               297.2873
 Red. masses --      4.7473                 2.9049                 5.9279
 Frc consts  --      0.0680                 0.0593                 0.3087
 IR Inten    --     17.8855                42.6561                22.6439

                      4                      5                      6
                      A                      A                      A
 Frequencies --    408.2948               541.7079               611.9851
 Red. masses --      2.6072                 5.4184                 2.1359
 Frc consts  --      0.2561                 0.9368                 0.4713
 IR Inten    --      0.1651                 0.1816                12.2063

                      7                      8                      9
                      A                      A                      A
 Frequencies --    722.1821               831.0841               854.4852
 Red. masses --      5.0838                 2.0006                 1.3722
 Frc consts  --      1.5622                 0.8141                 0.5903
 IR Inten    --     33.7756               162.7487                12.9564

                     10                     11                     12
                      A                      A                      A
 Frequencies --    866.2939              1006.5944              1109.6391
 Red. masses --      1.3760                 1.2001                 1.2494
 Frc consts  --      0.6084                 0.7164                 0.9064
 IR Inten    --     11.4918                 6.4691               231.1141

                     13                     14                     15
                      A                      A                      A
 Frequencies --   1232.5440              1500.9048              2161.5350
 Red. masses --      1.9446                 7.3627                 6.1814
 Frc consts  --      1.7406                 9.7722                17.0162
 IR Inten    --    380.6260                 9.5876              2329.9064

                     16                     17                     18
                      A                      A                      A
 Frequencies --   2462.8380              2479.2465              2930.1243
 Red. masses --      1.0888                 1.0675                 1.2053
 Frc consts  --      3.8910                 3.8659                 6.0970
 IR Inten    --    403.1596               481.1682               334.7273

 - Thermochemistry -
 -------------------
 Temperature   298.150 Kelvin.  Pressure   1.00000 Atm.
 Atom     1 has atomic number  6 and mass  12.00000

 Molecular mass:    63.02348 amu.
 Principal axes and moments of inertia in atomic units:
                           1         2         3
     Eigenvalues --    40.77461 756.78688 785.55481
           X            0.99976  -0.02184   0.00002
           Y            0.02184   0.99976   0.00000
           Z           -0.00002  -0.00000   1.00000
 This molecule is an asymmetric top.
 Rotational symmetry number  1.
 Rotational temperatures (Kelvin)      2.12421     0.11445     0.11026
 Rotational constants (GHZ):          44.26140     2.38474     2.29741
 Zero-point vibrational energy     121772.5 (Joules/Mol)
                                   29.10433 (Kcal/Mol)
 Warning -- explicit consideration of   6 degrees of freedom as
           vibrations may cause significant error
 Vibrational temperatures:    224.35   267.74   427.73   587.44   779.40
          (Kelvin)            880.51  1039.06  1195.74  1229.41  1246.40
                             1448.26  1596.52  1773.35  2159.46  3109.96
                             3543.47  3567.08  4215.79

 Zero-point correction=                           0.046381 (Hartree/Particle)
 Thermal correction to Energy=                    0.051882
 Thermal correction to Enthalpy=                  0.052826
 Thermal correction to Gibbs Free Energy=         0.018497
 Sum of electronic and zero-point Energies=           -190.395820
 Sum of electronic and thermal Energies=              -190.390319
 Sum of electronic and thermal Enthalpies=            -190.389374
 Sum of electronic and thermal Free Energies=         -190.423703

                     E (Thermal)             CV                S
                      KCal/Mol        Cal/Mol-Kelvin    Cal/Mol-Kelvin
 Total                   32.556             18.424             72.252
 Electronic               0.000              0.000              0.000
 Translational            0.889              2.981             38.342
 Rotational               0.889              2.981             24.698
 Vibrational             30.779             12.463              9.212
 Vibration     1          0.620              1.896              2.599
 Vibration     2          0.632              1.859              2.266
 Vibration     3          0.691              1.679              1.432
 Vibration     4          0.773              1.452              0.933
 Vibration     5          0.897              1.158              0.562
 Vibration     6          0.971              1.006              0.429

 Normal termination of Gaussian 09 at Sun Jun 19 13:30:29 2016.
