 Gaussian 09, Revision E.01,
 Gaussian 09:  EM64L-G09RevE.01 30-Nov-2015

 ---------------------------------------------
 #p b3lyp/6-311++G(3df,2p) freq symmetry=Loose
 ---------------------------------------------

 ---------
 b3lyp opt
 ---------
 Symbolic Z-matrix:
 Charge =  3 Multiplicity = 3

                         Standard orientation:
 ---------------------------------------------------------------------
 Center     Atomic      Atomic             Coordinates (Angstroms)
 Number     Number       Type             X           Y           Z
 ---------------------------------------------------------------------
      1          6           0       -0.000000    0.868324    0.416164
      2          6           0       -0.000000    0.000000    1.495082
      3          1           0        0.000000    0.000000    2.627642
      4          6           0       -0.000000   -0.868324    0.416164
      5          6           0       -0.111469    0.708218   -1.072504
      6          1           0       -0.340781    1.470490   -1.861029
      7          6           0        0.111469   -0.708218   -1.072504
      8          1           0        0.340781   -1.470490   -1.861029
 ---------------------------------------------------------------------

 SCF Done:  E(UB3LYP) =  -190.395991769     A.U. after   14 cycles

 The electronic state is 3-B.
 Alpha  occ. eigenvalues --  -11.12876 -11.12868 -11.05044 -11.05002 -11.04745
 Alpha  occ. eigenvalues --   -1.76312  -1.58535  -1.45318  -1.32252  -1.30978
 Alpha  occ. eigenvalues --   -1.24741  -1.22119  -1.20445  -1.17595  -1.07085
 Alpha  occ. eigenvalues --   -1.04817
 Alpha virt. eigenvalues --   -0.93232  -0.84263  -0.75423  -0.75256  -0.66598
 Alpha virt. eigenvalues --   -0.57062  -0.52805  -0.50850  -0.50429  -0.49017
 Alpha virt. eigenvalues --   -0.44927  -0.44548  -0.42559  -0.40988  -0.40080

  Beta  occ. eigenvalues --  -11.11941 -11.11939 -11.04348 -11.04331 -11.04295
  Beta  occ. eigenvalues --   -1.74268  -1.55994  -1.42915  -1.30302  -1.28345
  Beta  occ. eigenvalues --   -1.22488  -1.20346  -1.17456  -1.16038
  Beta virt. eigenvalues --   -0.94354  -0.93738  -0.90907  -0.77562  -0.71495
  Beta virt. eigenvalues --   -0.70244  -0.64688  -0.56415  -0.51922  -0.49697
  Beta virt. eigenvalues --   -0.49085  -0.48045  -0.44354  -0.44003  -0.41933

 Mulliken charges and spin densities:
               1          2
     1  C    0.531748   0.448074
     2  C    0.329133   0.218037
     3  H    0.435361   0.031897
     4  C    0.531748   0.448074
     5  C    0.186388   0.415306
     6  H    0.399617   0.011654
     7  C    0.186388   0.415306
     8  H    0.399617   0.011654
 Sum of Mulliken charges =   3.00000   2.00000

 Dipole moment (field-independent basis, Debye):
    X=             -0.0000    Y=             -0.0000    Z=             -0.0803  Tot=              0.0803
 Quadrupole moment (field-independent basis, Debye-Ang):
   XX=            -21.2695   YY=             -6.9772   ZZ=             10.4138
   XY=             -2.0040   XZ=             -0.0000   YZ=              0.0000

  Exact polarizability:  20.758  -1.674  39.944   0.000  -0.000  49.395
 Approx polarizability:  32.443  -2.907  96.539   0.000  -0.000  86.221

                      1                      2                      3
                      A                      B                      B
 Frequencies --    175.7407               292.6739               434.5424
 Red. masses --      2.8322                 4.3962                 4.1751
 Frc consts  --      0.0515                 0.2219                 0.4645
 IR Inten    --      0.2031                 8.3759                 3.6501

                      4                      5                      6
                      A                      B                      B
 Frequencies --    568.0886               575.8935               723.8443
 Red. masses --      6.7472                 4.8064                 1.3701
 Frc consts  --      1.2829                 0.9392                 0.4230
 IR Inten    --      0.2544                 8.7566                89.4409

                      7                      8                      9
                      B                      A                      B
 Frequencies --    784.0030               855.2820               865.9212
 Red. masses --      1.4892                 1.7267                 1.6507
 Frc consts  --      0.5393                 0.7442                 0.7292
 IR Inten    --     11.9537                 0.0695                 0.4138

                     10                     11                     12
                      A                      A                      B
 Frequencies --    900.3532              1018.6016              1036.8736
 Red. masses --      8.5725                 1.1895                 2.0701
 Frc consts  --      4.0943                 0.7271                 1.3113
 IR Inten    --      0.1993                 2.5293               113.9954

                     13                     14                     15
                      B                      A                      A
 Frequencies --   1156.1346              1236.3740              1391.6083
 Red. masses --      1.2575                 4.2534                 6.3023
 Frc consts  --      0.9903                 3.8307                 7.1908
 IR Inten    --     50.5024               114.7332               154.5611

                     16                     17                     18
                      A                      B                      A
 Frequencies --   2716.1300              2811.1026              2857.3296
 Red. masses --      1.1183                 1.0935                 1.1148
 Frc consts  --      4.8606                 5.0912                 5.3625
 IR Inten    --    989.0310               534.2025               359.0751

 - Thermochemistry -
 -------------------
 Temperature   298.150 Kelvin.  Pressure   1.00000 Atm.
 Atom     1 has atomic number  6 and mass  12.00000

 Molecular mass:    63.02348 amu.
 Principal axes and moments of inertia in atomic units:
                           1         2         3
     Eigenvalues --   125.07378 259.94748 382.98129
           X            0.00000  -0.08461   0.99641
           Y            0.00000   0.99641   0.08461
           Z            1.00000   0.00000   0.00000
 This molecule is an asymmetric top.
 Rotational symmetry number  2.
 Rotational temperatures (Kelvin)      0.69250     0.33320     0.22616
 Rotational constants (GHZ):          14.42941     6.94271     4.71235
 Zero-point vibrational energy     122022.1 (Joules/Mol)
                                   29.16397 (Kcal/Mol)
 Warning -- explicit consideration of   5 degrees of freedom as
           vibrations may cause significant error
 Vibrational temperatures:    252.85   421.09   625.21   817.35   828.58
          (Kelvin)           1041.45  1128.00  1230.56  1245.87  1295.41
                             1465.54  1491.83  1663.42  1778.86  2002.21
                             3907.90  4044.54  4111.05

 Zero-point correction=                           0.046476 (Hartree/Particle)
 Thermal correction to Energy=                    0.051441
 Thermal correction to Enthalpy=                  0.052385
 Thermal correction to Gibbs Free Energy=         0.019080
 Sum of electronic and zero-point Energies=           -190.349516
 Sum of electronic and thermal Energies=              -190.344551
 Sum of electronic and thermal Enthalpies=            -190.343607
 Sum of electronic and thermal Free Energies=         -190.376912

                     E (Thermal)             CV                S
                      KCal/Mol        Cal/Mol-Kelvin    Cal/Mol-Kelvin
 Total                   32.280             17.397             70.097
 Electronic               0.000              0.000              2.183
 Translational            0.889              2.981             38.342
 Rotational               0.889              2.981             22.658
 Vibrational             30.502             11.436              6.914
 Vibration     1          0.628              1.872              2.373
 Vibration     2          0.688              1.687              1.458
 Vibration     3          0.795              1.395              0.844
 Vibration     4          0.924              1.100              0.508
 Vibration     5          0.932              1.083              0.493

 Normal termination of Gaussian 09 at Tue Jul 19 19:12:06 2016.
