 Gaussian 09, Revision E.01,
 Gaussian 09:  EM64L-G09RevE.01 30-Nov-2015

 ---------------------------------------------
 #p b3lyp/6-311++G(3df,2p) freq symmetry=Loose
 ---------------------------------------------

 ---------
 b3lyp opt
 ---------
 Symbolic Z-matrix:
 Charge =  3 Multiplicity = 3

                         Standard orientation:
 ---------------------------------------------------------------------
 Center     Atomic      Atomic             Coordinates (Angstroms)
 Number     Number       Type             X           Y           Z
 ---------------------------------------------------------------------
      1          6           0       -2.092715   -1.054722   -0.000000
      2          1           0       -3.138382   -0.610614   -0.000000
      3          1           0       -2.080359   -2.186738   -0.000000
      4          6           0       -1.017106   -0.305348   -0.000000
      5          6           0        0.000000    0.581462   -0.000000
      6          1           0       -0.375602    1.663412   -0.000000
      7          6           0        1.380125    0.469850    0.000000
      8          6           0        2.662087    0.497747    0.000000
 ---------------------------------------------------------------------

 SCF Done:  E(UB3LYP) =  -190.436592344     A.U. after   17 cycles

 The electronic state is 3-A'.
 Alpha  occ. eigenvalues --  -11.06781 -11.00178 -10.99768 -10.99223 -10.93937
 Alpha  occ. eigenvalues --   -1.57508  -1.52310  -1.45379  -1.32998  -1.20402
 Alpha  occ. eigenvalues --   -1.17586  -1.11606  -1.10553  -1.08473  -1.05352
 Alpha  occ. eigenvalues --   -1.01388
 Alpha virt. eigenvalues --   -0.84940  -0.80810  -0.73561  -0.69407  -0.58116
 Alpha virt. eigenvalues --   -0.54263  -0.47643  -0.47201  -0.45108  -0.43111
 Alpha virt. eigenvalues --   -0.41396  -0.40530  -0.39622  -0.38595  -0.36004

  Beta  occ. eigenvalues --  -11.03191 -10.99773 -10.99306 -10.99204 -10.94071
  Beta  occ. eigenvalues --   -1.56211  -1.49206  -1.43594  -1.31921  -1.19441
  Beta  occ. eigenvalues --   -1.17383  -1.10639  -1.08062  -0.99743
  Beta virt. eigenvalues --   -0.89403  -0.85534  -0.83454  -0.80510  -0.67342
  Beta virt. eigenvalues --   -0.63826  -0.56785  -0.53620  -0.47133  -0.46614
  Beta virt. eigenvalues --   -0.44432  -0.43089  -0.41139  -0.40545  -0.39106

 Mulliken charges and spin densities:
               1          2
     1  C   -0.205006  -0.090480
     2  H    0.393033   0.003034
     3  H    0.379726   0.002368
     4  C    0.802262  -0.082536
     5  C    0.039540   0.117558
     6  H    0.322750   0.025317
     7  C    0.743807   0.443007
     8  C    0.523888   1.581732
 Sum of Mulliken charges =   3.00000   2.00000

 Dipole moment (field-independent basis, Debye):
    X=             -0.6819    Y=             -0.4439    Z=             -0.0000  Tot=              0.8137
 Quadrupole moment (field-independent basis, Debye-Ang):
   XX=             42.3706   YY=             -4.6439   ZZ=            -23.0149
   XY=             19.2159   XZ=              0.0000   YZ=              0.0000

  Exact polarizability:  93.132  22.458  39.127  -0.000   0.000  22.276
 Approx polarizability: 191.564  49.910  67.589   0.000   0.000  30.442

                      1                      2                      3
                     A'                     A"                     A"
 Frequencies --    160.8172               238.0896               301.0376
 Red. masses --      4.2943                 2.3048                 6.8689
 Frc consts  --      0.0654                 0.0770                 0.3668
 IR Inten    --      9.1833                41.4141                 2.7281

                      4                      5                      6
                     A'                     A'                     A"
 Frequencies --    350.2786               498.1833               553.1543
 Red. masses --      2.4295                 3.2405                 1.5917
 Frc consts  --      0.1756                 0.4738                 0.2870
 IR Inten    --      8.1765                10.7290                 6.8007

                      7                      8                      9
                     A'                     A"                     A'
 Frequencies --    718.9559               820.9103               873.5766
 Red. masses --      2.9824                 1.4463                 4.3650
 Frc consts  --      0.9083                 0.5743                 1.9626
 IR Inten    --      3.0050                16.4655                 9.0760

                     10                     11                     12
                     A"                     A'                     A'
 Frequencies --    960.4629              1030.3575              1160.3182
 Red. masses --      1.3743                 1.3705                 1.1161
 Frc consts  --      0.7469                 0.8573                 0.8853
 IR Inten    --     42.2060                 2.2528               196.0587

                     13                     14                     15
                     A'                     A'                     A'
 Frequencies --   1295.6233              1666.4313              1855.6673
 Red. masses --      4.4666                 8.5401                11.9116
 Frc consts  --      4.4176                13.9730                24.1669
 IR Inten    --     60.8194               401.1215               388.1591

                     16                     17                     18
                     A'                     A'                     A'
 Frequencies --   2571.6895              2672.7341              2712.3741
 Red. masses --      1.0714                 1.0682                 1.0935
 Frc consts  --      4.1747                 4.4959                 4.7398
 IR Inten    --    608.1795               939.7102               510.8043

 - Thermochemistry -
 -------------------
 Temperature   298.150 Kelvin.  Pressure   1.00000 Atm.
 Atom     1 has atomic number  6 and mass  12.00000

 Molecular mass:    63.02348 amu.
 Principal axes and moments of inertia in atomic units:
                           1         2         3
     Eigenvalues --    42.00120 739.76741 781.76861
           X            0.94650  -0.32272   0.00000
           Y            0.32272   0.94650   0.00000
           Z           -0.00000   0.00000   1.00000
 This molecule is an asymmetric top.
 Rotational symmetry number  1.
 Rotational temperatures (Kelvin)      2.06217     0.11708     0.11079
 Rotational constants (GHZ):          42.96880     2.43961     2.30854
 Zero-point vibrational energy     122262.3 (Joules/Mol)
                                   29.22139 (Kcal/Mol)
 Warning -- explicit consideration of   6 degrees of freedom as
           vibrations may cause significant error
 Vibrational temperatures:    231.38   342.56   433.13   503.97   716.77
          (Kelvin)            795.86  1034.42  1181.11  1256.88  1381.89
                             1482.45  1669.44  1864.11  2397.62  2669.89
                             3700.08  3845.46  3902.50

 Zero-point correction=                           0.046567 (Hartree/Particle)
 Thermal correction to Energy=                    0.052069
 Thermal correction to Enthalpy=                  0.053013
 Thermal correction to Gibbs Free Energy=         0.017727
 Sum of electronic and zero-point Energies=           -190.390025
 Sum of electronic and thermal Energies=              -190.384524
 Sum of electronic and thermal Enthalpies=            -190.383579
 Sum of electronic and thermal Free Energies=         -190.418866

                     E (Thermal)             CV                S
                      KCal/Mol        Cal/Mol-Kelvin    Cal/Mol-Kelvin
 Total                   32.674             18.430             74.266
 Electronic               0.000              0.000              2.183
 Translational            0.889              2.981             38.342
 Rotational               0.889              2.981             24.700
 Vibrational             30.896             12.468              9.042
 Vibration     1          0.622              1.890              2.540
 Vibration     2          0.656              1.782              1.817
 Vibration     3          0.693              1.672              1.411
 Vibration     4          0.727              1.575              1.165
 Vibration     5          0.854              1.254              0.663
 Vibration     6          0.909              1.133              0.538

 Optimization completed.
    -- Stationary point found.
 Normal termination of Gaussian 09 at Sun Jun 19 14:10:29 2016.
