 Gaussian 09, Revision E.01,
 Gaussian 09:  EM64L-G09RevE.01 30-Nov-2015

 ---------------------------------------------
 #p b3lyp/6-311++G(3df,2p) freq symmetry=Loose
 ---------------------------------------------

 ---------
 b3lyp opt
 ---------
 Symbolic Z-matrix:
 Charge =  3 Multiplicity = 1

                         Standard orientation:
 ---------------------------------------------------------------------
 Center     Atomic      Atomic             Coordinates (Angstroms)
 Number     Number       Type             X           Y           Z
 ---------------------------------------------------------------------
      1          6           0        0.614914   -0.135207    0.092990
      2          6           0        1.892983   -0.330330   -0.053474
      3          1           0        2.653938   -0.138832    0.775224
      4          1           0        2.393357   -0.667949   -1.019273
      5          6           0       -0.814428    0.025858    0.277426
      6          1           0       -1.119950    0.153554    1.397434
      7          6           0       -1.920341   -0.884749   -0.252997
      8          6           0       -0.427685    1.433298   -0.256177
 ---------------------------------------------------------------------

 SCF Done:  E(RB3LYP) =  -190.275303498     A.U. after   15 cycles

 The electronic state is 1-A.
 Alpha  occ. eigenvalues --  -11.13199 -11.08845 -11.02482 -10.98610 -10.95248
 Alpha  occ. eigenvalues --   -1.62005  -1.49563  -1.41651  -1.27898  -1.22824
 Alpha  occ. eigenvalues --   -1.19072  -1.12776  -1.07293  -1.03464  -1.02615
 Alpha virt. eigenvalues --   -0.87212  -0.86784  -0.85090  -0.81909  -0.80663
 Alpha virt. eigenvalues --   -0.64662  -0.56559  -0.52977  -0.52904  -0.47848
 Alpha virt. eigenvalues --   -0.46500  -0.44443  -0.43598  -0.41023  -0.40268

 Mulliken charges:
               1
     1  C    0.406664
     2  C    0.139387
     3  H    0.384066
     4  H    0.374529
     5  C    0.163585
     6  H    0.389294
     7  C    0.631976
     8  C    0.510498
 Sum of Mulliken charges =   3.00000

 Dipole moment (field-independent basis, Debye):
    X=              0.7363    Y=             -1.0681    Z=              0.7765  Tot=              1.5119
 Quadrupole moment (field-independent basis, Debye-Ang):
   XX=             19.7793   YY=            -14.1367   ZZ=            -14.9111
   XY=             -1.5381   XZ=             -1.7630   YZ=              1.4667

  Exact polarizability:  76.163   0.707  44.259  -0.141   0.098  31.016
 Approx polarizability: 159.768   6.795 107.039   1.611  -1.237  52.974

                      1                      2                      3
                      A                      A                      A
 Frequencies --    167.8031               230.8156               268.3841
 Red. masses --      4.9031                 3.7260                 3.0561
 Frc consts  --      0.0813                 0.1170                 0.1297
 IR Inten    --      4.0466                10.4074                17.7703

                      4                      5                      6
                      A                      A                      A
 Frequencies --    290.3482               387.4132               496.8478
 Red. masses --      9.6310                 2.0720                 1.3325
 Frc consts  --      0.4784                 0.1832                 0.1938
 IR Inten    --    109.7264                22.4410                27.1719

                      7                      8                      9
                      A                      A                      A
 Frequencies --    620.3836               698.5386               732.9011
 Red. masses --      1.6285                 3.6793                 4.5138
 Frc consts  --      0.3693                 1.0578                 1.4285
 IR Inten    --     23.4466               105.1029               112.6963

                     10                     11                     12
                      A                      A                      A
 Frequencies --    782.6748               896.7033               939.6663
 Red. masses --      1.6145                 2.0597                 1.3574
 Frc consts  --      0.5827                 0.9758                 0.7062
 IR Inten    --     66.2889               189.3203                24.8688

                     13                     14                     15
                      A                      A                      A
 Frequencies --   1077.0541              1120.1720              1602.6934
 Red. masses --      2.1846                 1.2602                 9.1113
 Frc consts  --      1.4931                 0.9317                13.7889
 IR Inten    --    590.9392                98.1977                76.2270

                     16                     17                     18
                      A                      A                      A
 Frequencies --   2384.5242              2618.4617              2638.5679
 Red. masses --      1.0763                 1.0727                 1.0847
 Frc consts  --      3.6057                 4.3332                 4.4492
 IR Inten    --    671.2713               887.3770               661.0526

 - Thermochemistry -
 -------------------
 Temperature   298.150 Kelvin.  Pressure   1.00000 Atm.
 Atom     1 has atomic number  6 and mass  12.00000

 Molecular mass:    63.02348 amu.
 Principal axes and moments of inertia in atomic units:
                           1         2         3
     Eigenvalues --   150.68466 436.00275 542.66533
           X            0.99950  -0.02643  -0.01759
           Y            0.02690   0.99928   0.02691
           Z            0.01686  -0.02737   0.99948
 This molecule is an asymmetric top.
 Rotational symmetry number  1.
 Rotational temperatures (Kelvin)      0.57480     0.19865     0.15961
 Rotational constants (GHZ):          11.97694     4.13929     3.32570
 Zero-point vibrational energy     107388.5 (Joules/Mol)
                                   25.66646 (Kcal/Mol)
 Warning -- explicit consideration of   7 degrees of freedom as
           vibrations may cause significant error
 Vibrational temperatures:    241.43   332.09   386.14   417.75   557.40
          (Kelvin)            714.85   892.59  1005.04  1054.48  1126.09
                             1290.15  1351.97  1549.64  1611.68  2305.92
                             3430.79  3767.38  3796.31

 Zero-point correction=                           0.040902 (Hartree/Particle)
 Thermal correction to Energy=                    0.046904
 Thermal correction to Enthalpy=                  0.047848
 Thermal correction to Gibbs Free Energy=         0.012632
 Sum of electronic and zero-point Energies=           -190.234401
 Sum of electronic and thermal Energies=              -190.228399
 Sum of electronic and thermal Enthalpies=            -190.227455
 Sum of electronic and thermal Free Energies=         -190.262672

                     E (Thermal)             CV                S
                      KCal/Mol        Cal/Mol-Kelvin    Cal/Mol-Kelvin
 Total                   29.433             20.656             74.120
 Electronic               0.000              0.000              0.000
 Translational            0.889              2.981             38.342
 Rotational               0.889              2.981             25.081
 Vibrational             27.655             14.694             10.697
 Vibration     1          0.625              1.882              2.460
 Vibration     2          0.653              1.794              1.873
 Vibration     3          0.673              1.731              1.607
 Vibration     4          0.686              1.692              1.472
 Vibration     5          0.756              1.497              1.010
 Vibration     6          0.852              1.257              0.666
 Vibration     7          0.980              0.989              0.416

 Optimization completed.
    -- Stationary point found.
 Normal termination of Gaussian 09 at Sun Jun 19 13:41:32 2016.
