 Gaussian 09, Revision E.01,
 Gaussian 09:  EM64L-G09RevE.01 30-Nov-2015

 ---------------------------------------------
 #p b3lyp/6-311++G(3df,2p) freq symmetry=Loose
 ---------------------------------------------

 ---------
 b3lyp opt
 ---------
 Symbolic Z-matrix:
 Charge =  3 Multiplicity = 3

                         Standard orientation:
 ---------------------------------------------------------------------
 Center     Atomic      Atomic             Coordinates (Angstroms)
 Number     Number       Type             X           Y           Z
 ---------------------------------------------------------------------
      1          6           0       -0.105605    0.477248    0.000084
      2          1           0       -0.197666    1.594038    0.000015
      3          6           0        1.196375    0.051171   -0.000008
      4          6           0       -1.311005   -0.316729    0.000131
      5          6           0       -2.571450    0.012479   -0.000124
      6          1           0       -1.379590   -1.462618    0.000389
      7          6           0        2.461565   -0.180378   -0.000111
      8          1           0        3.557976   -0.394167   -0.000236
 ---------------------------------------------------------------------

 SCF Done:  E(UB3LYP) =  -190.419564020     A.U. after   17 cycles

 The electronic state is 3-A.
 Alpha  occ. eigenvalues --  -11.08704 -11.01181 -10.99163 -10.97665 -10.93921
 Alpha  occ. eigenvalues --   -1.56702  -1.52742  -1.44392  -1.28216  -1.22059
 Alpha  occ. eigenvalues --   -1.19987  -1.14217  -1.09650  -1.06979  -1.03417
 Alpha  occ. eigenvalues --   -1.01589
 Alpha virt. eigenvalues --   -0.85331  -0.82931  -0.71903  -0.69315  -0.59548
 Alpha virt. eigenvalues --   -0.53437  -0.51540  -0.48767  -0.44787  -0.43370
 Alpha virt. eigenvalues --   -0.41592  -0.40595  -0.39727  -0.37857  -0.37647

  Beta  occ. eigenvalues --  -11.06207 -11.00351 -10.99254 -10.96914 -10.93702
  Beta  occ. eigenvalues --   -1.55257  -1.49550  -1.42297  -1.26624  -1.20910
  Beta  occ. eigenvalues --   -1.19219  -1.11717  -1.06618  -0.99655
  Beta virt. eigenvalues --   -0.89671  -0.87790  -0.84027  -0.78839  -0.67196
  Beta virt. eigenvalues --   -0.65520  -0.58885  -0.52133  -0.50957  -0.48154
  Beta virt. eigenvalues --   -0.44204  -0.42937  -0.40847  -0.40609  -0.39425

 Mulliken charges and spin densities:
               1          2
     1  C    0.339960  -0.017285
     2  H    0.302900   0.029100
     3  C    0.486335   0.461029
     4  C    0.314512   0.046437
     5  C    0.378102   1.079306
     6  H    0.297530  -0.004356
     7  C    0.388221   0.420527
     8  H    0.492440  -0.014758
 Sum of Mulliken charges =   3.00000   2.00000

 Dipole moment (field-independent basis, Debye):
    X=              0.7192    Y=             -0.5411    Z=             -0.0003  Tot=              0.9000
 Quadrupole moment (field-independent basis, Debye-Ang):
   XX=             51.3294   YY=            -13.0757   ZZ=            -23.2524
   XY=             -1.0447   XZ=             -0.0014   YZ=             -0.0010

  Exact polarizability:  96.256  -3.313  30.226  -0.001  -0.000  23.475
 Approx polarizability: 212.142 -17.306  47.988   0.000  -0.002  31.683

                      1                      2                      3
                      A                      A                      A
 Frequencies --    144.8564               183.0112               318.2708
 Red. masses --      4.0277                 4.4102                 3.7128
 Frc consts  --      0.0498                 0.0870                 0.2216
 IR Inten    --      9.1829                13.3731                18.0319

                      4                      5                      6
                      A                      A                      A
 Frequencies --    326.9596               500.7309               607.2703
 Red. masses --      5.9867                 4.4174                 1.3804
 Frc consts  --      0.3771                 0.6526                 0.2999
 IR Inten    --      3.8523                 8.1376                51.1271

                      7                      8                      9
                      A                      A                      A
 Frequencies --    721.5613               819.4222               837.3946
 Red. masses --      1.3854                 1.3321                 3.5617
 Frc consts  --      0.4250                 0.5270                 1.4715
 IR Inten    --     19.1524                18.2986                 8.8179

                     10                     11                     12
                      A                      A                      A
 Frequencies --    866.7305               989.4891              1141.4577
 Red. masses --      1.7825                 1.3985                 1.7707
 Frc consts  --      0.7889                 0.8067                 1.3593
 IR Inten    --      3.7291                 9.8151                21.3179

                     13                     14                     15
                      A                      A                      A
 Frequencies --   1336.8373              1604.4843              1830.3721
 Red. masses --      2.0923                 8.7926                 6.1255
 Frc consts  --      2.2030                13.3364                12.0913
 IR Inten    --     19.7451               509.7664               884.3604

                     16                     17                     18
                      A                      A                      A
 Frequencies --   2583.6357              2803.1781              2939.7407
 Red. masses --      1.0756                 1.0827                 1.1697
 Frc consts  --      4.2302                 5.0125                 5.9559
 IR Inten    --    407.7107               360.4915               506.2593

 - Thermochemistry -
 -------------------
 Temperature   298.150 Kelvin.  Pressure   1.00000 Atm.
 Atom     1 has atomic number  6 and mass  12.00000

 Molecular mass:    63.02348 amu.
 Principal axes and moments of inertia in atomic units:
                           1         2         3
     Eigenvalues --    32.97035 730.81568 763.78602
           X            1.00000   0.00148   0.00002
           Y           -0.00148   1.00000   0.00003
           Z           -0.00002  -0.00003   1.00000
 This molecule is an asymmetric top.
 Rotational symmetry number  1.
 Rotational temperatures (Kelvin)      2.62702     0.11852     0.11340
 Rotational constants (GHZ):          54.73831     2.46949     2.36289
 Zero-point vibrational energy     122948.6 (Joules/Mol)
                                   29.38542 (Kcal/Mol)
 Warning -- explicit consideration of   6 degrees of freedom as
           vibrations may cause significant error
 Vibrational temperatures:    208.42   263.31   457.92   470.42   720.44
          (Kelvin)            873.73  1038.16  1178.96  1204.82  1247.03
                             1423.65  1642.30  1923.41  2308.49  2633.49
                             3717.27  4033.14  4229.63

 Zero-point correction=                           0.046829 (Hartree/Particle)
 Thermal correction to Energy=                    0.052447
 Thermal correction to Enthalpy=                  0.053391
 Thermal correction to Gibbs Free Energy=         0.017913
 Sum of electronic and zero-point Energies=           -190.372735
 Sum of electronic and thermal Energies=              -190.367117
 Sum of electronic and thermal Enthalpies=            -190.366173
 Sum of electronic and thermal Free Energies=         -190.401651

                     E (Thermal)             CV                S
                      KCal/Mol        Cal/Mol-Kelvin    Cal/Mol-Kelvin
 Total                   32.911             18.646             74.669
 Electronic               0.000              0.000              2.183
 Translational            0.889              2.981             38.342
 Rotational               0.889              2.981             24.424
 Vibrational             31.133             12.685              9.720
 Vibration     1          0.616              1.908              2.739
 Vibration     2          0.631              1.863              2.297
 Vibration     3          0.705              1.639              1.319
 Vibration     4          0.711              1.622              1.275
 Vibration     5          0.856              1.248              0.656
 Vibration     6          0.966              1.016              0.437

 Optimization completed.
    -- Stationary point found.
 Normal termination of Gaussian 09 at Sun Jun 19 14:58:13 2016.
