 Gaussian 09, Revision E.01,
 Gaussian 09:  EM64L-G09RevE.01 30-Nov-2015

 ------------------------------------------------------
 #p b3lyp/6-311++G(3df,2p) freq IOp(2/17=3) IOp(2/18=3)
 ------------------------------------------------------

 ---------
 b3lyp opt
 ---------
 Symbolic Z-matrix:
 Charge =  1 Multiplicity = 3

                         Standard orientation:
 ---------------------------------------------------------------------
 Center     Atomic      Atomic             Coordinates (Angstroms)
 Number     Number       Type             X           Y           Z
 ---------------------------------------------------------------------
      1          6           0        0.000000    1.134922    0.000000
      2          6           0        0.722453   -0.790398    0.000000
      3          1           0        0.890919   -1.360669   -0.912077
      4          1           0        0.890919   -1.360669    0.912077
      5          6           0        1.278600    0.617149    0.000000
      6          1           0        2.278750    1.027068    0.000000
      7          6           0       -0.731336   -0.056564    0.000000
      8          6           0       -1.946492   -0.622726    0.000000
 ---------------------------------------------------------------------

 SCF Done:  E(UB3LYP) =  -191.754475502     A.U. after   19 cycles

 The electronic state is 3-A".
 Alpha  occ. eigenvalues --  -10.51930 -10.50929 -10.50319 -10.47650 -10.47199
 Alpha  occ. eigenvalues --   -1.17814  -1.02264  -0.92708  -0.86981  -0.72303
 Alpha  occ. eigenvalues --   -0.72196  -0.71133  -0.65972  -0.59309  -0.54867
 Alpha  occ. eigenvalues --   -0.52905  -0.51892
 Alpha virt. eigenvalues --   -0.36407  -0.32430  -0.19435  -0.16178  -0.15041
 Alpha virt. eigenvalues --   -0.12114  -0.12072  -0.11132  -0.08644  -0.08121
 Alpha virt. eigenvalues --   -0.06901  -0.06565  -0.05921  -0.04585  -0.03591

  Beta  occ. eigenvalues --  -10.51215 -10.49496 -10.49267 -10.47635 -10.46917
  Beta  occ. eigenvalues --   -1.15910  -0.99461  -0.91252  -0.85198  -0.70877
  Beta  occ. eigenvalues --   -0.70587  -0.67991  -0.65071  -0.56227  -0.53510
  Beta virt. eigenvalues --   -0.42689  -0.37412  -0.33158  -0.27408  -0.16246
  Beta virt. eigenvalues --   -0.16009  -0.14552  -0.11603  -0.11584  -0.10782
  Beta virt. eigenvalues --   -0.08167  -0.07890  -0.06621  -0.06007  -0.05331

 Mulliken charges and spin densities:
               1          2
     1  C    0.364757   0.933217
     2  C   -0.387223  -0.042316
     3  H    0.229427   0.015849
     4  H    0.229427   0.015849
     5  C    0.042607   0.438364
     6  H    0.336639  -0.012091
     7  C    0.502443   0.217594
     8  C   -0.318077   0.433534
 Sum of Mulliken charges =   1.00000   2.00000

 Dipole moment (field-independent basis, Debye):
    X=              2.9157    Y=              0.0488    Z=             -0.0000  Tot=              2.9161
 Quadrupole moment (field-independent basis, Debye-Ang):
   XX=            -19.0585   YY=            -22.1786   ZZ=            -25.6783
   XY=              0.2234   XZ=             -0.0000   YZ=              0.0000

  Exact polarizability:  72.134  10.362  49.208  -0.000  -0.000  33.524
 Approx polarizability: 141.349  26.610  85.362   0.000   0.000  48.746

                      1                      2                      3
                     A"                     A'                     A"
 Frequencies --    146.1824               190.6542               388.4489
 Red. masses --      3.7419                 7.1007                 3.6001
 Frc consts  --      0.0471                 0.1521                 0.3201
 IR Inten    --      0.0530                 3.9002                10.5734

                      4                      5                      6
                     A'                     A'                     A"
 Frequencies --    552.2270               716.2858               763.9739
 Red. masses --     10.1346                 6.3862                 1.1741
 Frc consts  --      1.8209                 1.9305                 0.4037
 IR Inten    --     26.8909                 1.0000                26.0642

                      7                      8                      9
                     A'                     A"                     A'
 Frequencies --    906.8305               951.6381              1003.5006
 Red. masses --      1.9797                 1.5514                 6.8002
 Frc consts  --      0.9592                 0.8278                 4.0346
 IR Inten    --      6.0650                 0.0381                39.9950

                     10                     11                     12
                     A"                     A'                     A'
 Frequencies --   1095.3268              1173.1491              1227.1645
 Red. masses --      1.1435                 1.3682                 1.8092
 Frc consts  --      0.8083                 1.1095                 1.6052
 IR Inten    --      0.4647                13.1175                54.4496

                     13                     14                     15
                     A'                     A'                     A'
 Frequencies --   1327.2927              1448.4886              1639.8446
 Red. masses --      3.9637                 1.1981                11.5438
 Frc consts  --      4.1142                 1.4810                18.2896
 IR Inten    --     33.6217                16.6336               343.2774

                     16                     17                     18
                     A'                     A"                     A'
 Frequencies --   3063.5065              3150.4158              3231.0569
 Red. masses --      1.0516                 1.1149                 1.1000
 Frc consts  --      5.8150                 6.5196                 6.7659
 IR Inten    --     15.9297                19.4044                44.2763

 - Thermochemistry -
 -------------------
 Temperature   298.150 Kelvin.  Pressure   1.00000 Atm.
 Atom     1 has atomic number  6 and mass  12.00000

 Molecular mass:    63.02348 amu.
 Principal axes and moments of inertia in atomic units:
                           1         2         3
     Eigenvalues --   117.02769 328.14213 433.19400
           X            0.94904  -0.31515   0.00000
           Y            0.31515   0.94904   0.00000
           Z            0.00000  -0.00000   1.00000
 This molecule is an asymmetric top.
 Rotational symmetry number  1.
 Rotational temperatures (Kelvin)      0.74011     0.26395     0.19994
 Rotational constants (GHZ):          15.42149     5.49988     4.16613
 Zero-point vibrational energy     137426.9 (Joules/Mol)
                                   32.84582 (Kcal/Mol)
 Warning -- explicit consideration of   4 degrees of freedom as
           vibrations may cause significant error
 Vibrational temperatures:    210.32   274.31   558.89   794.53  1030.57
          (Kelvin)           1099.19  1304.73  1369.19  1443.81  1575.93
                             1687.90  1765.61  1909.68  2084.05  2359.37
                             4407.70  4532.74  4648.76

 Zero-point correction=                           0.052343 (Hartree/Particle)
 Thermal correction to Energy=                    0.057317
 Thermal correction to Enthalpy=                  0.058261
 Thermal correction to Gibbs Free Energy=         0.023863
 Sum of electronic and zero-point Energies=           -191.702132
 Sum of electronic and thermal Energies=              -191.697158
 Sum of electronic and thermal Enthalpies=            -191.696214
 Sum of electronic and thermal Free Energies=         -191.730612

                     E (Thermal)             CV                S
                      KCal/Mol        Cal/Mol-Kelvin    Cal/Mol-Kelvin
 Total                   35.967             16.124             72.397
 Electronic               0.000              0.000              2.183
 Translational            0.889              2.981             38.342
 Rotational               0.889              2.981             24.324
 Vibrational             34.190             10.163              7.548
 Vibration     1          0.617              1.907              2.721
 Vibration     2          0.634              1.853              2.221
 Vibration     3          0.757              1.495              1.006
 Vibration     4          0.908              1.135              0.540

 Optimization completed.
    -- Stationary point found.
 Normal termination of Gaussian 09 at Thu Jan 31 05:48:54 2019.
