 Gaussian 09, Revision E.01,
 Gaussian 09:  EM64L-G09RevE.01 30-Nov-2015

 ---------------------------------------------
 #p b3lyp/6-311++G(3df,2p) freq symmetry=Loose
 ---------------------------------------------

 ---------
 b3lyp opt
 ---------
 Symbolic Z-matrix:
 Charge =  1 Multiplicity = 1

                         Standard orientation:
 ---------------------------------------------------------------------
 Center     Atomic      Atomic             Coordinates (Angstroms)
 Number     Number       Type             X           Y           Z
 ---------------------------------------------------------------------
      1          6           0       -2.216409   -0.567543   -0.000000
      2          1           0       -3.291201   -0.479164   -0.000000
      3          6           0       -0.957698   -0.627004   -0.000000
      4          1           0       -0.487546   -1.616977   -0.000000
      5          6           0       -0.000000    0.575806    0.000000
      6          1           0       -0.479026    1.546470    0.000000
      7          6           0        1.292544    0.390991    0.000000
      8          6           0        2.591192    0.319363    0.000000
 ---------------------------------------------------------------------

 SCF Done:  E(RB3LYP) =  -191.782853969     A.U. after   17 cycles

 The electronic state is 1-A'.
 Alpha  occ. eigenvalues --  -10.54124 -10.48813 -10.48310 -10.43394 -10.39466
 Alpha  occ. eigenvalues --   -1.10183  -1.02163  -0.92171  -0.85311  -0.78000
 Alpha  occ. eigenvalues --   -0.75239  -0.68949  -0.61774  -0.53754  -0.48271
 Alpha  occ. eigenvalues --   -0.48046
 Alpha virt. eigenvalues --   -0.40322  -0.35735  -0.24358  -0.19255  -0.15723
 Alpha virt. eigenvalues --   -0.15529  -0.13543  -0.11969  -0.11099  -0.10331
 Alpha virt. eigenvalues --   -0.08535  -0.07212  -0.05580  -0.04616  -0.04292

 Mulliken charges:
               1
     1  C    0.357348
     2  H    0.414071
     3  C   -0.342851
     4  H    0.242004
     5  C   -0.461873
     6  H    0.213126
     7  C    1.032812
     8  C   -0.454638
 Sum of Mulliken charges =   1.00000

 Dipole moment (field-independent basis, Debye):
    X=             -7.6863    Y=             -1.3092    Z=             -0.0000  Tot=              7.7970
 Quadrupole moment (field-independent basis, Debye-Ang):
   XX=            -10.7541   YY=            -21.1449   ZZ=            -27.7644
   XY=              3.2538   XZ=              0.0000   YZ=             -0.0000

  Exact polarizability: 127.651  16.342  41.890  -0.000  -0.000  32.445
 Approx polarizability: 393.105  51.486  66.483   0.000   0.000  47.797

                      1                      2                      3
                     A"                     A'                     A"
 Frequencies --     55.2013               149.0515               202.6092
 Red. masses --      2.7448                 5.7539                 5.3125
 Frc consts  --      0.0049                 0.0753                 0.1285
 IR Inten    --      0.1113                 1.8154                 3.2655

                      4                      5                      6
                     A'                     A'                     A"
 Frequencies --    224.4048               487.1855               644.0283
 Red. masses --      2.7583                 6.7705                 1.3453
 Frc consts  --      0.0818                 0.9468                 0.3288
 IR Inten    --     34.8148                 1.3739                49.0877

                      7                      8                      9
                     A'                     A"                     A"
 Frequencies --    692.2666               698.0442               871.2223
 Red. masses --      3.4769                 1.2760                 1.7323
 Frc consts  --      0.9817                 0.3663                 0.7747
 IR Inten    --    241.9016                63.8956                 1.6617

                     10                     11                     12
                     A'                     A'                     A'
 Frequencies --    970.0927              1081.0410              1165.9778
 Red. masses --      1.8267                 1.1957                 3.1000
 Frc consts  --      1.0128                 0.8233                 2.4831
 IR Inten    --      1.3210                23.4372                 3.3767

                     13                     14                     15
                     A'                     A'                     A'
 Frequencies --   1326.1398              1733.1440              1997.6429
 Red. masses --      1.4015                 5.8500                10.7293
 Frc consts  --      1.4522                10.3533                25.2266
 IR Inten    --      4.3108               213.0412               796.8253

                     16                     17                     18
                     A'                     A'                     A'
 Frequencies --   3044.3089              3184.6523              3298.8937
 Red. masses --      1.0842                 1.0953                 1.1350
 Frc consts  --      5.9200                 6.5449                 7.2778
 IR Inten    --    136.9000                22.2358               321.7233

 - Thermochemistry -
 -------------------
 Temperature   298.150 Kelvin.  Pressure   1.00000 Atm.
 Atom     1 has atomic number  6 and mass  12.00000

 Molecular mass:    63.02348 amu.
 Principal axes and moments of inertia in atomic units:
                           1         2         3
     Eigenvalues --    41.19867 682.19762 723.39629
           X            0.97359  -0.22829   0.00000
           Y            0.22829   0.97359   0.00000
           Z            0.00000  -0.00000   1.00000
 This molecule is an asymmetric top.
 Rotational symmetry number  1.
 Rotational temperatures (Kelvin)      2.10235     0.12696     0.11973
 Rotational constants (GHZ):          43.80582     2.64548     2.49482
 Zero-point vibrational energy     130547.9 (Joules/Mol)
                                   31.20170 (Kcal/Mol)
 Warning -- explicit consideration of   5 degrees of freedom as
           vibrations may cause significant error
 Vibrational temperatures:     79.42   214.45   291.51   322.87   700.95
          (Kelvin)            926.61   996.02  1004.33  1253.49  1395.75
                             1555.37  1677.58  1908.02  2493.60  2874.16
                             4380.08  4582.00  4746.37

 Zero-point correction=                           0.049723 (Hartree/Particle)
 Thermal correction to Energy=                    0.055865
 Thermal correction to Enthalpy=                  0.056809
 Thermal correction to Gibbs Free Energy=         0.020554
 Sum of electronic and zero-point Energies=           -191.733131
 Sum of electronic and thermal Energies=              -191.726989
 Sum of electronic and thermal Enthalpies=            -191.726045
 Sum of electronic and thermal Free Energies=         -191.762300

                     E (Thermal)             CV                S
                      KCal/Mol        Cal/Mol-Kelvin    Cal/Mol-Kelvin
 Total                   35.056             19.033             76.305
 Electronic               0.000              0.000              0.000
 Translational            0.889              2.981             38.342
 Rotational               0.889              2.981             24.523
 Vibrational             33.278             13.072             13.440
 Vibration     1          0.596              1.975              4.622
 Vibration     2          0.618              1.904              2.684
 Vibration     3          0.639              1.836              2.109
 Vibration     4          0.649              1.804              1.923
 Vibration     5          0.843              1.278              0.691

 Optimization completed.
    -- Stationary point found.
 Normal termination of Gaussian 09 at Tue Jul 19 16:40:55 2016.
