 Gaussian 09, Revision E.01,
 Gaussian 09:  EM64L-G09RevE.01 30-Nov-2015

 ---------------------------------------------
 #p b3lyp/6-311++G(3df,2p) freq symmetry=Loose
 ---------------------------------------------

 ---------
 b3lyp opt
 ---------
 Symbolic Z-matrix:
 Charge =  1 Multiplicity = 3

                         Standard orientation:
 ---------------------------------------------------------------------
 Center     Atomic      Atomic             Coordinates (Angstroms)
 Number     Number       Type             X           Y           Z
 ---------------------------------------------------------------------
      1          6           0       -0.000000    1.868212   -0.000000
      2          1           0       -0.051609    2.409257    0.936627
      3          1           0       -0.051609    2.409257   -0.936627
      4          6           0        0.113121    0.484980    0.000000
      5          6           0        0.179784   -0.603204    0.936717
      6          6           0       -0.323074   -1.532430   -0.000000
      7          1           0       -0.794477   -2.504617    0.000000
      8          6           0        0.179784   -0.603204   -0.936717
 ---------------------------------------------------------------------

 SCF Done:  E(UB3LYP) =  -191.808428298     A.U. after   16 cycles

 The electronic state is 3-A".
 Alpha  occ. eigenvalues --  -10.50700 -10.50502 -10.48343 -10.48342 -10.48106
 Alpha  occ. eigenvalues --   -1.21014  -1.03393  -0.89178  -0.85355  -0.77193
 Alpha  occ. eigenvalues --   -0.71818  -0.68410  -0.67830  -0.63922  -0.55480
 Alpha  occ. eigenvalues --   -0.52956  -0.46504
 Alpha virt. eigenvalues --   -0.32827  -0.29362  -0.19748  -0.15046  -0.13115
 Alpha virt. eigenvalues --   -0.11393  -0.10583  -0.10379  -0.10002  -0.08728
 Alpha virt. eigenvalues --   -0.06408  -0.05134  -0.04801  -0.04118  -0.03888

  Beta  occ. eigenvalues --  -10.50397 -10.50026 -10.47454 -10.47451 -10.47228
  Beta  occ. eigenvalues --   -1.19407  -1.00651  -0.87812  -0.82963  -0.76231
  Beta  occ. eigenvalues --   -0.70756  -0.67559  -0.63226  -0.62926  -0.51052
  Beta virt. eigenvalues --   -0.42582  -0.33667  -0.28178  -0.28143  -0.16360
  Beta virt. eigenvalues --   -0.14636  -0.12730  -0.10903  -0.10348  -0.09825
  Beta virt. eigenvalues --   -0.09211  -0.08535  -0.05700  -0.04853  -0.04466

 Mulliken charges and spin densities:
               1          2
     1  C   -0.360948   0.527904
     2  H    0.255000  -0.014126
     3  H    0.255000  -0.014126
     4  C    0.752985   0.158232
     5  C   -0.215610   0.539066
     6  C    0.215428   0.264140
     7  H    0.313757  -0.000155
     8  C   -0.215610   0.539066
 Sum of Mulliken charges =   1.00000   2.00000

 Dipole moment (field-independent basis, Debye):
    X=             -1.2080    Y=              1.1006    Z=             -0.0000  Tot=              1.6342
 Quadrupole moment (field-independent basis, Debye-Ang):
   XX=            -26.0388   YY=             -6.7274   ZZ=            -27.2201
   XY=              2.5575   XZ=             -0.0000   YZ=             -0.0000

  Exact polarizability:  29.769   3.114  72.355   0.000   0.000  54.315
 Approx polarizability:  45.487   7.670 115.220   0.000  -0.000 122.931

                      1                      2                      3
                     A'                     A"                     A"
 Frequencies --    243.1118               309.1433               364.5542
 Red. masses --      3.0823                 1.3314                 1.9877
 Frc consts  --      0.1073                 0.0750                 0.1556
 IR Inten    --      9.2206                 0.0370                 4.6630

                      4                      5                      6
                     A'                     A'                     A"
 Frequencies --    603.6163               668.9644               828.3329
 Red. masses --      4.1323                 6.6408                 3.1481
 Frc consts  --      0.8871                 1.7510                 1.2727
 IR Inten    --      9.7072                13.7588                35.4941

                      7                      8                      9
                     A'                     A'                     A"
 Frequencies --    887.9767               958.1316               958.4577
 Red. masses --      1.8721                 3.2056                 4.2758
 Frc consts  --      0.8697                 1.7339                 2.3143
 IR Inten    --     11.0455                38.3746                18.0129

                     10                     11                     12
                     A'                     A"                     A"
 Frequencies --    984.2404              1080.4312              1163.3172
 Red. masses --      1.4938                 1.3985                 1.8773
 Frc consts  --      0.8526                 0.9619                 1.4969
 IR Inten    --     13.7420                 5.3534                 0.4172

                     13                     14                     15
                     A'                     A'                     A'
 Frequencies --   1335.2759              1456.7238              1611.8192
 Red. masses --      7.1401                 1.1638                 8.2484
 Frc consts  --      7.5007                 1.4551                12.6256
 IR Inten    --     72.8918                 6.0309                14.3696

                     16                     17                     18
                     A'                     A'                     A"
 Frequencies --   3139.6131              3245.8593              3254.5100
 Red. masses --      1.0533                 1.1062                 1.1230
 Frc consts  --      6.1171                 6.8666                 7.0079
 IR Inten    --     39.3351                71.5149                24.8424

 - Thermochemistry -
 -------------------
 Temperature   298.150 Kelvin.  Pressure   1.00000 Atm.
 Atom     1 has atomic number  6 and mass  12.00000

 Molecular mass:    63.02348 amu.
 Principal axes and moments of inertia in atomic units:
                           1         2         3
     Eigenvalues --    90.32278 365.55871 438.26786
           X            0.05947   0.00000   0.99823
           Y            0.99823   0.00000  -0.05947
           Z            0.00000   1.00000   0.00000
 This molecule is an asymmetric top.
 Rotational symmetry number  1.
 Rotational temperatures (Kelvin)      0.95894     0.23694     0.19763
 Rotational constants (GHZ):          19.98102     4.93694     4.11790
 Zero-point vibrational energy     138133.3 (Joules/Mol)
                                   33.01464 (Kcal/Mol)
 Warning -- explicit consideration of   4 degrees of freedom as
           vibrations may cause significant error
 Vibrational temperatures:    349.78   444.79   524.51   868.47   962.49
          (Kelvin)           1191.78  1277.60  1378.54  1379.01  1416.10
                             1554.50  1673.75  1921.16  2095.90  2319.05
                             4517.20  4670.06  4682.51

 Zero-point correction=                           0.052612 (Hartree/Particle)
 Thermal correction to Energy=                    0.057297
 Thermal correction to Enthalpy=                  0.058241
 Thermal correction to Gibbs Free Energy=         0.024715
 Sum of electronic and zero-point Energies=           -191.755816
 Sum of electronic and thermal Energies=              -191.751131
 Sum of electronic and thermal Enthalpies=            -191.750187
 Sum of electronic and thermal Free Energies=         -191.783713

                     E (Thermal)             CV                S
                      KCal/Mol        Cal/Mol-Kelvin    Cal/Mol-Kelvin
 Total                   35.954             16.015             70.562
 Electronic               0.000              0.000              2.183
 Translational            0.889              2.981             38.342
 Rotational               0.889              2.981             24.185
 Vibrational             34.177             10.053              5.852
 Vibration     1          0.659              1.774              1.780
 Vibration     2          0.698              1.656              1.367
 Vibration     3          0.738              1.545              1.103
 Vibration     4          0.962              1.024              0.443

 Optimization completed.
    -- Stationary point found.
 Normal termination of Gaussian 09 at Sun Jun 19 10:34:24 2016.
