 Gaussian 09, Revision E.01,
 Gaussian 09:  EM64L-G09RevE.01 30-Nov-2015

 ---------------------------------------------
 #p b3lyp/6-311++G(3df,2p) freq symmetry=Loose
 ---------------------------------------------

 ---------
 b3lyp opt
 ---------
 Symbolic Z-matrix:
 Charge =  1 Multiplicity = 1

                         Standard orientation:
 ---------------------------------------------------------------------
 Center     Atomic      Atomic             Coordinates (Angstroms)
 Number     Number       Type             X           Y           Z
 ---------------------------------------------------------------------
      1          6           0       -0.000000   -0.000000   -0.284387
      2          6           0        0.000000    0.000000    1.085267
      3          6           0        0.000000    0.672341   -1.486887
      4          1           0        0.000000    1.607529   -2.026407
      5          6           0        0.000000    0.000000    2.288811
      6          6           0       -0.000000   -0.672341   -1.486887
      7          1           0        0.000000    0.000000    3.357318
      8          1           0       -0.000000   -1.607529   -2.026407
 ---------------------------------------------------------------------

 SCF Done:  E(RB3LYP) =  -191.953846202     A.U. after   12 cycles

 The electronic state is 1-A1.
 Alpha  occ. eigenvalues --  -10.50105 -10.48246 -10.48170 -10.41438 -10.39978
 Alpha  occ. eigenvalues --   -1.19910  -0.99807  -0.88544  -0.83775  -0.79639
 Alpha  occ. eigenvalues --   -0.72897  -0.65501  -0.63594  -0.63547  -0.51807
 Alpha  occ. eigenvalues --   -0.49863
 Alpha virt. eigenvalues --   -0.30141  -0.27138  -0.19450  -0.14271  -0.13250
 Alpha virt. eigenvalues --   -0.12761  -0.11515  -0.10808  -0.09211  -0.09148
 Alpha virt. eigenvalues --   -0.07430  -0.06369  -0.05126  -0.03855  -0.03339

 Mulliken charges:
               1
     1  C   -0.285351
     2  C   -0.443354
     3  C    0.111897
     4  H    0.315006
     5  C    0.516601
     6  C    0.111897
     7  H    0.358299
     8  H    0.315006
 Sum of Mulliken charges =   1.00000

 Dipole moment (field-independent basis, Debye):
    X=             -0.0000    Y=             -0.0000    Z=             -1.7854  Tot=              1.7854
 Quadrupole moment (field-independent basis, Debye-Ang):
   XX=            -26.5382   YY=            -21.0500   ZZ=             -2.1742
   XY=              0.0000   XZ=              0.0000   YZ=              0.0000

  Exact polarizability:  27.372   0.000  37.926  -0.000   0.000  80.997
 Approx polarizability:  39.830   0.000  58.146   0.000   0.000 143.687

                      1                      2                      3
                     B2                     B1                     B2
 Frequencies --    194.9063               203.1891               523.3590
 Red. masses --      3.6033                 3.8718                 4.8105
 Frc consts  --      0.0806                 0.0942                 0.7763
 IR Inten    --      9.4944                17.3525                 2.7850

                      4                      5                      6
                     B1                     B2                     A1
 Frequencies --    531.8904               714.6917               736.5906
 Red. masses --      3.3063                 1.2547                 3.7905
 Frc consts  --      0.5511                 0.3776                 1.2117
 IR Inten    --      0.8559                40.1191                 4.3463

                      7                      8                      9
                     B1                     B1                     A1
 Frequencies --    829.4767               865.3142               981.6591
 Red. masses --      1.3171                 1.4948                 1.2299
 Frc consts  --      0.5339                 0.6595                 0.6983
 IR Inten    --     16.8931                45.7297                 6.4724

                     10                     11                     12
                     A2                     B2                     B2
 Frequencies --    994.5002              1021.1214              1231.9146
 Red. masses --      1.4339                 1.4505                 6.1029
 Frc consts  --      0.8355                 0.8911                 5.4569
 IR Inten    --      0.0000                 8.7564                28.4040

                     13                     14                     15
                     A1                     A1                     A1
 Frequencies --   1396.2846              1743.8488              2213.2671
 Red. masses --      7.3858                 6.3064                 6.0655
 Frc consts  --      8.4839                11.2992                17.5058
 IR Inten    --    162.1546                36.6567               351.9796

                     16                     17                     18
                     B2                     A1                     A1
 Frequencies --   3235.3551              3269.3907              3408.6953
 Red. masses --      1.0966                 1.1442                 1.1672
 Frc consts  --      6.7629                 7.2059                 7.9904
 IR Inten    --     76.0040                58.8386                94.3266

 - Thermochemistry -
 -------------------
 Temperature   298.150 Kelvin.  Pressure   1.00000 Atm.
 Atom     1 has atomic number  6 and mass  12.00000

 Molecular mass:    63.02348 amu.
 Principal axes and moments of inertia in atomic units:
                           1         2         3
     Eigenvalues --    57.34327 538.00665 595.34992
           X            0.00000  -0.00000   1.00000
           Y            0.00000   1.00000   0.00000
           Z            1.00000  -0.00000  -0.00000
 This molecule is an asymmetric top.
 Rotational symmetry number  2.
 Rotational temperatures (Kelvin)      1.51044     0.16099     0.14548
 Rotational constants (GHZ):          31.47259     3.35450     3.03140
 Zero-point vibrational energy     144122.8 (Joules/Mol)
                                   34.44618 (Kcal/Mol)
 Warning -- explicit consideration of   4 degrees of freedom as
           vibrations may cause significant error
 Vibrational temperatures:    280.43   292.34   753.00   765.27  1028.28
          (Kelvin)           1059.79  1193.43  1244.99  1412.39  1430.86
                             1469.16  1772.45  2008.94  2509.01  3184.39
                             4654.95  4703.92  4904.35

 Zero-point correction=                           0.054893 (Hartree/Particle)
 Thermal correction to Energy=                    0.059732
 Thermal correction to Enthalpy=                  0.060677
 Thermal correction to Gibbs Free Energy=         0.028321
 Sum of electronic and zero-point Energies=           -191.898953
 Sum of electronic and thermal Energies=              -191.894114
 Sum of electronic and thermal Enthalpies=            -191.893170
 Sum of electronic and thermal Free Energies=         -191.925525

                     E (Thermal)             CV                S
                      KCal/Mol        Cal/Mol-Kelvin    Cal/Mol-Kelvin
 Total                   37.483             16.201             68.097
 Electronic               0.000              0.000              0.000
 Translational            0.889              2.981             38.342
 Rotational               0.889              2.981             23.045
 Vibrational             35.705             10.239              6.711
 Vibration     1          0.636              1.847              2.181
 Vibration     2          0.639              1.835              2.104
 Vibration     3          0.878              1.198              0.602
 Vibration     4          0.887              1.179              0.583

 Optimization completed.
    -- Stationary point found.
 Normal termination of Gaussian 09 at Tue Jul 19 17:16:14 2016.
