 Gaussian 09, Revision E.01,
 Gaussian 09:  EM64L-G09RevE.01 30-Nov-2015

 ---------------------------------------------
 #p b3lyp/6-311++G(3df,2p) freq symmetry=Loose
 ---------------------------------------------

 ---------
 b3lyp opt
 ---------
 Symbolic Z-matrix:
 Charge =  1 Multiplicity = 3

                         Standard orientation:
 ---------------------------------------------------------------------
 Center     Atomic      Atomic             Coordinates (Angstroms)
 Number     Number       Type             X           Y           Z
 ---------------------------------------------------------------------
      1          6           0        1.642760   -0.033759   -0.092103
      2          6           0        0.678816   -0.885718   -0.281348
      3          6           0        0.523258    0.801258    0.070139
      4          1           0        0.422678    1.803262   -0.347056
      5          6           0       -0.625512   -0.088620    0.503913
      6          1           0       -0.621495   -0.436054    1.533329
      7          6           0       -1.807445   -0.081700   -0.217374
      8          1           0       -2.272447    0.364021   -1.085630
 ---------------------------------------------------------------------

 SCF Done:  E(UB3LYP) =  -191.699103455     A.U. after   21 cycles

 The electronic state is 3-A.
 Alpha  occ. eigenvalues --  -10.52526 -10.51733 -10.49673 -10.48677 -10.45719
 Alpha  occ. eigenvalues --   -1.19784  -1.03566  -0.88954  -0.85755  -0.75910
 Alpha  occ. eigenvalues --   -0.73597  -0.69936  -0.66976  -0.59471  -0.53454
 Alpha  occ. eigenvalues --   -0.50522  -0.48463
 Alpha virt. eigenvalues --   -0.38477  -0.28539  -0.23829  -0.15670  -0.14443
 Alpha virt. eigenvalues --   -0.13966  -0.12428  -0.09712  -0.09175  -0.07999
 Alpha virt. eigenvalues --   -0.07342  -0.06865  -0.05625  -0.04871  -0.04038

  Beta  occ. eigenvalues --  -10.52139 -10.50258 -10.49762 -10.46474 -10.46247
  Beta  occ. eigenvalues --   -1.19119  -1.00943  -0.86804  -0.83007  -0.75138
  Beta  occ. eigenvalues --   -0.71516  -0.68268  -0.63964  -0.58541  -0.53136
  Beta virt. eigenvalues --   -0.38810  -0.34439  -0.32344  -0.25227  -0.23453
  Beta virt. eigenvalues --   -0.14644  -0.14006  -0.12967  -0.11651  -0.09040
  Beta virt. eigenvalues --   -0.08681  -0.07368  -0.06992  -0.06461  -0.05250

 Mulliken charges and spin densities:
               1          2
     1  C   -0.035576  -0.556698
     2  C    0.178506   0.860578
     3  C    0.225414   0.266910
     4  H    0.272869   0.021626
     5  C    0.190086  -0.225237
     6  H    0.273158   0.025912
     7  C   -0.392956   1.609429
     8  H    0.288499  -0.002519
 Sum of Mulliken charges =   1.00000   2.00000

 Dipole moment (field-independent basis, Debye):
    X=             -1.9225    Y=              1.2891    Z=             -0.0299  Tot=              2.3149
 Quadrupole moment (field-independent basis, Debye-Ang):
   XX=            -19.6040   YY=            -22.5402   ZZ=            -23.4081
   XY=             -0.6669   XZ=              1.7149   YZ=             -1.3804

  Exact polarizability:  99.442  -2.194  42.229  -0.612   0.508  34.648
 Approx polarizability: 208.856  -3.739  78.827  -0.494   4.831  52.091

                      1                      2                      3
                      A                      A                      A
 Frequencies --    211.6040               267.1310               311.0545
 Red. masses --     10.1609                 3.3055                 3.1378
 Frc consts  --      0.2681                 0.1390                 0.1789
 IR Inten    --     57.7213                 1.1981                 3.3499

                      4                      5                      6
                      A                      A                      A
 Frequencies --    423.9652               460.8705               572.0416
 Red. masses --      4.7499                 3.5917                 1.6943
 Frc consts  --      0.5030                 0.4495                 0.3267
 IR Inten    --     23.0083                 5.5914                86.8191

                      7                      8                      9
                      A                      A                      A
 Frequencies --    717.2438               847.1494               972.7594
 Red. masses --      1.3584                 1.4501                 4.9354
 Frc consts  --      0.4117                 0.6131                 2.7516
 IR Inten    --     97.2479                52.1508                 3.7975

                     10                     11                     12
                      A                      A                      A
 Frequencies --    988.6464              1165.8677              1216.2071
 Red. masses --      1.1744                 1.2345                 2.8216
 Frc consts  --      0.6763                 0.9886                 2.4590
 IR Inten    --     17.3227                 5.7992                20.2275

                     13                     14                     15
                      A                      A                      A
 Frequencies --   1222.3254              1303.3663              1530.2189
 Red. masses --      2.5462                 2.1070                10.7375
 Frc consts  --      2.2414                 2.1089                14.8137
 IR Inten    --     13.7002                 2.6715                34.4562

                     16                     17                     18
                      A                      A                      A
 Frequencies --   3112.1459              3132.9505              3228.5916
 Red. masses --      1.0916                 1.0873                 1.0967
 Frc consts  --      6.2294                 6.2877                 6.7351
 IR Inten    --     28.3234                43.1764               116.3871

 - Thermochemistry -
 -------------------
 Temperature   298.150 Kelvin.  Pressure   1.00000 Atm.
 Atom     1 has atomic number  6 and mass  12.00000

 Molecular mass:    63.02348 amu.
 Principal axes and moments of inertia in atomic units:
                           1         2         3
     Eigenvalues --   104.42692 353.38803 399.52602
           X            0.99986   0.00449   0.01602
           Y           -0.00236   0.99145  -0.13047
           Z           -0.01646   0.13041   0.99132
 This molecule is an asymmetric top.
 Rotational symmetry number  1.
 Rotational temperatures (Kelvin)      0.82942     0.24510     0.21679
 Rotational constants (GHZ):          17.28234     5.10697     4.51721
 Zero-point vibrational energy     129700.0 (Joules/Mol)
                                   30.99903 (Kcal/Mol)
 Warning -- explicit consideration of   6 degrees of freedom as
           vibrations may cause significant error
 Vibrational temperatures:    304.45   384.34   447.54   609.99   663.09
          (Kelvin)            823.04  1031.95  1218.86  1399.58  1422.44
                             1677.42  1749.85  1758.65  1875.25  2201.64
                             4477.68  4507.61  4645.22

 Zero-point correction=                           0.049400 (Hartree/Particle)
 Thermal correction to Energy=                    0.054679
 Thermal correction to Enthalpy=                  0.055623
 Thermal correction to Gibbs Free Energy=         0.021084
 Sum of electronic and zero-point Energies=           -191.649703
 Sum of electronic and thermal Energies=              -191.644424
 Sum of electronic and thermal Enthalpies=            -191.643480
 Sum of electronic and thermal Free Energies=         -191.678020

                     E (Thermal)             CV                S
                      KCal/Mol        Cal/Mol-Kelvin    Cal/Mol-Kelvin
 Total                   34.312             18.016             72.695
 Electronic               0.000              0.000              2.183
 Translational            0.889              2.981             38.342
 Rotational               0.889              2.981             24.204
 Vibrational             32.534             12.054              7.966
 Vibration     1          0.643              1.823              2.030
 Vibration     2          0.672              1.733              1.615
 Vibration     3          0.700              1.653              1.357
 Vibration     4          0.786              1.418              0.879
 Vibration     5          0.819              1.337              0.764
 Vibration     6          0.928              1.092              0.500

 Optimization completed.
    -- Stationary point found.
 Normal termination of Gaussian 09 at Sun Jun 19 10:53:34 2016.
