 Gaussian 09, Revision E.01,
 Gaussian 09:  EM64L-G09RevE.01 30-Nov-2015

 ---------------------------------------------
 #p b3lyp/6-311++G(3df,2p) freq symmetry=Loose
 ---------------------------------------------

 ---------
 b3lyp opt
 ---------
 Symbolic Z-matrix:
 Charge =  3 Multiplicity = 3

                         Standard orientation:
 ---------------------------------------------------------------------
 Center     Atomic      Atomic             Coordinates (Angstroms)
 Number     Number       Type             X           Y           Z
 ---------------------------------------------------------------------
      1          6           0       -0.201138   -0.001370    0.076001
      2          6           0        1.180827   -0.000959    0.330508
      3          1           0        1.582201   -0.002586    1.422554
      4          6           0       -1.455966   -0.664893   -0.075108
      5          1           0       -1.854684   -1.709859   -0.119609
      6          6           0        2.285270    0.001049   -0.455118
      7          6           0       -1.455246    0.666146   -0.074075
      8          1           0       -1.849996    1.712610   -0.116202
 ---------------------------------------------------------------------

 SCF Done:  E(UB3LYP) =  -190.410949723     A.U. after   18 cycles

 The electronic state is 3-A.
 Alpha  occ. eigenvalues --  -11.15827 -11.02338 -11.01035 -10.97017 -10.96928
 Alpha  occ. eigenvalues --   -1.66841  -1.59190  -1.40516  -1.27624  -1.23599
 Alpha  occ. eigenvalues --   -1.21065  -1.16856  -1.11917  -1.11622  -1.08093
 Alpha  occ. eigenvalues --   -1.04398
 Alpha virt. eigenvalues --   -0.89048  -0.78612  -0.76257  -0.69655  -0.54801
 Alpha virt. eigenvalues --   -0.50855  -0.50029  -0.48837  -0.48546  -0.45979
 Alpha virt. eigenvalues --   -0.43305  -0.41399  -0.41391  -0.38632  -0.38589

  Beta  occ. eigenvalues --  -11.12551 -11.02081 -11.00674 -10.96845 -10.96755
  Beta  occ. eigenvalues --   -1.65605  -1.55962  -1.38182  -1.26074  -1.22147
  Beta  occ. eigenvalues --   -1.19835  -1.11166  -1.08069  -1.07312
  Beta virt. eigenvalues --   -0.93068  -0.92816  -0.84125  -0.75678  -0.72080
  Beta virt. eigenvalues --   -0.69262  -0.54062  -0.50042  -0.49527  -0.48467
  Beta virt. eigenvalues --   -0.47164  -0.45524  -0.42889  -0.41007  -0.40856

 Mulliken charges and spin densities:
               1          2
     1  C    0.323462   0.293792
     2  C    0.353313   0.055198
     3  H    0.339984  -0.005380
     4  C    0.259602   0.048359
     5  H    0.429798   0.038800
     6  C    0.607069   1.481398
     7  C    0.256909   0.049461
     8  H    0.429865   0.038371
 Sum of Mulliken charges =   3.00000   2.00000

 Dipole moment (field-independent basis, Debye):
    X=              3.3823    Y=              0.0050    Z=              0.1119  Tot=              3.3841
 Quadrupole moment (field-independent basis, Debye-Ang):
   XX=             27.1178   YY=            -11.0361   ZZ=            -16.3383
   XY=              0.0036   XZ=              0.3190   YZ=             -0.0014

  Exact polarizability:  81.983   0.006  30.955  -0.039  -0.004  26.879
 Approx polarizability: 163.208  -0.004  48.655  -5.179  -0.021  45.718

                      1                      2                      3
                      A                      A                      A
 Frequencies --    177.2499               245.6913               284.4537
 Red. masses --      4.1930                 7.2571                 2.0942
 Frc consts  --      0.0776                 0.2581                 0.0998
 IR Inten    --      4.8245                10.5851                35.0594

                      4                      5                      6
                      A                      A                      A
 Frequencies --    483.5372               614.0614               713.2051
 Red. masses --      4.2585                 7.5536                 1.8914
 Frc consts  --      0.5866                 1.6781                 0.5668
 IR Inten    --      9.3745                97.4858                 3.8706

                      7                      8                      9
                      A                      A                      A
 Frequencies --    726.7400               812.7039               827.2615
 Red. masses --      3.8409                 1.3292                 1.1940
 Frc consts  --      1.1952                 0.5173                 0.4815
 IR Inten    --      1.0365                 3.2034                82.1089

                     10                     11                     12
                      A                      A                      A
 Frequencies --    895.3935               960.5746               972.7507
 Red. masses --      1.3600                 1.3424                 1.4121
 Frc consts  --      0.6424                 0.7298                 0.7873
 IR Inten    --     35.0597                16.1311                 3.0536

                     13                     14                     15
                      A                      A                      A
 Frequencies --   1147.8365              1395.2835              1646.9938
 Red. masses --      4.3049                 6.6844                 5.2506
 Frc consts  --      3.3417                 7.6672                 8.3916
 IR Inten    --    324.5234                62.7385               117.7496

                     16                     17                     18
                      A                      A                      A
 Frequencies --   2434.0874              2810.2210              2886.9591
 Red. masses --      1.0762                 1.0860                 1.1778
 Frc consts  --      3.7568                 5.0529                 5.7839
 IR Inten    --    714.9328               797.1635               732.2838

 - Thermochemistry -
 -------------------
 Temperature   298.150 Kelvin.  Pressure   1.00000 Atm.
 Atom     1 has atomic number  6 and mass  12.00000

 Molecular mass:    63.02348 amu.
 Principal axes and moments of inertia in atomic units:
                           1         2         3
     Eigenvalues --    80.44130 521.91670 559.55288
           X            0.99981  -0.00001   0.01959
           Y            0.00001   1.00000   0.00017
           Z           -0.01959  -0.00017   0.99981
 This molecule is an asymmetric top.
 Rotational symmetry number  1.
 Rotational temperatures (Kelvin)      1.07673     0.16595     0.15479
 Rotational constants (GHZ):          22.43551     3.45791     3.22533
 Zero-point vibrational energy     119835.9 (Joules/Mol)
                                   28.64148 (Kcal/Mol)
 Warning -- explicit consideration of   5 degrees of freedom as
           vibrations may cause significant error
 Vibrational temperatures:    255.02   353.49   409.26   695.70   883.50
          (Kelvin)           1026.14  1045.62  1169.30  1190.24  1288.27
                             1382.05  1399.57  1651.48  2007.50  2369.65
                             3502.10  4043.28  4153.69

 Zero-point correction=                           0.045643 (Hartree/Particle)
 Thermal correction to Energy=                    0.050920
 Thermal correction to Enthalpy=                  0.051864
 Thermal correction to Gibbs Free Energy=         0.017024
 Sum of electronic and zero-point Energies=           -190.365307
 Sum of electronic and thermal Energies=              -190.360030
 Sum of electronic and thermal Enthalpies=            -190.359086
 Sum of electronic and thermal Free Energies=         -190.393925

                     E (Thermal)             CV                S
                      KCal/Mol        Cal/Mol-Kelvin    Cal/Mol-Kelvin
 Total                   31.953             18.146             73.326
 Electronic               0.000              0.000              2.183
 Translational            0.889              2.981             38.342
 Rotational               0.889              2.981             24.667
 Vibrational             30.175             12.185              8.134
 Vibration     1          0.628              1.870              2.357
 Vibration     2          0.660              1.770              1.761
 Vibration     3          0.683              1.703              1.507
 Vibration     4          0.840              1.287              0.701
 Vibration     5          0.973              1.002              0.426

 Normal termination of Gaussian 09 at Sun Jun 19 14:59:54 2016.
