 Gaussian 09, Revision E.01,
 Gaussian 09:  EM64L-G09RevE.01 30-Nov-2015

 ---------------------------------------------
 #p b3lyp/6-311++G(3df,2p) freq symmetry=Loose
 ---------------------------------------------

 ---------
 b3lyp opt
 ---------
 Symbolic Z-matrix:
 Charge =  0 Multiplicity = 4

                         Standard orientation:
 ---------------------------------------------------------------------
 Center     Atomic      Atomic             Coordinates (Angstroms)
 Number     Number       Type             X           Y           Z
 ---------------------------------------------------------------------
      1          1           0       -1.658842   -0.675338    0.895749
      2          6           0       -0.000000    0.575199    0.000000
      3          6           0       -0.118763    1.979089    0.000000
      4          6           0        0.246382   -1.382478   -0.000000
      5          6           0        1.108930   -0.320243   -0.000000
      6          1           0        2.177313   -0.183047   -0.000000
      7          6           0       -1.046488   -0.595947    0.000000
      8          1           0       -1.658842   -0.675338   -0.895749
 ---------------------------------------------------------------------

 SCF Done:  E(UB3LYP) =  -192.050538398     A.U. after   16 cycles

 The electronic state is 4-A".
 Alpha  occ. eigenvalues --  -10.26889 -10.24991 -10.23542 -10.22736 -10.21117
 Alpha  occ. eigenvalues --   -0.94171  -0.74845  -0.71960  -0.57145  -0.56512
 Alpha  occ. eigenvalues --   -0.49306  -0.45290  -0.41888  -0.35995  -0.33605
 Alpha  occ. eigenvalues --   -0.27710  -0.26911  -0.20772
 Alpha virt. eigenvalues --   -0.07815  -0.00906  -0.00618   0.00814   0.02766
 Alpha virt. eigenvalues --    0.03112   0.04680   0.05806   0.07206   0.07214
 Alpha virt. eigenvalues --    0.08054   0.09259   0.10797   0.11208   0.11867

  Beta  occ. eigenvalues --  -10.25013 -10.24454 -10.23364 -10.22390 -10.19170
  Beta  occ. eigenvalues --   -0.91900  -0.71107  -0.69422  -0.56655  -0.51020
  Beta  occ. eigenvalues --   -0.47961  -0.42804  -0.40677  -0.33714  -0.26718
  Beta virt. eigenvalues --   -0.16730  -0.13899  -0.05773  -0.02987  -0.00629
  Beta virt. eigenvalues --    0.00767   0.01146   0.03350   0.04335   0.04888
  Beta virt. eigenvalues --    0.06103   0.07507   0.07538   0.08691   0.10261

 Mulliken charges and spin densities:
               1          2
     1  H    0.165393   0.003368
     2  C    0.651466   0.467396
     3  C   -0.665877   1.274709
     4  C    0.056981   1.263363
     5  C   -0.103384  -0.082215
     6  H    0.255032  -0.001792
     7  C   -0.525002   0.071803
     8  H    0.165393   0.003368
 Sum of Mulliken charges =  -0.00000   3.00000

 Dipole moment (field-independent basis, Debye):
    X=              0.2394    Y=             -3.4090    Z=             -0.0000  Tot=              3.4174
 Quadrupole moment (field-independent basis, Debye-Ang):
   XX=            -25.7657   YY=            -41.6006   ZZ=            -29.2462
   XY=              1.4225   XZ=              0.0000   YZ=              0.0000

  Exact polarizability:  59.685  -3.823  94.627  -0.000  -0.000  43.854
 Approx polarizability:  85.470  -9.777 178.618   0.000   0.000  61.846

                      1                      2                      3
                     A"                     A'                     A"
 Frequencies --    151.1469               358.8695               458.6056
 Red. masses --      6.7030                 5.1854                 1.9639
 Frc consts  --      0.0902                 0.3935                 0.2434
 IR Inten    --     29.6089                12.5140                 0.5136

                      4                      5                      6
                     A'                     A'                     A"
 Frequencies --    652.3551               783.5846               862.1022
 Red. masses --      5.1244                 6.3207                 1.5515
 Frc consts  --      1.2849                 2.2866                 0.6794
 IR Inten    --      0.7070                15.9286                34.8123

                      7                      8                      9
                     A'                     A"                     A'
 Frequencies --    988.8037              1001.6660              1012.6266
 Red. masses --      4.7838                 1.4783                 3.4637
 Frc consts  --      2.7558                 0.8739                 2.0926
 IR Inten    --      5.5734                 3.7032                12.7879

                     10                     11                     12
                     A"                     A'                     A'
 Frequencies --   1036.2855              1148.8575              1187.2375
 Red. masses --      1.0961                 1.3338                 1.9853
 Frc consts  --      0.6935                 1.0372                 1.6487
 IR Inten    --      2.4754                 0.2858                42.7363

                     13                     14                     15
                     A'                     A'                     A'
 Frequencies --   1362.8406              1417.0029              1478.6819
 Red. masses --      5.2965                 4.5003                 1.2394
 Frc consts  --      5.7960                 5.3239                 1.5966
 IR Inten    --      2.8443                19.9246                 6.9626

                     16                     17                     18
                     A'                     A"                     A'
 Frequencies --   3074.3099              3129.8783              3249.5066
 Red. masses --      1.0552                 1.1097                 1.1018
 Frc consts  --      5.8761                 6.4048                 6.8548
 IR Inten    --      6.0139                 1.6091                 0.6575

 - Thermochemistry -
 -------------------
 Temperature   298.150 Kelvin.  Pressure   1.00000 Atm.
 Atom     1 has atomic number  1 and mass   1.00783

 Molecular mass:    63.02348 amu.
 Principal axes and moments of inertia in atomic units:
                           1         2         3
     Eigenvalues --   145.10646 292.88539 426.44097
           X           -0.04491   0.99899   0.00000
           Y            0.99899   0.04491   0.00000
           Z           -0.00000  -0.00000   1.00000
 This molecule is an asymmetric top.
 Rotational symmetry number  1.
 Rotational temperatures (Kelvin)      0.59690     0.29573     0.20311
 Rotational constants (GHZ):          12.43736     6.16194     4.23210
 Zero-point vibrational energy     139690.1 (Joules/Mol)
                                   33.38673 (Kcal/Mol)
 Warning -- explicit consideration of   3 degrees of freedom as
           vibrations may cause significant error
 Vibrational temperatures:    217.47   516.33   659.83   938.59  1127.40
          (Kelvin)           1240.37  1422.67  1441.17  1456.94  1490.98
                             1652.95  1708.17  1960.82  2038.75  2127.49
                             4423.24  4503.19  4675.31

 Zero-point correction=                           0.053205 (Hartree/Particle)
 Thermal correction to Energy=                    0.057767
 Thermal correction to Enthalpy=                  0.058712
 Thermal correction to Gibbs Free Energy=         0.024826
 Sum of electronic and zero-point Energies=           -191.997333
 Sum of electronic and thermal Energies=              -191.992771
 Sum of electronic and thermal Enthalpies=            -191.991827
 Sum of electronic and thermal Free Energies=         -192.025712

                     E (Thermal)             CV                S
                      KCal/Mol        Cal/Mol-Kelvin    Cal/Mol-Kelvin
 Total                   36.250             15.140             71.317
 Electronic               0.000              0.000              2.755
 Translational            0.889              2.981             38.342
 Rotational               0.889              2.981             24.409
 Vibrational             34.472              9.178              5.812
 Vibration     1          0.619              1.901              2.658
 Vibration     2          0.734              1.557              1.127
 Vibration     3          0.817              1.342              0.770

 Optimization completed.
    -- Stationary point found.
 Normal termination of Gaussian 09 at Tue Jul 19 16:40:45 2016.
