 Gaussian 09, Revision E.01,
 Gaussian 09:  EM64L-G09RevE.01 30-Nov-2015

 ---------------------------------------------
 #p b3lyp/6-311++G(3df,2p) freq symmetry=Loose
 ---------------------------------------------

 ---------
 b3lyp opt
 ---------
 Symbolic Z-matrix:
 Charge =  1 Multiplicity = 3

                         Standard orientation:
 ---------------------------------------------------------------------
 Center     Atomic      Atomic             Coordinates (Angstroms)
 Number     Number       Type             X           Y           Z
 ---------------------------------------------------------------------
      1          6           0       -0.315820   -0.231965    0.321007
      2          1           0       -0.369551   -0.640201    1.371540
      3          6           0        1.032008   -0.038014    0.018414
      4          6           0       -1.563252    0.607360   -0.005265
      5          6           0       -1.548039   -0.654569   -0.386324
      6          1           0       -1.903653    1.632458   -0.007972
      7          6           0        2.228080    0.111340   -0.125603
      8          1           0        3.275343    0.242836   -0.296943
 ---------------------------------------------------------------------

 SCF Done:  E(UB3LYP) =  -191.786896379     A.U. after   22 cycles

 The electronic state is 3-A.
 Alpha  occ. eigenvalues --  -10.50173 -10.49908 -10.49473 -10.43513 -10.42802
 Alpha  occ. eigenvalues --   -1.17978  -1.02019  -0.92061  -0.82910  -0.76816
 Alpha  occ. eigenvalues --   -0.73719  -0.70213  -0.65056  -0.56239  -0.55356
 Alpha  occ. eigenvalues --   -0.52325  -0.48977
 Alpha virt. eigenvalues --   -0.27653  -0.21662  -0.21325  -0.15365  -0.13561
 Alpha virt. eigenvalues --   -0.12052  -0.10836  -0.10273  -0.08449  -0.08042
 Alpha virt. eigenvalues --   -0.06952  -0.05738  -0.05317  -0.04629  -0.03785

  Beta  occ. eigenvalues --  -10.49484 -10.48823 -10.48538 -10.42953 -10.42719
  Beta  occ. eigenvalues --   -1.15633  -1.00572  -0.89864  -0.81250  -0.74903
  Beta  occ. eigenvalues --   -0.71954  -0.66298  -0.62951  -0.51866  -0.51081
  Beta virt. eigenvalues --   -0.43555  -0.37749  -0.23466  -0.19893  -0.19786
  Beta virt. eigenvalues --   -0.14724  -0.13118  -0.11757  -0.10415  -0.09941
  Beta virt. eigenvalues --   -0.07910  -0.07492  -0.05965  -0.04976  -0.04614

 Mulliken charges and spin densities:
               1          2
     1  C    0.057889   0.070273
     2  H    0.263491   0.163782
     3  C   -0.040129   0.125417
     4  C    0.108442   0.398520
     5  C   -0.123988   0.946078
     6  H    0.317607  -0.002457
     7  C    0.056217   0.309303
     8  H    0.360471  -0.010916
 Sum of Mulliken charges =   1.00000   2.00000

 Dipole moment (field-independent basis, Debye):
    X=             -0.0093    Y=              1.3860    Z=              0.8847  Tot=              1.6443
 Quadrupole moment (field-independent basis, Debye-Ang):
   XX=             -6.3215   YY=            -23.6533   ZZ=            -24.8275
   XY=             -2.3272   XZ=             -1.6072   YZ=             -1.2611

  Exact polarizability: 126.713   1.106  40.405   0.496   1.340  34.531
 Approx polarizability: 284.187  14.576  67.952   7.728   5.369  54.134

                      1                      2                      3
                      A                      A                      A
 Frequencies --    181.5748               208.4323               442.0617
 Red. masses --      3.4605                 4.6398                 3.1534
 Frc consts  --      0.0672                 0.1188                 0.3631
 IR Inten    --      7.8285                12.1716                16.6221

                      4                      5                      6
                      A                      A                      A
 Frequencies --    523.5576               646.3368               716.1285
 Red. masses --      6.5795                 1.4364                 5.1930
 Frc consts  --      1.0626                 0.3536                 1.5691
 IR Inten    --      5.4251                32.1001                17.4176

                      7                      8                      9
                      A                      A                      A
 Frequencies --    720.9768               744.3342               778.9636
 Red. masses --      1.3212                 1.3617                 2.9337
 Frc consts  --      0.4046                 0.4445                 1.0488
 IR Inten    --     29.7067                28.3985                24.2636

                     10                     11                     12
                      A                      A                      A
 Frequencies --    812.6089               924.3164               971.6178
 Red. masses --      1.7025                 1.2666                 1.1413
 Frc consts  --      0.6624                 0.6376                 0.6348
 IR Inten    --     19.6687               106.2263               425.2011

                     13                     14                     15
                      A                      A                      A
 Frequencies --   1185.8126              1470.9073              2091.5388
 Red. masses --      9.7240                 5.6115                 6.2357
 Frc consts  --      8.0561                 7.1531                16.0719
 IR Inten    --     63.0515               364.0346               719.2805

                     16                     17                     18
                      A                      A                      A
 Frequencies --   2670.0134              3245.6507              3394.1277
 Red. masses --      1.0695                 1.1127                 1.1545
 Frc consts  --      4.4923                 6.9061                 7.8360
 IR Inten    --     92.7708                86.3823                66.4936

 - Thermochemistry -
 -------------------
 Temperature   298.150 Kelvin.  Pressure   1.00000 Atm.
 Atom     1 has atomic number  6 and mass  12.00000

 Molecular mass:    63.02348 amu.
 Principal axes and moments of inertia in atomic units:
                           1         2         3
     Eigenvalues --    66.62302 540.43846 570.82080
           X            0.99983  -0.01646  -0.00855
           Y            0.01544   0.99402  -0.10807
           Z            0.01028   0.10792   0.99411
 This molecule is an asymmetric top.
 Rotational symmetry number  1.
 Rotational temperatures (Kelvin)      1.30006     0.16027     0.15174
 Rotational constants (GHZ):          27.08885     3.33940     3.16166
 Zero-point vibrational energy     129968.0 (Joules/Mol)
                                   31.06311 (Kcal/Mol)
 Warning -- explicit consideration of   4 degrees of freedom as
           vibrations may cause significant error
 Vibrational temperatures:    261.25   299.89   636.03   753.28   929.93
          (Kelvin)           1030.35  1037.32  1070.93  1120.75  1169.16
                             1329.88  1397.94  1706.12  2116.30  3009.25
                             3841.55  4669.76  4883.39

 Zero-point correction=                           0.049502 (Hartree/Particle)
 Thermal correction to Energy=                    0.054667
 Thermal correction to Enthalpy=                  0.055611
 Thermal correction to Gibbs Free Energy=         0.021038
 Sum of electronic and zero-point Energies=           -191.737394
 Sum of electronic and thermal Energies=              -191.732229
 Sum of electronic and thermal Enthalpies=            -191.731285
 Sum of electronic and thermal Free Energies=         -191.765859

                     E (Thermal)             CV                S
                      KCal/Mol        Cal/Mol-Kelvin    Cal/Mol-Kelvin
 Total                   34.304             18.001             72.766
 Electronic               0.000              0.000              2.183
 Translational            0.889              2.981             38.342
 Rotational               0.889              2.981             24.534
 Vibrational             32.527             12.039              7.707
 Vibration     1          0.630              1.865              2.312
 Vibration     2          0.642              1.828              2.057
 Vibration     3          0.802              1.378              0.820
 Vibration     4          0.879              1.198              0.602

 Optimization completed.
    -- Stationary point found.
 Normal termination of Gaussian 09 at Sun Jun 19 11:21:52 2016.
