 Gaussian 09, Revision E.01,
 Gaussian 09:  EM64L-G09RevE.01 30-Nov-2015

 ---------------------------------------------
 #p b3lyp/6-311++G(3df,2p) freq symmetry=Loose
 ---------------------------------------------

 ---------
 b3lyp opt
 ---------
 Symbolic Z-matrix:
 Charge =  2 Multiplicity = 4

                         Standard orientation:
 ---------------------------------------------------------------------
 Center     Atomic      Atomic             Coordinates (Angstroms)
 Number     Number       Type             X           Y           Z
 ---------------------------------------------------------------------
      1          6           0        1.823889    0.661358    0.000037
      2          6           0        1.830436   -0.655919   -0.000294
      3          6           0        0.540154   -0.001712    0.000221
      4          6           0       -0.778140   -0.016002    0.000532
      5          6           0       -2.144788   -0.014869    0.000927
      6          1           0       -2.581145   -0.473225   -0.916204
      7          1           0       -2.583716   -0.434969    0.934184
      8          1           0       -2.464446    1.071055   -0.026513
 ---------------------------------------------------------------------

 SCF Done:  E(UB3LYP) =  -191.188924657     A.U. after   14 cycles

 The electronic state is 4-A.
 Alpha  occ. eigenvalues --  -10.80075 -10.79966 -10.79265 -10.77442 -10.64733
 Alpha  occ. eigenvalues --   -1.46152  -1.31459  -1.20554  -1.02002  -0.98459
 Alpha  occ. eigenvalues --   -0.94625  -0.93319  -0.89128  -0.88267  -0.84759
 Alpha  occ. eigenvalues --   -0.78859  -0.74882
 Alpha virt. eigenvalues --   -0.59272  -0.51345  -0.46916  -0.34469  -0.32172
 Alpha virt. eigenvalues --   -0.30183  -0.27805  -0.26712  -0.26355  -0.24400
 Alpha virt. eigenvalues --   -0.23943  -0.23055  -0.21374  -0.21047  -0.20441

  Beta  occ. eigenvalues --  -10.78124 -10.77933 -10.77843 -10.77109 -10.64696
  Beta  occ. eigenvalues --   -1.43617  -1.28312  -1.18647  -0.95747  -0.95477
  Beta  occ. eigenvalues --   -0.92510  -0.89527  -0.86779  -0.85494
  Beta virt. eigenvalues --   -0.65287  -0.65085  -0.63776  -0.53643  -0.45314
  Beta virt. eigenvalues --   -0.42548  -0.33773  -0.29831  -0.28142  -0.26446
  Beta virt. eigenvalues --   -0.26200  -0.25530  -0.23167  -0.23071  -0.22074

 Mulliken charges and spin densities:
               1          2
     1  C    0.298290   1.099285
     2  C    0.305263   1.101544
     3  C    0.289926   0.005510
     4  C    0.320642   0.575214
     5  C   -0.064877   0.049820
     6  H    0.281372   0.064029
     7  H    0.280791   0.065156
     8  H    0.288593   0.039441
 Sum of Mulliken charges =   2.00000   3.00000

 Dipole moment (field-independent basis, Debye):
    X=             -1.4704    Y=              0.2313    Z=             -0.0143  Tot=              1.4885
 Quadrupole moment (field-independent basis, Debye-Ang):
   XX=             13.2524   YY=            -19.2946   ZZ=            -22.2994
   XY=             -0.5761   XZ=              0.0358   YZ=             -0.0026

  Exact polarizability:  93.494  -0.673  33.858   0.045   0.000  27.700
 Approx polarizability: 167.247  -2.151  62.362   0.138  -0.003  40.746

                      1                      2                      3
                      A                      A                      A
 Frequencies --     40.2123               186.2280               205.2172
 Red. masses --      1.2933                 4.0746                 3.6040
 Frc consts  --      0.0012                 0.0833                 0.0894
 IR Inten    --      7.2458                 5.1691                 4.9385

                      4                      5                      6
                      A                      A                      A
 Frequencies --    436.4344               436.7149               670.2408
 Red. masses --      6.0959                 2.6188                 5.4543
 Frc consts  --      0.6841                 0.2943                 1.4436
 IR Inten    --      0.6179                 4.6404                 6.9769

                      7                      8                      9
                      A                      A                      A
 Frequencies --    752.0839               848.2005               859.4493
 Red. masses --      3.8226                 1.4715                 3.7699
 Frc consts  --      1.2739                 0.6238                 1.6407
 IR Inten    --      3.2537                35.8398                96.0156

                     10                     11                     12
                      A                      A                      A
 Frequencies --   1144.3843              1152.2345              1215.5951
 Red. masses --      1.4571                 1.0745                 2.1707
 Frc consts  --      1.1243                 0.8405                 1.8898
 IR Inten    --     61.8605                40.3955                63.7036

                     13                     14                     15
                      A                      A                      A
 Frequencies --   1298.6799              1583.1502              1822.8191
 Red. masses --      1.2562                10.9328                11.6428
 Frc consts  --      1.2483                16.1446                22.7927
 IR Inten    --     90.1353                77.0625               334.0797

                     16                     17                     18
                      A                      A                      A
 Frequencies --   2702.4031              2822.1047              2870.8023
 Red. masses --      1.0661                 1.0488                 1.0974
 Frc consts  --      4.5871                 4.9216                 5.3288
 IR Inten    --    543.1033               546.4028               171.8408

 - Thermochemistry -
 -------------------
 Temperature   298.150 Kelvin.  Pressure   1.00000 Atm.
 Atom     1 has atomic number  6 and mass  12.00000

 Molecular mass:    63.02348 amu.
 Principal axes and moments of inertia in atomic units:
                           1         2         3
     Eigenvalues --    48.97700 594.49092 631.13884
           X            1.00000  -0.00204   0.00011
           Y            0.00204   1.00000  -0.00012
           Z           -0.00011   0.00012   1.00000
 This molecule is an asymmetric top.
 Rotational symmetry number  1.
 Rotational temperatures (Kelvin)      1.76846     0.14569     0.13723
 Rotational constants (GHZ):          36.84875     3.03578     2.85950
 Zero-point vibrational energy     125888.7 (Joules/Mol)
                                   30.08813 (Kcal/Mol)
 Warning -- explicit consideration of   5 degrees of freedom as
           vibrations may cause significant error
 Vibrational temperatures:     57.86   267.94   295.26   627.93   628.33
          (Kelvin)            964.33  1082.08  1220.37  1236.55  1646.51
                             1657.81  1748.97  1868.51  2277.80  2622.63
                             3888.15  4060.37  4130.44

 Zero-point correction=                           0.047948 (Hartree/Particle)
 Thermal correction to Energy=                    0.053743
 Thermal correction to Enthalpy=                  0.054687
 Thermal correction to Gibbs Free Energy=         0.017673
 Sum of electronic and zero-point Energies=           -191.140976
 Sum of electronic and thermal Energies=              -191.135182
 Sum of electronic and thermal Enthalpies=            -191.134238
 Sum of electronic and thermal Free Energies=         -191.171252

                     E (Thermal)             CV                S
                      KCal/Mol        Cal/Mol-Kelvin    Cal/Mol-Kelvin
 Total                   33.724             18.074             77.902
 Electronic               0.000              0.000              2.755
 Translational            0.889              2.981             38.342
 Rotational               0.889              2.981             24.422
 Vibrational             31.947             12.112             12.383
 Vibration     1          0.594              1.981              5.249
 Vibration     2          0.632              1.859              2.265
 Vibration     3          0.640              1.832              2.086
 Vibration     4          0.797              1.391              0.838
 Vibration     5          0.797              1.390              0.837

 Normal termination of Gaussian 09 at Sun Jun 19 12:35:31 2016.
