 Gaussian 09, Revision E.01,
 Gaussian 09:  EM64L-G09RevE.01 30-Nov-2015

 ---------------------------------------------
 #p b3lyp/6-311++G(3df,2p) freq symmetry=Loose
 ---------------------------------------------

 ---------
 b3lyp opt
 ---------
 Symbolic Z-matrix:
 Charge =  3 Multiplicity = 1

                         Standard orientation:
 ---------------------------------------------------------------------
 Center     Atomic      Atomic             Coordinates (Angstroms)
 Number     Number       Type             X           Y           Z
 ---------------------------------------------------------------------
      1          6           0       -0.886188    0.018000    0.371874
      2          1           0       -1.156523    0.001169    1.481964
      3          6           0        0.732147    0.071345   -0.011627
      4          6           0       -1.839840   -0.902201   -0.351500
      5          6           0        1.873566   -0.520503   -0.022576
      6          1           0        2.863569   -1.050789   -0.031450
      7          6           0       -0.134244    1.138967   -0.152585
      8          1           0       -0.179697    2.215972   -0.452039
 ---------------------------------------------------------------------

 SCF Done:  E(RB3LYP) =  -190.371375956     A.U. after   15 cycles

 The electronic state is 1-A.
 Alpha  occ. eigenvalues --  -11.11463 -11.05349 -11.03081 -10.98522 -10.97075
 Alpha  occ. eigenvalues --   -1.64979  -1.50214  -1.44196  -1.26064  -1.25028
 Alpha  occ. eigenvalues --   -1.22102  -1.15828  -1.08261  -1.07158  -1.01928
 Alpha virt. eigenvalues --   -0.89328  -0.86623  -0.84473  -0.80320  -0.66168
 Alpha virt. eigenvalues --   -0.58933  -0.53247  -0.51938  -0.49208  -0.48722
 Alpha virt. eigenvalues --   -0.47477  -0.46327  -0.42453  -0.41953  -0.39629

 Mulliken charges:
               1
     1  C    0.012281
     2  H    0.336975
     3  C    0.341058
     4  C    0.467644
     5  C    0.664162
     6  H    0.508574
     7  C    0.235885
     8  H    0.433421
 Sum of Mulliken charges =   3.00000

 Dipole moment (field-independent basis, Debye):
    X=              1.5190    Y=             -0.4729    Z=              0.3183  Tot=              1.6224
 Quadrupole moment (field-independent basis, Debye-Ang):
   XX=             17.8889   YY=             -6.2335   ZZ=            -17.7187
   XY=             -4.1909   XZ=             -1.4855   YZ=             -1.3665

  Exact polarizability:  70.204  -1.149  39.052  -0.114   0.395  27.294
 Approx polarizability: 183.053 -10.425  73.290   0.792   2.481  44.141

                      1                      2                      3
                      A                      A                      A
 Frequencies --    135.7674               231.5426               319.5843
 Red. masses --      5.0812                 2.9729                 5.5590
 Frc consts  --      0.0552                 0.0939                 0.3345
 IR Inten    --      4.6377                41.1229                33.4068

                      4                      5                      6
                      A                      A                      A
 Frequencies --    337.1308               363.0270               691.9644
 Red. masses --      3.2755                 8.2315                 1.3291
 Frc consts  --      0.2193                 0.6392                 0.3749
 IR Inten    --     23.3960                15.0951                55.8305

                      7                      8                      9
                      A                      A                      A
 Frequencies --    783.9502               809.0165               901.6107
 Red. masses --      1.9447                 1.5323                 1.5690
 Frc consts  --      0.7042                 0.5909                 0.7515
 IR Inten    --     99.7613                26.2095                50.9017

                     10                     11                     12
                      A                      A                      A
 Frequencies --    942.0700               980.5976              1035.2531
 Red. masses --      1.4744                 1.5442                 1.8690
 Frc consts  --      0.7709                 0.8749                 1.1802
 IR Inten    --     80.7305                34.1367                34.2081

                     13                     14                     15
                      A                      A                      A
 Frequencies --   1064.0002              1192.8971              1796.9028
 Red. masses --      1.9524                 4.2878                 5.4985
 Frc consts  --      1.3023                 3.5949                10.4603
 IR Inten    --     91.5067               491.7795              1069.8429

                     16                     17                     18
                      A                      A                      A
 Frequencies --   2586.9672              2881.5112              2886.7522
 Red. masses --      1.0770                 1.1189                 1.1808
 Frc consts  --      4.2466                 5.4739                 5.7977
 IR Inten    --    486.3583               290.3469               558.9777

 - Thermochemistry -
 -------------------
 Temperature   298.150 Kelvin.  Pressure   1.00000 Atm.
 Atom     1 has atomic number  6 and mass  12.00000

 Molecular mass:    63.02348 amu.
 Principal axes and moments of inertia in atomic units:
                           1         2         3
     Eigenvalues --   144.07100 408.47475 511.26906
           X            0.99882  -0.04602  -0.01537
           Y            0.04554   0.99849  -0.03067
           Z            0.01676   0.02993   0.99941
 This molecule is an asymmetric top.
 Rotational symmetry number  1.
 Rotational temperatures (Kelvin)      0.60119     0.21204     0.16941
 Rotational constants (GHZ):          12.52675     4.41824     3.52992
 Zero-point vibrational energy     119270.9 (Joules/Mol)
                                   28.50644 (Kcal/Mol)
 Warning -- explicit consideration of   5 degrees of freedom as
           vibrations may cause significant error
 Vibrational temperatures:    195.34   333.14   459.81   485.06   522.31
          (Kelvin)            995.58  1127.93  1163.99  1297.22  1355.43
                             1410.86  1489.50  1530.86  1716.31  2585.34
                             3722.06  4145.85  4153.39

 Zero-point correction=                           0.045428 (Hartree/Particle)
 Thermal correction to Energy=                    0.051055
 Thermal correction to Enthalpy=                  0.051999
 Thermal correction to Gibbs Free Energy=         0.017350
 Sum of electronic and zero-point Energies=           -190.325948
 Sum of electronic and thermal Energies=              -190.320321
 Sum of electronic and thermal Enthalpies=            -190.319377
 Sum of electronic and thermal Free Energies=         -190.354026

                     E (Thermal)             CV                S
                      KCal/Mol        Cal/Mol-Kelvin    Cal/Mol-Kelvin
 Total                   32.037             18.847             72.925
 Electronic               0.000              0.000              0.000
 Translational            0.889              2.981             38.342
 Rotational               0.889              2.981             24.912
 Vibrational             30.260             12.886              9.671
 Vibration     1          0.614              1.918              2.863
 Vibration     2          0.653              1.793              1.867
 Vibration     3          0.706              1.636              1.312
 Vibration     4          0.718              1.601              1.226
 Vibration     5          0.737              1.548              1.109

 Optimization completed.
    -- Stationary point found.
 Normal termination of Gaussian 09 at Sun Jun 19 13:50:41 2016.
