 Gaussian 09, Revision E.01,
 Gaussian 09:  EM64L-G09RevE.01 30-Nov-2015

 ---------------------------------------------
 #p b3lyp/6-311++G(3df,2p) freq symmetry=Loose
 ---------------------------------------------

 ---------
 b3lyp opt
 ---------
 Symbolic Z-matrix:
 Charge =  3 Multiplicity = 3

                         Standard orientation:
 ---------------------------------------------------------------------
 Center     Atomic      Atomic             Coordinates (Angstroms)
 Number     Number       Type             X           Y           Z
 ---------------------------------------------------------------------
      1          6           0       -1.745488   -0.662901   -0.145222
      2          6           0       -1.744998    0.663569   -0.144358
      3          6           0       -0.509462   -0.000071    0.084741
      4          6           0        0.861191   -0.000900    0.434778
      5          1           0        2.621055    0.963874   -0.552335
      6          1           0        1.088929   -0.003040    1.556874
      7          6           0        2.083884    0.000520   -0.304237
      8          1           0        2.619255   -0.962133   -0.558751
 ---------------------------------------------------------------------

 SCF Done:  E(UB3LYP) =  -190.395711791     A.U. after   16 cycles

 The electronic state is 3-A.
 Alpha  occ. eigenvalues --  -11.03382 -11.03287 -11.02881 -11.02794 -11.02611
 Alpha  occ. eigenvalues --   -1.68900  -1.56040  -1.41331  -1.25490  -1.24056
 Alpha  occ. eigenvalues --   -1.19157  -1.17400  -1.16502  -1.09728  -1.05746
 Alpha  occ. eigenvalues --   -1.01169
 Alpha virt. eigenvalues --   -0.85132  -0.85040  -0.77003  -0.71710  -0.55884
 Alpha virt. eigenvalues --   -0.52114  -0.51581  -0.49499  -0.46476  -0.45302
 Alpha virt. eigenvalues --   -0.42624  -0.42501  -0.42492  -0.39374  -0.38660

  Beta  occ. eigenvalues --  -11.02818 -11.02621 -11.02326 -11.01408 -11.01332
  Beta  occ. eigenvalues --   -1.67373  -1.54751  -1.40379  -1.24761  -1.18835
  Beta  occ. eigenvalues --   -1.18818  -1.15084  -1.14956  -1.08382
  Beta virt. eigenvalues --   -0.88023  -0.86179  -0.84661  -0.78024  -0.76089
  Beta virt. eigenvalues --   -0.67207  -0.54383  -0.51852  -0.48956  -0.48291
  Beta virt. eigenvalues --   -0.45660  -0.44570  -0.42508  -0.42208  -0.42012

 Mulliken charges and spin densities:
               1          2
     1  C    0.489242   0.928418
     2  C    0.489300   0.928313
     3  C    0.623647  -0.250595
     4  C    0.200278   0.350709
     5  H    0.367331   0.019179
     6  H    0.329475  -0.008611
     7  C    0.133394   0.013395
     8  H    0.367333   0.019191
 Sum of Mulliken charges =   3.00000   2.00000

 Dipole moment (field-independent basis, Debye):
    X=              4.8129    Y=             -0.0005    Z=             -0.0083  Tot=              4.8129
 Quadrupole moment (field-independent basis, Debye-Ang):
   XX=             29.7438   YY=            -15.5316   ZZ=            -15.7742
   XY=              0.0041   XZ=             -0.9481   YZ=             -0.0004

  Exact polarizability:  80.096  -0.003  29.761   1.800  -0.000  27.335
 Approx polarizability: 138.389  -0.018  54.053   8.135  -0.004  43.484

                      1                      2                      3
                      A                      A                      A
 Frequencies --    166.0151               236.5302               281.3581
 Red. masses --      3.5905                 4.2207                 1.8296
 Frc consts  --      0.0583                 0.1391                 0.0853
 IR Inten    --      1.2226                 9.2292                11.2602

                      4                      5                      6
                      A                      A                      A
 Frequencies --    449.8892               515.1800               676.8063
 Red. masses --      1.8837                 4.8641                 1.1069
 Frc consts  --      0.2246                 0.7606                 0.2987
 IR Inten    --      0.0022                 5.1735                27.2530

                      7                      8                      9
                      A                      A                      A
 Frequencies --    700.3925               808.3908               966.4940
 Red. masses --      5.2716                 6.1969                 1.8943
 Frc consts  --      1.5236                 2.3860                 1.0425
 IR Inten    --      6.5155                63.1101                 0.0054

                     10                     11                     12
                      A                      A                      A
 Frequencies --    973.8958              1139.1194              1246.4642
 Red. masses --      1.5594                 1.8165                 2.0006
 Frc consts  --      0.8714                 1.3888                 1.8314
 IR Inten    --     20.2381                14.4472               210.0079

                     13                     14                     15
                      A                      A                      A
 Frequencies --   1272.4369              1370.3158              1693.0866
 Red. masses --      1.4493                 3.6125                11.7918
 Frc consts  --      1.3825                 3.9967                19.9154
 IR Inten    --     31.7113                37.9333                16.5779

                     16                     17                     18
                      A                      A                      A
 Frequencies --   2591.3213              2686.4392              2775.2240
 Red. masses --      1.0774                 1.0425                 1.1184
 Frc consts  --      4.2626                 4.4328                 5.0750
 IR Inten    --    485.7636               947.4652               364.3174

 - Thermochemistry -
 -------------------
 Temperature   298.150 Kelvin.  Pressure   1.00000 Atm.
 Atom     1 has atomic number  6 and mass  12.00000

 Molecular mass:    63.02348 amu.
 Principal axes and moments of inertia in atomic units:
                           1         2         3
     Eigenvalues --    69.44769 566.59832 585.90179
           X            0.99997   0.00002  -0.00804
           Y           -0.00002   1.00000   0.00008
           Z            0.00804  -0.00008   0.99997
 This molecule is an asymmetric top.
 Rotational symmetry number  1.
 Rotational temperatures (Kelvin)      1.24718     0.15287     0.14783
 Rotational constants (GHZ):          25.98706     3.18522     3.08028
 Zero-point vibrational energy     122912.5 (Joules/Mol)
                                   29.37678 (Kcal/Mol)
 Warning -- explicit consideration of   5 degrees of freedom as
           vibrations may cause significant error
 Vibrational temperatures:    238.86   340.31   404.81   647.29   741.23
          (Kelvin)            973.77  1007.71  1163.09  1390.57  1401.22
                             1638.94  1793.38  1830.75  1971.58  2435.97
                             3728.33  3865.18  3992.92

 Zero-point correction=                           0.046815 (Hartree/Particle)
 Thermal correction to Energy=                    0.052142
 Thermal correction to Enthalpy=                  0.053086
 Thermal correction to Gibbs Free Energy=         0.018107
 Sum of electronic and zero-point Energies=           -190.348897
 Sum of electronic and thermal Energies=              -190.343570
 Sum of electronic and thermal Enthalpies=            -190.342626
 Sum of electronic and thermal Free Energies=         -190.377605

                     E (Thermal)             CV                S
                      KCal/Mol        Cal/Mol-Kelvin    Cal/Mol-Kelvin
 Total                   32.720             17.822             73.620
 Electronic               0.000              0.000              2.183
 Translational            0.889              2.981             38.342
 Rotational               0.889              2.981             24.648
 Vibrational             30.942             11.860              8.447
 Vibration     1          0.624              1.884              2.480
 Vibration     2          0.655              1.785              1.829
 Vibration     3          0.681              1.708              1.525
 Vibration     4          0.809              1.361              0.796
 Vibration     5          0.870              1.216              0.621

 Normal termination of Gaussian 09 at Tue Jun 21 20:32:52 2016.
