 Gaussian 09, Revision E.01,
 Gaussian 09:  EM64L-G09RevE.01 30-Nov-2015

 ---------------------------------------------
 #p b3lyp/6-311++G(3df,2p) freq symmetry=Loose
 ---------------------------------------------

 ---------
 b3lyp opt
 ---------
 Symbolic Z-matrix:
 Charge =  0 Multiplicity = 4

                         Standard orientation:
 ---------------------------------------------------------------------
 Center     Atomic      Atomic             Coordinates (Angstroms)
 Number     Number       Type             X           Y           Z
 ---------------------------------------------------------------------
      1          6           0        1.590344   -0.217389   -0.000522
      2          6           0       -0.543750   -0.145940    0.000373
      3          6           0        0.514199   -1.097598    0.000199
      4          6           0       -1.876758   -0.137896   -0.000152
      5          1           0       -2.626699    0.639671   -0.000838
      6          6           0        0.551638    0.965028    0.000156
      7          1           0        0.606796    1.581349    0.896823
      8          1           0        0.605864    1.581745   -0.896307
 ---------------------------------------------------------------------

 SCF Done:  E(UB3LYP) =  -192.024406647     A.U. after   20 cycles

 The electronic state is 4-A.
 Alpha  occ. eigenvalues --  -10.24995 -10.24191 -10.22831 -10.22760 -10.22104
 Alpha  occ. eigenvalues --   -0.91858  -0.78399  -0.68798  -0.60276  -0.50537
 Alpha  occ. eigenvalues --   -0.48264  -0.47544  -0.43338  -0.35664  -0.30444
 Alpha  occ. eigenvalues --   -0.28854  -0.25816  -0.24129
 Alpha virt. eigenvalues --   -0.07759  -0.01231   0.00825   0.00946   0.03680
 Alpha virt. eigenvalues --    0.04043   0.04934   0.05678   0.06264   0.07602
 Alpha virt. eigenvalues --    0.08656   0.08986   0.10661   0.11344   0.11613

  Beta  occ. eigenvalues --  -10.24214 -10.23032 -10.22207 -10.21150 -10.21080
  Beta  occ. eigenvalues --   -0.89477  -0.74568  -0.66624  -0.57299  -0.48375
  Beta  occ. eigenvalues --   -0.47113  -0.44086  -0.40188  -0.32510  -0.23128
  Beta virt. eigenvalues --   -0.17949  -0.13325  -0.10765  -0.03441  -0.01022
  Beta virt. eigenvalues --    0.01083   0.02056   0.04666   0.05235   0.05454
  Beta virt. eigenvalues --    0.06300   0.06634   0.09117   0.09278   0.09553

 Mulliken charges and spin densities:
               1          2
     1  C   -0.376230   0.557959
     2  C    0.574594  -0.200097
     3  C   -0.023701   1.085563
     4  C   -0.380471   1.326004
     5  H    0.204049   0.008651
     6  C   -0.331583   0.189468
     7  H    0.166677   0.016198
     8  H    0.166665   0.016255
 Sum of Mulliken charges =  -0.00000   3.00000

 Dipole moment (field-independent basis, Debye):
    X=             -2.8571    Y=              2.4642    Z=              0.0006  Tot=              3.7730
 Quadrupole moment (field-independent basis, Debye-Ang):
   XX=            -33.8024   YY=            -30.3541   ZZ=            -29.3208
   XY=             -0.5104   XZ=              0.0060   YZ=             -0.0002

  Exact polarizability: 107.863   4.848  60.712   0.001  -0.005  36.526
 Approx polarizability: 199.349   9.776  91.290  -0.031  -0.010  64.003

                      1                      2                      3
                      A                      A                      A
 Frequencies --    164.5077               307.3756               487.7750
 Red. masses --      3.8698                 2.5528                 8.2443
 Frc consts  --      0.0617                 0.1421                 1.1557
 IR Inten    --      1.2627                70.3700                92.3587

                      4                      5                      6
                      A                      A                      A
 Frequencies --    531.5549               634.3696               758.0354
 Red. masses --      2.4638                 4.7292                 1.2577
 Frc consts  --      0.4102                 1.1213                 0.4258
 IR Inten    --      1.0715               161.2652                 4.2637

                      7                      8                      9
                      A                      A                      A
 Frequencies --    801.1009               905.4562               909.5370
 Red. masses --      2.2661                 1.8968                 4.4217
 Frc consts  --      0.8569                 0.9163                 2.1552
 IR Inten    --      3.4283                 0.0140                 6.6049

                     10                     11                     12
                      A                      A                      A
 Frequencies --   1053.9042              1067.6125              1152.6341
 Red. masses --      1.1014                 3.8657                 1.3951
 Frc consts  --      0.7208                 2.5960                 1.0920
 IR Inten    --      0.0405                34.6255                 6.3159

                     13                     14                     15
                      A                      A                      A
 Frequencies --   1309.6526              1435.1330              1465.4633
 Red. masses --      9.0972                 1.1128                 8.4925
 Frc consts  --      9.1933                 1.3503                10.7458
 IR Inten    --     23.4804                 1.9593                45.4032

                     16                     17                     18
                      A                      A                      A
 Frequencies --   3045.4329              3111.2064              3217.0034
 Red. masses --      1.0525                 1.1104                 1.0964
 Frc consts  --      5.7516                 6.3326                 6.6855
 IR Inten    --     14.7932                 3.4420                 2.5411

 - Thermochemistry -
 -------------------
 Temperature   298.150 Kelvin.  Pressure   1.00000 Atm.
 Atom     1 has atomic number  6 and mass  12.00000

 Molecular mass:    63.02348 amu.
 Principal axes and moments of inertia in atomic units:
                           1         2         3
     Eigenvalues --   119.74119 329.51420 437.68339
           X            1.00000   0.00258   0.00004
           Y           -0.00258   1.00000  -0.00000
           Z           -0.00004   0.00000   1.00000
 This molecule is an asymmetric top.
 Rotational symmetry number  1.
 Rotational temperatures (Kelvin)      0.72334     0.26285     0.19789
 Rotational constants (GHZ):          15.07202     5.47698     4.12339
 Zero-point vibrational energy     133729.1 (Joules/Mol)
                                   31.96201 (Kcal/Mol)
 Warning -- explicit consideration of   4 degrees of freedom as
           vibrations may cause significant error
 Vibrational temperatures:    236.69   442.24   701.80   764.79   912.72
          (Kelvin)           1090.64  1152.60  1302.75  1308.62  1516.33
                             1536.05  1658.38  1884.30  2064.83  2108.47
                             4381.69  4476.33  4628.54

 Zero-point correction=                           0.050935 (Hartree/Particle)
 Thermal correction to Energy=                    0.055750
 Thermal correction to Enthalpy=                  0.056694
 Thermal correction to Gibbs Free Energy=         0.022497
 Sum of electronic and zero-point Energies=           -191.973472
 Sum of electronic and thermal Energies=              -191.968657
 Sum of electronic and thermal Enthalpies=            -191.967713
 Sum of electronic and thermal Free Energies=         -192.001909

                     E (Thermal)             CV                S
                      KCal/Mol        Cal/Mol-Kelvin    Cal/Mol-Kelvin
 Total                   34.983             16.466             71.972
 Electronic               0.000              0.000              2.755
 Translational            0.889              2.981             38.342
 Rotational               0.889              2.981             24.361
 Vibrational             33.206             10.505              6.515
 Vibration     1          0.623              1.886              2.497
 Vibration     2          0.697              1.660              1.376
 Vibration     3          0.844              1.277              0.689
 Vibration     4          0.887              1.180              0.584

 Optimization completed.
    -- Stationary point found.
 Normal termination of Gaussian 09 at Sun Jun 19 08:59:33 2016.
