 Gaussian 09, Revision E.01,
 Gaussian 09:  EM64L-G09RevE.01 30-Nov-2015

 ---------------------------------------------
 #p b3lyp/6-311++G(3df,2p) freq symmetry=Loose
 ---------------------------------------------

 ---------
 b3lyp opt
 ---------
 Symbolic Z-matrix:
 Charge =  2 Multiplicity = 4

                         Standard orientation:
 ---------------------------------------------------------------------
 Center     Atomic      Atomic             Coordinates (Angstroms)
 Number     Number       Type             X           Y           Z
 ---------------------------------------------------------------------
      1          6           0       -0.563242    0.207308    0.800069
      2          6           0        0.748803    0.496063    0.001872
      3          1           0        1.092950    1.538960    0.006343
      4          6           0        1.670233   -0.567925   -0.002533
      5          1           0        2.752822   -0.718891   -0.002169
      6          6           0       -0.563716    0.214196   -0.798261
      7          6           0       -1.511533   -0.359514   -0.001328
      8          1           0       -2.529050   -0.760844   -0.003090
 ---------------------------------------------------------------------

 SCF Done:  E(UB3LYP) =  -191.162896705     A.U. after   15 cycles

 The electronic state is 4-A.
 Alpha  occ. eigenvalues --  -10.82820 -10.82807 -10.75123 -10.75019 -10.73320
 Alpha  occ. eigenvalues --   -1.50283  -1.28692  -1.14118  -1.09509  -1.02520
 Alpha  occ. eigenvalues --   -0.98205  -0.94564  -0.93053  -0.87609  -0.85974
 Alpha  occ. eigenvalues --   -0.73885  -0.73395
 Alpha virt. eigenvalues --   -0.59847  -0.53183  -0.51722  -0.34619  -0.32625
 Alpha virt. eigenvalues --   -0.31165  -0.28875  -0.28059  -0.27271  -0.26432
 Alpha virt. eigenvalues --   -0.23823  -0.23334  -0.23181  -0.20650  -0.18961

  Beta  occ. eigenvalues --  -10.81100 -10.81092 -10.75161 -10.75027 -10.70964
  Beta  occ. eigenvalues --   -1.48739  -1.26494  -1.10577  -1.03852  -1.00937
  Beta  occ. eigenvalues --   -0.96577  -0.92477  -0.90944  -0.85305
  Beta virt. eigenvalues --   -0.69207  -0.59562  -0.55029  -0.53888  -0.50300
  Beta virt. eigenvalues --   -0.46602  -0.33922  -0.30977  -0.30248  -0.28167
  Beta virt. eigenvalues --   -0.27236  -0.25933  -0.25061  -0.23192  -0.22522

 Mulliken charges and spin densities:
               1          2
     1  C    0.548962   0.884525
     2  C    0.044328  -0.229624
     3  H    0.299352   0.038898
     4  C   -0.123544   1.515820
     5  H    0.326566   0.007677
     6  C    0.549253   0.884670
     7  C   -0.029830  -0.120224
     8  H    0.384913   0.018259
 Sum of Mulliken charges =   2.00000   3.00000

 Dipole moment (field-independent basis, Debye):
    X=             -0.0642    Y=             -0.2396    Z=             -0.0005  Tot=              0.2480
 Quadrupole moment (field-independent basis, Debye-Ang):
   XX=              3.5167   YY=            -19.5076   ZZ=            -20.5780
   XY=              1.4297   XZ=              0.0083   YZ=              0.0029

  Exact polarizability:  66.912  -4.601  33.022  -0.020   0.004  31.897
 Approx polarizability: 108.973 -10.853  53.894  -0.046  -0.059  66.985

                      1                      2                      3
                      A                      A                      A
 Frequencies --    243.0505               317.0648               419.0758
 Red. masses --      3.4981                 2.9378                 5.2625
 Frc consts  --      0.1218                 0.1740                 0.5445
 IR Inten    --     28.3110                 4.7711                 3.0900

                      4                      5                      6
                      A                      A                      A
 Frequencies --    543.6526               688.1684               702.3060
 Red. masses --      3.6528                 2.2859                 1.4840
 Frc consts  --      0.6361                 0.6378                 0.4313
 IR Inten    --      9.6089                40.8843                24.3360

                      7                      8                      9
                      A                      A                      A
 Frequencies --    831.0022               854.0471               990.4763
 Red. masses --      2.0979                 1.5805                 4.2520
 Frc consts  --      0.8536                 0.6792                 2.4577
 IR Inten    --     68.8084                66.6975                24.3582

                     10                     11                     12
                      A                      A                      A
 Frequencies --    999.2116              1011.5883              1144.0149
 Red. masses --      1.6372                 1.2513                 3.0965
 Frc consts  --      0.9631                 0.7544                 2.3877
 IR Inten    --     15.7700                26.8914                37.5343

                     13                     14                     15
                      A                      A                      A
 Frequencies --   1177.6245              1334.6071              1534.0229
 Red. masses --      2.3679                 1.7696                 6.7058
 Frc consts  --      1.9348                 1.8571                 9.2975
 IR Inten    --      7.9128                28.5012                 6.5981

                     16                     17                     18
                      A                      A                      A
 Frequencies --   3021.8306              3111.9937              3121.3251
 Red. masses --      1.0882                 1.1182                 1.0998
 Frc consts  --      5.8544                 6.3801                 6.3133
 IR Inten    --    131.6057               457.9131               159.4002

 - Thermochemistry -
 -------------------
 Temperature   298.150 Kelvin.  Pressure   1.00000 Atm.
 Atom     1 has atomic number  6 and mass  12.00000

 Molecular mass:    63.02348 amu.
 Principal axes and moments of inertia in atomic units:
                           1         2         3
     Eigenvalues --   100.79814 369.36820 378.04636
           X            0.99978  -0.00001   0.02082
           Y           -0.02082  -0.00566   0.99977
           Z           -0.00011   0.99998   0.00566
 This molecule is an asymmetric top.
 Rotational symmetry number  1.
 Rotational temperatures (Kelvin)      0.85928     0.23449     0.22911
 Rotational constants (GHZ):          17.90451     4.88602     4.77386
 Zero-point vibrational energy     131858.8 (Joules/Mol)
                                   31.51500 (Kcal/Mol)
 Warning -- explicit consideration of   4 degrees of freedom as
           vibrations may cause significant error
 Vibrational temperatures:    349.69   456.18   602.96   782.19   990.12
          (Kelvin)           1010.46  1195.63  1228.78  1425.07  1437.64
                             1455.45  1645.98  1694.34  1920.20  2207.11
                             4347.73  4477.46  4490.88

 Zero-point correction=                           0.050222 (Hartree/Particle)
 Thermal correction to Energy=                    0.054962
 Thermal correction to Enthalpy=                  0.055907
 Thermal correction to Gibbs Free Energy=         0.022078
 Sum of electronic and zero-point Energies=           -191.112674
 Sum of electronic and thermal Energies=              -191.107934
 Sum of electronic and thermal Enthalpies=            -191.106990
 Sum of electronic and thermal Free Energies=         -191.140819

                     E (Thermal)             CV                S
                      KCal/Mol        Cal/Mol-Kelvin    Cal/Mol-Kelvin
 Total                   34.489             16.597             71.199
 Electronic               0.000              0.000              2.755
 Translational            0.889              2.981             38.342
 Rotational               0.889              2.981             24.158
 Vibrational             32.712             10.635              5.945
 Vibration     1          0.659              1.774              1.780
 Vibration     2          0.704              1.641              1.325
 Vibration     3          0.782              1.429              0.895
 Vibration     4          0.899              1.154              0.557

 Optimization completed.
    -- Stationary point found.
 Normal termination of Gaussian 09 at Sun Jun 19 13:06:41 2016.
