 Gaussian 09, Revision E.01,
 Gaussian 09:  EM64L-G09RevE.01 30-Nov-2015

 ---------------------------------------------
 #p b3lyp/6-311++G(3df,2p) freq symmetry=Loose
 ---------------------------------------------

 ---------
 b3lyp opt
 ---------
 Symbolic Z-matrix:
 Charge =  2 Multiplicity = 4

                         Standard orientation:
 ---------------------------------------------------------------------
 Center     Atomic      Atomic             Coordinates (Angstroms)
 Number     Number       Type             X           Y           Z
 ---------------------------------------------------------------------
      1          6           0        0.498548    0.072689    0.000225
      2          6           0       -0.848391   -0.106234    0.000028
      3          6           0       -2.091852   -0.216451   -0.000179
      4          1           0       -3.172338   -0.346141   -0.000183
      5          6           0        0.767109    1.558988    0.000073
      6          6           0        1.553480   -0.843020   -0.000171
      7          1           0        2.599762   -0.544475    0.000283
      8          1           0        1.299211   -1.905217    0.000041
 ---------------------------------------------------------------------

 SCF Done:  E(UB3LYP) =  -191.169490042     A.U. after   28 cycles

 The electronic state is 4-A.
 Alpha  occ. eigenvalues --  -10.83873 -10.74891 -10.74060 -10.71606 -10.68528
 Alpha  occ. eigenvalues --   -1.35263  -1.26548  -1.16972  -1.10065  -0.99407
 Alpha  occ. eigenvalues --   -0.94645  -0.90202  -0.87883  -0.84525  -0.78918
 Alpha  occ. eigenvalues --   -0.78554  -0.70911
 Alpha virt. eigenvalues --   -0.63142  -0.53491  -0.45658  -0.37456  -0.32512
 Alpha virt. eigenvalues --   -0.30207  -0.28028  -0.27156  -0.25991  -0.24857
 Alpha virt. eigenvalues --   -0.23857  -0.23615  -0.21064  -0.20329  -0.19453

  Beta  occ. eigenvalues --  -10.81023 -10.74515 -10.72994 -10.71407 -10.67674
  Beta  occ. eigenvalues --   -1.32959  -1.22847  -1.13333  -1.06760  -0.98248
  Beta  occ. eigenvalues --   -0.92988  -0.86330  -0.83012  -0.77999
  Beta virt. eigenvalues --   -0.67884  -0.65741  -0.59289  -0.54449  -0.47102
  Beta virt. eigenvalues --   -0.43618  -0.33453  -0.31890  -0.29144  -0.27082
  Beta virt. eigenvalues --   -0.25955  -0.25073  -0.23999  -0.23208  -0.23007

 Mulliken charges and spin densities:
               1          2
     1  C    0.980051   0.259139
     2  C   -0.143308   0.291767
     3  C    0.400156   0.502969
     4  H    0.433054  -0.017239
     5  C    0.208389   1.494053
     6  C   -0.444354   0.473597
     7  H    0.289544  -0.012353
     8  H    0.276468   0.008069
 Sum of Mulliken charges =   2.00000   3.00000

 Dipole moment (field-independent basis, Debye):
    X=             -0.9628    Y=              0.3305    Z=             -0.0001  Tot=              1.0180
 Quadrupole moment (field-independent basis, Debye-Ang):
   XX=             11.1235   YY=            -12.6488   ZZ=            -25.1574
   XY=              0.9497   XZ=              0.0021   YZ=              0.0005

  Exact polarizability:  92.050   9.263  58.201   0.001   0.002  25.420
 Approx polarizability: 194.197  35.101 107.771   0.006   0.009  35.860

                      1                      2                      3
                      A                      A                      A
 Frequencies --    135.3724               243.5815               267.3049
 Red. masses --      5.7556                 3.0600                 3.8104
 Frc consts  --      0.0621                 0.1070                 0.1604
 IR Inten    --      4.0721                19.9151                 0.9591

                      4                      5                      6
                      A                      A                      A
 Frequencies --    467.6923               495.5017               582.7898
 Red. masses --      4.7828                 1.8889                 1.8830
 Frc consts  --      0.6164                 0.2732                 0.3768
 IR Inten    --      4.3917                 0.9490                 3.7510

                      7                      8                      9
                      A                      A                      A
 Frequencies --    671.9412               742.1859               763.0666
 Red. masses --      6.0258                 1.3862                 1.2873
 Frc consts  --      1.6030                 0.4499                 0.4416
 IR Inten    --     47.8108                16.0916                32.5026

                     10                     11                     12
                      A                      A                      A
 Frequencies --    881.3721               990.0007              1078.1486
 Red. masses --      2.6219                 1.3295                 2.1372
 Frc consts  --      1.2000                 0.7678                 1.4637
 IR Inten    --      1.3219                28.9457                31.1048

                     13                     14                     15
                      A                      A                      A
 Frequencies --   1336.9522              1423.2963              1974.5144
 Red. masses --      7.9246                 1.1155                 6.5238
 Frc consts  --      8.3456                 1.3314                14.9854
 IR Inten    --     31.0431                35.8870               736.5078

                     16                     17                     18
                      A                      A                      A
 Frequencies --   3055.1632              3186.4977              3210.9086
 Red. masses --      1.0531                 1.1213                 1.1557
 Frc consts  --      5.7917                 6.7084                 7.0202
 IR Inten    --    212.4005               106.5058               290.3083

 - Thermochemistry -
 -------------------
 Temperature   298.150 Kelvin.  Pressure   1.00000 Atm.
 Atom     1 has atomic number  6 and mass  12.00000

 Molecular mass:    63.02348 amu.
 Principal axes and moments of inertia in atomic units:
                           1         2         3
     Eigenvalues --   151.08303 424.60228 575.68530
           X            0.99933  -0.03662  -0.00004
           Y            0.03662   0.99933  -0.00008
           Z            0.00004   0.00008   1.00000
 This molecule is an asymmetric top.
 Rotational symmetry number  1.
 Rotational temperatures (Kelvin)      0.57329     0.20399     0.15045
 Rotational constants (GHZ):          11.94536     4.25043     3.13494
 Zero-point vibrational energy     128636.2 (Joules/Mol)
                                   30.74478 (Kcal/Mol)
 Warning -- explicit consideration of   6 degrees of freedom as
           vibrations may cause significant error
 Vibrational temperatures:    194.77   350.46   384.59   672.90   712.92
          (Kelvin)            838.50   966.77  1067.84  1097.88  1268.10
                             1424.39  1551.21  1923.57  2047.80  2840.88
                             4395.69  4584.65  4619.78

 Zero-point correction=                           0.048995 (Hartree/Particle)
 Thermal correction to Energy=                    0.054553
 Thermal correction to Enthalpy=                  0.055497
 Thermal correction to Gibbs Free Energy=         0.019595
 Sum of electronic and zero-point Energies=           -191.120495
 Sum of electronic and thermal Energies=              -191.114937
 Sum of electronic and thermal Enthalpies=            -191.113993
 Sum of electronic and thermal Free Energies=         -191.149896

                     E (Thermal)             CV                S
                      KCal/Mol        Cal/Mol-Kelvin    Cal/Mol-Kelvin
 Total                   34.232             18.840             75.563
 Electronic               0.000              0.000              2.755
 Translational            0.889              2.981             38.342
 Rotational               0.889              2.981             25.116
 Vibrational             32.455             12.879              9.350
 Vibration     1          0.613              1.918              2.868
 Vibration     2          0.659              1.773              1.777
 Vibration     3          0.672              1.733              1.614
 Vibration     4          0.825              1.322              0.744
 Vibration     5          0.851              1.260              0.669
 Vibration     6          0.940              1.069              0.480

 Optimization completed.
    -- Stationary point found.
 Normal termination of Gaussian 09 at Sun Jun 19 12:21:51 2016.
