 Gaussian 09, Revision E.01,
 Gaussian 09:  EM64L-G09RevE.01 30-Nov-2015

 ---------------------------------------------
 #p b3lyp/6-311++G(3df,2p) freq symmetry=Loose
 ---------------------------------------------

 ---------
 b3lyp opt
 ---------
 Symbolic Z-matrix:
 Charge =  2 Multiplicity = 2

                         Standard orientation:
 ---------------------------------------------------------------------
 Center     Atomic      Atomic             Coordinates (Angstroms)
 Number     Number       Type             X           Y           Z
 ---------------------------------------------------------------------
      1          1           0        0.918285   -0.241203    1.901466
      2          6           0       -0.246380    0.515812    0.000000
      3          6           0        0.420915   -1.455375   -0.000000
      4          6           0        0.420915   -0.443218   -0.947292
      5          1           0        0.918285   -0.241203   -1.901466
      6          6           0        0.420915   -0.443218    0.947292
      7          6           0       -1.037425    1.511113    0.000000
      8          1           0       -1.710219    2.371724    0.000000
 ---------------------------------------------------------------------

 SCF Done:  E(UB3LYP) =  -191.258891673     A.U. after   16 cycles

 The electronic state is 2-A'.
 Alpha  occ. eigenvalues --  -10.77303 -10.76621 -10.76620 -10.74464 -10.72853
 Alpha  occ. eigenvalues --   -1.44785  -1.27434  -1.14595  -1.08777  -1.01805
 Alpha  occ. eigenvalues --   -1.00436  -0.92906  -0.88553  -0.88233  -0.80096
 Alpha  occ. eigenvalues --   -0.75015
 Alpha virt. eigenvalues --   -0.62310  -0.56455  -0.52186  -0.43016  -0.32851
 Alpha virt. eigenvalues --   -0.31294  -0.29771  -0.29358  -0.29115  -0.26869
 Alpha virt. eigenvalues --   -0.25761  -0.23038  -0.22080  -0.21432  -0.21371

  Beta  occ. eigenvalues --  -10.77164 -10.76547 -10.76547 -10.72752 -10.72635
  Beta  occ. eigenvalues --   -1.43790  -1.26876  -1.14267  -1.06996  -1.01583
  Beta  occ. eigenvalues --   -0.99540  -0.92049  -0.88036  -0.87881  -0.76496
  Beta virt. eigenvalues --   -0.62153  -0.59554  -0.56447  -0.49552  -0.42348
  Beta virt. eigenvalues --   -0.32643  -0.31060  -0.29496  -0.28991  -0.28762
  Beta virt. eigenvalues --   -0.26809  -0.25694  -0.22775  -0.22025  -0.21067

 Mulliken charges and spin densities:
               1          2
     1  H    0.339960   0.003338
     2  C    0.075720   0.041171
     3  C    0.156651   1.001571
     4  C    0.130386  -0.032240
     5  H    0.339960   0.003338
     6  C    0.130386  -0.032240
     7  C    0.371273   0.016464
     8  H    0.455665  -0.001403
 Sum of Mulliken charges =   2.00000   1.00000

 Dipole moment (field-independent basis, Debye):
    X=             -0.6373    Y=              2.5239    Z=              0.0000  Tot=              2.6032
 Quadrupole moment (field-independent basis, Debye-Ang):
   XX=            -15.2537   YY=             -7.5195   ZZ=            -11.3537
   XY=            -11.6461   XZ=              0.0000   YZ=              0.0000

  Exact polarizability:  34.097 -14.452  52.285   0.000  -0.000  39.073
 Approx polarizability:  55.599 -30.964  99.684  -0.000  -0.000  70.405

                      1                      2                      3
                     A'                     A"                     A'
 Frequencies --    221.9802               229.5521               368.8620
 Red. masses --      3.7312                 2.5938                 3.1742
 Frc consts  --      0.1083                 0.0805                 0.2545
 IR Inten    --      3.5743                13.7707                23.2460

                      4                      5                      6
                     A'                     A'                     A"
 Frequencies --    586.4755               681.4612               686.3904
 Red. masses --      1.2263                 8.1910                 5.9879
 Frc consts  --      0.2485                 2.2411                 1.6621
 IR Inten    --     65.1822                 4.6520                20.0917

                      7                      8                      9
                     A'                     A'                     A"
 Frequencies --    874.4726               929.7086               979.7279
 Red. masses --      2.6040                 1.6395                 1.3642
 Frc consts  --      1.1732                 0.8350                 0.7715
 IR Inten    --      3.7578                17.5579                 0.1237

                     10                     11                     12
                     A"                     A"                     A'
 Frequencies --   1019.8473              1115.3266              1133.2062
 Red. masses --      1.5700                 1.1978                 1.5243
 Frc consts  --      0.9621                 0.8779                 1.1533
 IR Inten    --      0.4997                 0.8981                17.5902

                     13                     14                     15
                     A"                     A'                     A'
 Frequencies --   1316.0884              1406.6954              1760.3196
 Red. masses --      6.8666                 6.4524                 6.2907
 Frc consts  --      7.0075                 7.5227                11.4851
 IR Inten    --     60.8097                 1.3835               184.3591

                     16                     17                     18
                     A"                     A'                     A'
 Frequencies --   3101.8663              3103.7285              3163.7283
 Red. masses --      1.1036                 1.1045                 1.1379
 Frc consts  --      6.2560                 6.2686                 6.7105
 IR Inten    --    284.5515                69.9929               363.4871

 - Thermochemistry -
 -------------------
 Temperature   298.150 Kelvin.  Pressure   1.00000 Atm.
 Atom     1 has atomic number  1 and mass   1.00783

 Molecular mass:    63.02348 amu.
 Principal axes and moments of inertia in atomic units:
                           1         2         3
     Eigenvalues --   114.82107 325.41562 416.46217
           X           -0.50263   0.00000   0.86450
           Y            0.86450  -0.00000   0.50263
           Z            0.00000   1.00000  -0.00000
 This molecule is an asymmetric top.
 Rotational symmetry number  1.
 Rotational temperatures (Kelvin)      0.75434     0.26616     0.20798
 Rotational constants (GHZ):          15.71786     5.54596     4.33351
 Zero-point vibrational energy     135653.2 (Joules/Mol)
                                   32.42188 (Kcal/Mol)
 Warning -- explicit consideration of   4 degrees of freedom as
           vibrations may cause significant error
 Vibrational temperatures:    319.38   330.27   530.71   843.81   980.47
          (Kelvin)            987.56  1258.17  1337.64  1409.61  1467.33
                             1604.70  1630.43  1893.56  2023.92  2532.70
                             4462.89  4465.57  4551.89

 Zero-point correction=                           0.051668 (Hartree/Particle)
 Thermal correction to Energy=                    0.056536
 Thermal correction to Enthalpy=                  0.057481
 Thermal correction to Gibbs Free Energy=         0.023918
 Sum of electronic and zero-point Energies=           -191.207224
 Sum of electronic and thermal Energies=              -191.202355
 Sum of electronic and thermal Enthalpies=            -191.201411
 Sum of electronic and thermal Free Energies=         -191.234973

                     E (Thermal)             CV                S
                      KCal/Mol        Cal/Mol-Kelvin    Cal/Mol-Kelvin
 Total                   35.477             16.429             70.638
 Electronic               0.000              0.000              1.377
 Translational            0.889              2.981             38.342
 Rotational               0.889              2.981             24.257
 Vibrational             33.700             10.467              6.661
 Vibration     1          0.648              1.808              1.943
 Vibration     2          0.652              1.796              1.882
 Vibration     3          0.741              1.536              1.085
 Vibration     4          0.944              1.061              0.474

 Optimization completed.
    -- Stationary point found.
 Normal termination of Gaussian 09 at Tue Jul 19 12:32:15 2016.
