 Gaussian 09, Revision E.01,
 Gaussian 09:  EM64L-G09RevE.01 30-Nov-2015

 ---------------------------------------------
 #p b3lyp/6-311++G(3df,2p) freq symmetry=Loose
 ---------------------------------------------

 ---------
 b3lyp opt
 ---------
 Symbolic Z-matrix:
 Charge =  3 Multiplicity = 3

                         Standard orientation:
 ---------------------------------------------------------------------
 Center     Atomic      Atomic             Coordinates (Angstroms)
 Number     Number       Type             X           Y           Z
 ---------------------------------------------------------------------
      1          6           0        0.000000    0.000000   -2.591460
      2          1           0        0.964768   -0.000000   -3.160926
      3          1           0       -0.964768    0.000000   -3.160926
      4          6           0        0.000000    0.000000   -1.184845
      5          6           0       -0.000000    0.000000    0.098074
      6          6           0       -0.000000    0.000000    1.399476
      7          6           0       -0.000000    0.000000    2.696485
      8          1           0       -0.000000    0.000000    3.815462
 ---------------------------------------------------------------------

 SCF Done:  E(UB3LYP) =  -190.535473631     A.U. after   16 cycles

 The electronic state is 3-A2.
 Alpha  occ. eigenvalues --  -11.02021 -11.00038 -10.97715 -10.97517 -10.97466
 Alpha  occ. eigenvalues --   -1.55853  -1.51851  -1.43817  -1.36051  -1.20720
 Alpha  occ. eigenvalues --   -1.17997  -1.13481  -1.09102  -1.07337  -1.02145
 Alpha  occ. eigenvalues --   -0.98235
 Alpha virt. eigenvalues --   -0.84542  -0.77248  -0.72214  -0.58021  -0.55268
 Alpha virt. eigenvalues --   -0.54268  -0.50565  -0.47872  -0.45262  -0.41867
 Alpha virt. eigenvalues --   -0.41183  -0.39620  -0.38273  -0.37842  -0.35907

  Beta  occ. eigenvalues --  -11.00631 -10.98734 -10.97703 -10.97280 -10.97147
  Beta  occ. eigenvalues --   -1.53599  -1.47766  -1.41914  -1.34598  -1.19295
  Beta  occ. eigenvalues --   -1.16884  -1.11521  -1.05689  -1.04094
  Beta virt. eigenvalues --   -0.91328  -0.87673  -0.81377  -0.71990  -0.67512
  Beta virt. eigenvalues --   -0.54869  -0.52325  -0.51893  -0.49446  -0.46826
  Beta virt. eigenvalues --   -0.44543  -0.41095  -0.40900  -0.39243  -0.37651

 Mulliken charges and spin densities:
               1          2
     1  C   -0.187693   0.081901
     2  H    0.374556   0.019672
     3  H    0.374556   0.019672
     4  C    1.070581   0.351304
     5  C   -0.191689   0.529847
     6  C    0.471900   0.517145
     7  C    0.588125   0.504978
     8  H    0.499663  -0.024520
 Sum of Mulliken charges =   3.00000   2.00000

 Dipole moment (field-independent basis, Debye):
    X=              0.0000    Y=              0.0000    Z=              0.1073  Tot=              0.1073
 Quadrupole moment (field-independent basis, Debye-Ang):
   XX=            -19.4964   YY=            -21.3296   ZZ=             72.8162
   XY=             -0.0000   XZ=             -0.0000   YZ=             -0.0000

  Exact polarizability:  23.799   0.000  21.170  -0.000   0.000 126.548
 Approx polarizability:  32.522  -0.000  29.973   0.000  -0.000 276.359

                      1                      2                      3
                     B2                     B1                     B2
 Frequencies --    144.8010               149.8928               316.4271
 Red. masses --      3.8920                 3.5451                 4.6508
 Frc consts  --      0.0481                 0.0469                 0.2744
 IR Inten    --     35.3168                35.2125                 0.2438

                      4                      5                      6
                     B1                     B1                     B2
 Frequencies --    333.5838               540.1566               574.9010
 Red. masses --      3.4090                 5.0459                 6.4583
 Frc consts  --      0.2235                 0.8674                 1.2576
 IR Inten    --      0.2736                 5.2570                 6.7826

                      7                      8                      9
                     A1                     B1                     B2
 Frequencies --    691.1101               700.0893               798.3210
 Red. masses --      5.8724                 1.4013                 1.4322
 Frc consts  --      1.6526                 0.4046                 0.5378
 IR Inten    --     12.4587                22.1839                11.9264

                     10                     11                     12
                     B1                     B2                     A1
 Frequencies --    916.8006              1092.8053              1126.0384
 Red. masses --      1.4971                 1.3607                 8.0755
 Frc consts  --      0.7414                 0.9574                 6.0329
 IR Inten    --      2.7577                20.9891               448.4840

                     13                     14                     15
                     A1                     A1                     A1
 Frequencies --   1304.6579              1694.6174              1990.0370
 Red. masses --      1.0917                 8.2966                 8.5927
 Frc consts  --      1.0948                14.0376                20.0495
 IR Inten    --    118.8563               193.0806               181.3873

                     16                     17                     18
                     A1                     B1                     A1
 Frequencies --   2776.4276              2881.2970              2915.0530
 Red. masses --      1.0440                 1.1224                 1.1607
 Frc consts  --      4.7416                 5.4898                 5.8112
 IR Inten    --   1006.3588               334.3255               648.5990

 - Thermochemistry -
 -------------------
 Temperature   298.150 Kelvin.  Pressure   1.00000 Atm.
 Atom     1 has atomic number  6 and mass  12.00000

 Molecular mass:    63.02348 amu.
 Principal axes and moments of inertia in atomic units:
                           1         2         3
     Eigenvalues --     6.69974 867.83046 874.53020
           X            0.00000   1.00000   0.00000
           Y            0.00000  -0.00000   1.00000
           Z            1.00000   0.00000  -0.00000
 This molecule is an asymmetric top.
 Rotational symmetry number  2.
 Rotational temperatures (Kelvin)     12.92793     0.09980     0.09904
 Rotational constants (GHZ):         269.37463     2.07960     2.06367
 Zero-point vibrational energy     125291.0 (Joules/Mol)
                                   29.94526 (Kcal/Mol)
 Warning -- explicit consideration of   6 degrees of freedom as
           vibrations may cause significant error
 Vibrational temperatures:    208.34   215.66   455.27   479.95   777.16
          (Kelvin)            827.15   994.35  1007.27  1148.60  1319.07
                             1572.30  1620.12  1877.11  2438.17  2863.22
                             3994.66  4145.54  4194.11

 Zero-point correction=                           0.047721 (Hartree/Particle)
 Thermal correction to Energy=                    0.053420
 Thermal correction to Enthalpy=                  0.054364
 Thermal correction to Gibbs Free Energy=         0.019939
 Sum of electronic and zero-point Energies=           -190.487753
 Sum of electronic and thermal Energies=              -190.482054
 Sum of electronic and thermal Enthalpies=            -190.481110
 Sum of electronic and thermal Free Energies=         -190.515534

                     E (Thermal)             CV                S
                      KCal/Mol        Cal/Mol-Kelvin    Cal/Mol-Kelvin
 Total                   33.522             18.818             72.453
 Electronic               0.000              0.000              2.183
 Translational            0.889              2.981             38.342
 Rotational               0.889              2.981             21.768
 Vibrational             31.744             12.856             10.160
 Vibration     1          0.616              1.908              2.739
 Vibration     2          0.618              1.903              2.674
 Vibration     3          0.703              1.642              1.329
 Vibration     4          0.715              1.608              1.243
 Vibration     5          0.895              1.161              0.565
 Vibration     6          0.931              1.086              0.495

 Optimization completed.
    -- Stationary point found.
 Normal termination of Gaussian 09 at Tue Jul 19 17:44:28 2016.
