 Gaussian 09, Revision E.01,
 Gaussian 09:  EM64L-G09RevE.01 30-Nov-2015

 ---------------------------------------------
 #p b3lyp/6-311++G(3df,2p) freq symmetry=Loose
 ---------------------------------------------

 ---------
 b3lyp opt
 ---------
 Symbolic Z-matrix:
 Charge =  1 Multiplicity = 3

                         Standard orientation:
 ---------------------------------------------------------------------
 Center     Atomic      Atomic             Coordinates (Angstroms)
 Number     Number       Type             X           Y           Z
 ---------------------------------------------------------------------
      1          6           0        2.131206   -0.823224    0.000000
      2          1           0        3.007344   -1.436585    0.000000
      3          6           0        1.132895   -0.131059    0.000000
      4          6           0       -1.321256    0.186049    0.000000
      5          6           0       -2.472215   -0.218295    0.000000
      6          6           0        0.000000    0.741534    0.000000
      7          1           0        0.084442    1.453275    0.850650
      8          1           0        0.084442    1.453275   -0.850650
 ---------------------------------------------------------------------

 SCF Done:  E(UB3LYP) =  -191.771198537     A.U. after   23 cycles

 The electronic state is 3-A".
 Alpha  occ. eigenvalues --  -10.49539 -10.47150 -10.45476 -10.43946 -10.43665
 Alpha  occ. eigenvalues --   -1.07914  -1.01836  -0.97151  -0.79605  -0.75015
 Alpha  occ. eigenvalues --   -0.72451  -0.70434  -0.63109  -0.55966  -0.54300
 Alpha  occ. eigenvalues --   -0.52888  -0.52642
 Alpha virt. eigenvalues --   -0.22072  -0.22020  -0.20648  -0.19066  -0.16417
 Alpha virt. eigenvalues --   -0.11643  -0.10971  -0.10534  -0.09890  -0.07836
 Alpha virt. eigenvalues --   -0.06651  -0.06497  -0.05457  -0.05439  -0.04389

  Beta  occ. eigenvalues --  -10.47047 -10.46805 -10.45232 -10.43757 -10.43208
  Beta  occ. eigenvalues --   -1.07065  -0.99157  -0.94586  -0.78921  -0.74200
  Beta  occ. eigenvalues --   -0.71942  -0.68694  -0.52528  -0.51963  -0.50206
  Beta virt. eigenvalues --   -0.44145  -0.40441  -0.20553  -0.18953  -0.17627
  Beta virt. eigenvalues --   -0.16945  -0.16065  -0.11480  -0.10330  -0.10138
  Beta virt. eigenvalues --   -0.09651  -0.07682  -0.06188  -0.05789  -0.05156

 Mulliken charges and spin densities:
               1          2
     1  C    0.501427   0.316190
     2  H    0.372628  -0.008650
     3  C   -0.098411   0.164938
     4  C    0.521964   0.050882
     5  C    0.131831   1.350573
     6  C   -0.953967  -0.011255
     7  H    0.262264   0.068661
     8  H    0.262264   0.068661
 Sum of Mulliken charges =   1.00000   2.00000

 Dipole moment (field-independent basis, Debye):
    X=              0.7366    Y=              0.5202    Z=             -0.0000  Tot=              0.9018
 Quadrupole moment (field-independent basis, Debye-Ang):
   XX=             -5.7986   YY=            -20.9331   ZZ=            -25.4535
   XY=             -4.3157   XZ=              0.0000   YZ=             -0.0000

  Exact polarizability: 157.394 -19.195  46.728  -0.000   0.000  32.872
 Approx polarizability: 391.778 -48.117  72.558   0.000   0.000  46.815

                      1                      2                      3
                     A'                     A"                     A'
 Frequencies --    130.5799               234.6309               277.9048
 Red. masses --      6.0840                 1.8795                 5.9911
 Frc consts  --      0.0611                 0.0610                 0.2726
 IR Inten    --      0.5343                24.7801                 6.8146

                      4                      5                      6
                     A"                     A'                     A"
 Frequencies --    325.8671               546.0234               638.8119
 Red. masses --      4.6617                 8.6737                 2.4517
 Frc consts  --      0.2917                 1.5236                 0.5895
 IR Inten    --      3.0656                 5.5006                 3.2604

                      7                      8                      9
                     A'                     A"                     A'
 Frequencies --    718.7310               749.7372               875.9611
 Red. masses --      1.2622                 1.3908                 7.6044
 Frc consts  --      0.3841                 0.4606                 3.4378
 IR Inten    --     37.5742                26.8594                 5.6385

                     10                     11                     12
                     A'                     A"                     A'
 Frequencies --   1030.0402              1103.5376              1226.0205
 Red. masses --      1.7871                 1.0844                 1.0631
 Frc consts  --      1.1171                 0.7780                 0.9415
 IR Inten    --     88.7886                 0.1048                87.8995

                     13                     14                     15
                     A'                     A'                     A'
 Frequencies --   1254.2584              2059.8707              2183.5397
 Red. masses --      2.1730                 8.2668                 7.8208
 Frc consts  --      2.0142                20.6666                21.9698
 IR Inten    --    286.7266              1787.5957                 4.7831

                     16                     17                     18
                     A"                     A'                     A'
 Frequencies --   2836.0953              2871.2163              3393.3805
 Red. masses --      1.0758                 1.0620                 1.1597
 Frc consts  --      5.0981                 5.1585                 7.8677
 IR Inten    --     76.2520               107.8074                79.6143

 - Thermochemistry -
 -------------------
 Temperature   298.150 Kelvin.  Pressure   1.00000 Atm.
 Atom     1 has atomic number  6 and mass  12.00000

 Molecular mass:    63.02348 amu.
 Principal axes and moments of inertia in atomic units:
                           1         2         3
     Eigenvalues --    71.83280 636.35517 697.77091
           X            0.98864   0.15029   0.00000
           Y           -0.15029   0.98864   0.00000
           Z           -0.00000   0.00000   1.00000
 This molecule is an asymmetric top.
 Rotational symmetry number  1.
 Rotational temperatures (Kelvin)      1.20577     0.13611     0.12413
 Rotational constants (GHZ):          25.12419     2.83606     2.58644
 Zero-point vibrational energy     134317.9 (Joules/Mol)
                                   32.10276 (Kcal/Mol)
 Warning -- explicit consideration of   5 degrees of freedom as
           vibrations may cause significant error
 Vibrational temperatures:    187.88   337.58   399.84   468.85   785.60
          (Kelvin)            919.11  1034.09  1078.70  1260.31  1482.00
                             1587.74  1763.97  1804.60  2963.69  3141.62
                             4080.50  4131.03  4882.31

 Zero-point correction=                           0.051159 (Hartree/Particle)
 Thermal correction to Energy=                    0.056692
 Thermal correction to Enthalpy=                  0.057637
 Thermal correction to Gibbs Free Energy=         0.022025
 Sum of electronic and zero-point Energies=           -191.720040
 Sum of electronic and thermal Energies=              -191.714506
 Sum of electronic and thermal Enthalpies=            -191.713562
 Sum of electronic and thermal Free Energies=         -191.749173

                     E (Thermal)             CV                S
                      KCal/Mol        Cal/Mol-Kelvin    Cal/Mol-Kelvin
 Total                   35.575             18.173             74.950
 Electronic               0.000              0.000              2.183
 Translational            0.889              2.981             38.342
 Rotational               0.889              2.981             24.970
 Vibrational             33.798             12.211              9.455
 Vibration     1          0.612              1.923              2.937
 Vibration     2          0.654              1.788              1.843
 Vibration     3          0.679              1.714              1.547
 Vibration     4          0.710              1.624              1.280
 Vibration     5          0.901              1.148              0.552

 Optimization completed.
    -- Stationary point found.
 Normal termination of Gaussian 09 at Sun Jun 19 10:20:47 2016.
