 Gaussian 09, Revision E.01,
 Gaussian 09:  EM64L-G09RevE.01 30-Nov-2015

 ---------------------------------------------
 #p b3lyp/6-311++G(3df,2p) freq symmetry=Loose
 ---------------------------------------------

 ---------
 b3lyp opt
 ---------
 Symbolic Z-matrix:
 Charge =  0 Multiplicity = 4

                         Standard orientation:
 ---------------------------------------------------------------------
 Center     Atomic      Atomic             Coordinates (Angstroms)
 Number     Number       Type             X           Y           Z
 ---------------------------------------------------------------------
      1          6           0       -0.305610    1.626766    0.642333
      2          6           0       -0.305610    1.626766   -0.642333
      3          6           0        0.373518    0.328180    0.000000
      4          1           0        1.459582    0.302014    0.000000
      5          6           0       -0.305610   -0.946124   -0.000000
      6          1           0       -1.393201   -0.911016   -0.000000
      7          6           0        0.311917   -2.118165   -0.000000
      8          1           0        1.321995   -2.495533    0.000000
 ---------------------------------------------------------------------

 SCF Done:  E(UB3LYP) =  -192.029306056     A.U. after   17 cycles

 The electronic state is 4-A".
 Alpha  occ. eigenvalues --  -10.25236 -10.24341 -10.24219 -10.22321 -10.20485
 Alpha  occ. eigenvalues --   -0.90829  -0.80714  -0.66000  -0.58695  -0.49728
 Alpha  occ. eigenvalues --   -0.48759  -0.45873  -0.41541  -0.34209  -0.33996
 Alpha  occ. eigenvalues --   -0.30634  -0.26583  -0.24416
 Alpha virt. eigenvalues --   -0.03711  -0.00369   0.00004   0.01121   0.02177
 Alpha virt. eigenvalues --    0.04125   0.04184   0.07111   0.07462   0.07743
 Alpha virt. eigenvalues --    0.08238   0.08846   0.10478   0.10838   0.10996

  Beta  occ. eigenvalues --  -10.24394 -10.22982 -10.22878 -10.20787 -10.20359
  Beta  occ. eigenvalues --   -0.88367  -0.78606  -0.62298  -0.57267  -0.48528
  Beta  occ. eigenvalues --   -0.43736  -0.42014  -0.39415  -0.30127  -0.28863
  Beta virt. eigenvalues --   -0.18634  -0.12604  -0.10390  -0.01625  -0.00133
  Beta virt. eigenvalues --    0.01278   0.02089   0.02566   0.04501   0.04640
  Beta virt. eigenvalues --    0.07609   0.08217   0.08613   0.09008   0.09693

 Mulliken charges and spin densities:
               1          2
     1  C   -0.120927   0.801725
     2  C   -0.120927   0.801725
     3  C    0.350474   0.239251
     4  H    0.202025  -0.018992
     5  C   -0.194471  -0.217885
     6  H    0.172169   0.043979
     7  C   -0.474209   1.328890
     8  H    0.185865   0.021307
 Sum of Mulliken charges =  -0.00000   3.00000

 Dipole moment (field-independent basis, Debye):
    X=              1.1503    Y=             -1.2342    Z=              0.0000  Tot=              1.6871
 Quadrupole moment (field-independent basis, Debye-Ang):
   XX=            -27.4293   YY=            -32.5162   ZZ=            -31.8490
   XY=             -0.7771   XZ=             -0.0000   YZ=              0.0000

  Exact polarizability:  58.260  -6.871  95.050   0.000   0.000  52.040
 Approx polarizability:  74.220 -18.655 139.994   0.000  -0.000  97.324

                      1                      2                      3
                     A"                     A"                     A'
 Frequencies --    158.2894               277.8157               292.5316
 Red. masses --      3.3881                 3.5855                 3.1215
 Frc consts  --      0.0500                 0.1630                 0.1574
 IR Inten    --      0.1486                 0.5524                 0.5982

                      4                      5                      6
                     A'                     A"                     A"
 Frequencies --    452.9099               521.4817               706.3267
 Red. masses --      4.3262                 9.1836                 1.5905
 Frc consts  --      0.5229                 1.4714                 0.4675
 IR Inten    --      1.8069                 1.9054                11.1095

                      7                      8                      9
                     A'                     A'                     A"
 Frequencies --    772.2599               887.6486               896.7714
 Red. masses --      2.4169                 2.3702                 1.4937
 Frc consts  --      0.8493                 1.1003                 0.7078
 IR Inten    --      6.8521                66.0189                 3.5822

                     10                     11                     12
                     A"                     A'                     A'
 Frequencies --    911.0433              1086.3514              1240.4232
 Red. masses --      1.1104                 5.2536                 1.1562
 Frc consts  --      0.5430                 3.6530                 1.0482
 IR Inten    --     62.9908                 6.8274                16.4855

                     13                     14                     15
                     A'                     A'                     A'
 Frequencies --   1341.7645              1519.9632              1716.6799
 Red. masses --      1.2301                 5.3514                11.4669
 Frc consts  --      1.3048                 7.2843                19.9101
 IR Inten    --     11.1228                17.6765               116.7644

                     16                     17                     18
                     A'                     A'                     A'
 Frequencies --   3097.2649              3105.0724              3234.6239
 Red. masses --      1.0835                 1.0853                 1.0987
 Frc consts  --      6.1242                 6.1650                 6.7728
 IR Inten    --      1.1250                 1.4289                 1.2444

 - Thermochemistry -
 -------------------
 Temperature   298.150 Kelvin.  Pressure   1.00000 Atm.
 Atom     1 has atomic number  6 and mass  12.00000

 Molecular mass:    63.02348 amu.
 Principal axes and moments of inertia in atomic units:
                           1         2         3
     Eigenvalues --    70.71191 530.22900 530.23992
           X           -0.12894   0.00000   0.99165
           Y            0.99165   0.00000   0.12894
           Z           -0.00000   1.00000  -0.00000
 This molecule is an asymmetric top.
 Rotational symmetry number  1.
 Rotational temperatures (Kelvin)      1.22488     0.16335     0.16335
 Rotational constants (GHZ):          25.52245     3.40370     3.40363
 Zero-point vibrational energy     132900.5 (Joules/Mol)
                                   31.76397 (Kcal/Mol)
 Warning -- explicit consideration of   5 degrees of freedom as
           vibrations may cause significant error
 Vibrational temperatures:    227.74   399.71   420.89   651.64   750.29
          (Kelvin)           1016.25  1111.11  1277.13  1290.25  1310.79
                             1563.02  1784.69  1930.50  2186.89  2469.92
                             4456.27  4467.50  4653.90

 Zero-point correction=                           0.050619 (Hartree/Particle)
 Thermal correction to Energy=                    0.055845
 Thermal correction to Enthalpy=                  0.056790
 Thermal correction to Gibbs Free Energy=         0.021792
 Sum of electronic and zero-point Energies=           -191.978687
 Sum of electronic and thermal Energies=              -191.973461
 Sum of electronic and thermal Enthalpies=            -191.972516
 Sum of electronic and thermal Free Energies=         -192.007514

                     E (Thermal)             CV                S
                      KCal/Mol        Cal/Mol-Kelvin    Cal/Mol-Kelvin
 Total                   35.044             17.541             73.658
 Electronic               0.000              0.000              2.755
 Translational            0.889              2.981             38.342
 Rotational               0.889              2.981             24.501
 Vibrational             33.266             11.579              8.061
 Vibration     1          0.621              1.893              2.570
 Vibration     2          0.679              1.715              1.547
 Vibration     3          0.688              1.688              1.459
 Vibration     4          0.811              1.354              0.787
 Vibration     5          0.876              1.202              0.607

 Optimization completed.
    -- Stationary point found.
 Normal termination of Gaussian 09 at Tue Jul 19 14:14:50 2016.
