 Gaussian 09, Revision E.01,
 Gaussian 09:  EM64L-G09RevE.01 30-Nov-2015

 ---------------------------------------------
 #p b3lyp/6-311++G(3df,2p) freq symmetry=Loose
 ---------------------------------------------

 ---------
 b3lyp opt
 ---------
 Symbolic Z-matrix:
 Charge =  2 Multiplicity = 2

                         Standard orientation:
 ---------------------------------------------------------------------
 Center     Atomic      Atomic             Coordinates (Angstroms)
 Number     Number       Type             X           Y           Z
 ---------------------------------------------------------------------
      1          6           0        0.000000    0.973038   -0.000000
      2          6           0       -1.216721    0.107023    0.000000
      3          1           0       -1.835943    0.174981    0.910259
      4          6           0       -0.261432   -1.178876    0.000000
      5          6           0        1.279102    0.833428   -0.000000
      6          1           0       -0.514016   -2.243165    0.000000
      7          6           0        0.896701   -0.419079   -0.000000
      8          1           0       -1.835943    0.174981   -0.910259
 ---------------------------------------------------------------------

 SCF Done:  E(UB3LYP) =  -191.227252917     A.U. after   17 cycles

 The electronic state is 2-A".
 Alpha  occ. eigenvalues --  -10.83325 -10.83109 -10.78650 -10.77756 -10.72830
 Alpha  occ. eigenvalues --   -1.51446  -1.31436  -1.21513  -1.06793  -1.04532
 Alpha  occ. eigenvalues --   -0.98675  -0.95506  -0.94483  -0.87905  -0.84624
 Alpha  occ. eigenvalues --   -0.78320
 Alpha virt. eigenvalues --   -0.65446  -0.57269  -0.54182  -0.45852  -0.36625
 Alpha virt. eigenvalues --   -0.34233  -0.32397  -0.29280  -0.28911  -0.27476
 Alpha virt. eigenvalues --   -0.25774  -0.25383  -0.24369  -0.21883  -0.21201

  Beta  occ. eigenvalues --  -10.82945 -10.82753 -10.78641 -10.76760 -10.72899
  Beta  occ. eigenvalues --   -1.50501  -1.30061  -1.19987  -1.06099  -1.03725
  Beta  occ. eigenvalues --   -0.96304  -0.94728  -0.94037  -0.87173  -0.84534
  Beta virt. eigenvalues --   -0.66690  -0.65019  -0.53442  -0.53374  -0.42941
  Beta virt. eigenvalues --   -0.36129  -0.33620  -0.31742  -0.29121  -0.28525
  Beta virt. eigenvalues --   -0.27415  -0.25499  -0.25244  -0.24092  -0.21178

 Mulliken charges and spin densities:
               1          2
     1  C    0.375301   0.324453
     2  C   -0.381284  -0.057389
     3  H    0.288582   0.001749
     4  C    0.200727   0.601136
     5  C    0.376773   0.046777
     6  H    0.358658  -0.013838
     7  C    0.492661   0.095363
     8  H    0.288582   0.001749
 Sum of Mulliken charges =   2.00000   1.00000

 Dipole moment (field-independent basis, Debye):
    X=             -1.2625    Y=             -1.0256    Z=              0.0000  Tot=              1.6266
 Quadrupole moment (field-independent basis, Debye-Ang):
   XX=            -10.0750   YY=            -10.8280   ZZ=            -22.2085
   XY=              1.6571   XZ=             -0.0000   YZ=              0.0000

  Exact polarizability:  48.408   6.911  43.552  -0.000   0.000  24.716
 Approx polarizability: 105.655  22.472  91.137   0.000  -0.000  36.998

                      1                      2                      3
                     A"                     A"                     A'
 Frequencies --    233.8756               401.3199               611.2005
 Red. masses --      2.1977                 4.5261                 7.2838
 Frc consts  --      0.0708                 0.4295                 1.6032
 IR Inten    --      0.0641                 2.4389                 9.7859

                      4                      5                      6
                     A"                     A'                     A'
 Frequencies --    622.7907               660.7841               740.9585
 Red. masses --      1.2803                 7.8396                 7.1405
 Frc consts  --      0.2926                 2.0168                 2.3098
 IR Inten    --     29.4070                 1.4203                 4.3144

                      7                      8                      9
                     A'                     A"                     A'
 Frequencies --    858.3104               884.2835              1052.9633
 Red. masses --      4.3884                 1.8611                 1.2100
 Frc consts  --      1.9048                 0.8574                 0.7904
 IR Inten    --      3.0287                 0.0367               112.2826

                     10                     11                     12
                     A"                     A'                     A'
 Frequencies --   1068.6338              1106.8263              1208.5211
 Red. masses --      1.1112                 3.0344                 1.7106
 Frc consts  --      0.7477                 2.1902                 1.4720
 IR Inten    --      0.4997                 7.2391                42.6840

                     13                     14                     15
                     A'                     A'                     A'
 Frequencies --   1339.3656              1644.2481              1744.6868
 Red. masses --      1.1077                 9.2991                10.2316
 Frc consts  --      1.1708                14.8124                18.3497
 IR Inten    --     64.4605                18.7875                20.7157

                     16                     17                     18
                     A'                     A"                     A'
 Frequencies --   2951.2809              3008.6327              3102.5451
 Red. masses --      1.0545                 1.1093                 1.1006
 Frc consts  --      5.4114                 5.9163                 6.2421
 IR Inten    --    234.0569               134.9737               284.0637

 - Thermochemistry -
 -------------------
 Temperature   298.150 Kelvin.  Pressure   1.00000 Atm.
 Atom     1 has atomic number  6 and mass  12.00000

 Molecular mass:    63.02348 amu.
 Principal axes and moments of inertia in atomic units:
                           1         2         3
     Eigenvalues --   138.29343 224.84747 351.21276
           X            0.85209  -0.52339   0.00000
           Y            0.52339   0.85209   0.00000
           Z            0.00000  -0.00000   1.00000
 This molecule is an asymmetric top.
 Rotational symmetry number  1.
 Rotational temperatures (Kelvin)      0.62630     0.38521     0.24661
 Rotational constants (GHZ):          13.05009     8.02651     5.13860
 Zero-point vibrational energy     139013.4 (Joules/Mol)
                                   33.22500 (Kcal/Mol)
 Warning -- explicit consideration of   3 degrees of freedom as
           vibrations may cause significant error
 Vibrational temperatures:    336.49   577.41   879.38   896.06   950.72
          (Kelvin)           1066.07  1234.92  1272.29  1514.98  1537.52
                             1592.47  1738.79  1927.05  2365.70  2510.21
                             4246.23  4328.75  4463.86

 Zero-point correction=                           0.052947 (Hartree/Particle)
 Thermal correction to Energy=                    0.057359
 Thermal correction to Enthalpy=                  0.058303
 Thermal correction to Gibbs Free Energy=         0.025764
 Sum of electronic and zero-point Energies=           -191.174306
 Sum of electronic and thermal Energies=              -191.169894
 Sum of electronic and thermal Enthalpies=            -191.168950
 Sum of electronic and thermal Free Energies=         -191.201489

                     E (Thermal)             CV                S
                      KCal/Mol        Cal/Mol-Kelvin    Cal/Mol-Kelvin
 Total                   35.993             15.261             68.486
 Electronic               0.000              0.000              1.377
 Translational            0.889              2.981             38.342
 Rotational               0.889              2.981             23.905
 Vibrational             34.216              9.299              4.861
 Vibration     1          0.654              1.789              1.849
 Vibration     2          0.767              1.467              0.958
 Vibration     3          0.970              1.008              0.431

 Optimization completed.
    -- Stationary point found.
 Normal termination of Gaussian 09 at Tue Jul 19 12:37:08 2016.
