 Gaussian 09, Revision E.01,
 Gaussian 09:  EM64L-G09RevE.01 30-Nov-2015

 ---------------------------------------------
 #p b3lyp/6-311++G(3df,2p) freq symmetry=Loose
 ---------------------------------------------

 ---------
 b3lyp opt
 ---------
 Symbolic Z-matrix:
 Charge =  0 Multiplicity = 2

                         Standard orientation:
 ---------------------------------------------------------------------
 Center     Atomic      Atomic             Coordinates (Angstroms)
 Number     Number       Type             X           Y           Z
 ---------------------------------------------------------------------
      1          6           0       -0.776634   -0.002007   -0.015317
      2          6           0        0.475922   -0.699500   -0.333224
      3          6           0       -2.021246   -0.002631    0.172400
      4          1           0       -3.082455    0.015893    0.216746
      5          6           0        0.475631    0.701120   -0.332642
      6          6           0        1.638179    0.000273    0.294776
      7          1           0        1.795346   -0.000254    1.371388
      8          1           0        2.535999    0.000828   -0.304084
 ---------------------------------------------------------------------

 SCF Done:  E(UB3LYP) =  -192.091564501     A.U. after   18 cycles

 The electronic state is 2-A.
 Alpha  occ. eigenvalues --  -10.24927 -10.23901 -10.23438 -10.23382 -10.21050
 Alpha  occ. eigenvalues --   -0.98119  -0.79125  -0.69824  -0.56205  -0.51682
 Alpha  occ. eigenvalues --   -0.51437  -0.48471  -0.38695  -0.37372  -0.29568
 Alpha  occ. eigenvalues --   -0.26357  -0.23736
 Alpha virt. eigenvalues --   -0.08491  -0.00901   0.00370   0.01330   0.02356
 Alpha virt. eigenvalues --    0.03666   0.04429   0.04481   0.06677   0.08156
 Alpha virt. eigenvalues --    0.08460   0.08917   0.10122   0.10696   0.11636

  Beta  occ. eigenvalues --  -10.25155 -10.23627 -10.23136 -10.23079 -10.19934
  Beta  occ. eigenvalues --   -0.97910  -0.77567  -0.68313  -0.55322  -0.51115
  Beta  occ. eigenvalues --   -0.50471  -0.48079  -0.37175  -0.36622  -0.28257
  Beta  occ. eigenvalues --   -0.25457
  Beta virt. eigenvalues --   -0.13166  -0.06092  -0.00679   0.00500   0.01378
  Beta virt. eigenvalues --    0.02401   0.03848   0.04542   0.04826   0.06823
  Beta virt. eigenvalues --    0.08414   0.08968   0.09624   0.10349   0.10966

 Mulliken charges and spin densities:
               1          2
     1  C   -0.123509  -0.155631
     2  C   -0.306324   0.101688
     3  C    0.453960   0.805570
     4  H    0.333518  -0.020229
     5  C   -0.318841   0.100280
     6  C   -0.378414   0.181202
     7  H    0.176168  -0.009379
     8  H    0.163442  -0.003501
 Sum of Mulliken charges =  -0.00000   1.00000

 Dipole moment (field-independent basis, Debye):
    X=              0.0421    Y=              0.0106    Z=              0.7348  Tot=              0.7360
 Quadrupole moment (field-independent basis, Debye-Ang):
   XX=            -20.9575   YY=            -33.5717   ZZ=            -30.1853
   XY=             -0.0593   XZ=              0.4218   YZ=              0.0092

  Exact polarizability:  90.107   0.077  46.752  -2.839  -0.001  41.380
 Approx polarizability: 151.597   0.230  89.915 -11.642  -0.042  61.957

                      1                      2                      3
                      A                      A                      A
 Frequencies --     68.3374               197.6620               353.6118
 Red. masses --      1.1918                 3.0822                 7.4796
 Frc consts  --      0.0033                 0.0710                 0.5510
 IR Inten    --     13.4568                26.2283                17.5970

                      4                      5                      6
                      A                      A                      A
 Frequencies --    394.9382               406.4518               514.7674
 Red. masses --      6.6200                 1.9408                 2.3600
 Frc consts  --      0.6084                 0.1889                 0.3685
 IR Inten    --    111.5797                74.5765                19.2886

                      7                      8                      9
                      A                      A                      A
 Frequencies --    729.8733               751.4546               971.0335
 Red. masses --      6.4309                 3.2956                 1.4200
 Frc consts  --      2.0185                 1.0965                 0.7889
 IR Inten    --      7.5252                 8.3271                 0.4595

                     10                     11                     12
                      A                      A                      A
 Frequencies --   1068.1532              1077.6245              1180.8224
 Red. masses --      1.2422                 1.3661                 7.0236
 Frc consts  --      0.8351                 0.9347                 5.7700
 IR Inten    --      9.6231                12.9586                27.6630

                     13                     14                     15
                      A                      A                      A
 Frequencies --   1306.3709              1520.7845              1814.8917
 Red. masses --      6.1773                 1.1448                 7.3696
 Frc consts  --      6.2113                 1.5600                14.3020
 IR Inten    --      4.6136                 2.7962               181.7340

                     16                     17                     18
                      A                      A                      A
 Frequencies --   3070.5782              3205.2132              3438.3355
 Red. masses --      1.0619                 1.1064                 1.1221
 Frc consts  --      5.8989                 6.6971                 7.8162
 IR Inten    --     42.1359                 2.3218               138.3504

 - Thermochemistry -
 -------------------
 Temperature   298.150 Kelvin.  Pressure   1.00000 Atm.
 Atom     1 has atomic number  6 and mass  12.00000

 Molecular mass:    63.02348 amu.
 Principal axes and moments of inertia in atomic units:
                           1         2         3
     Eigenvalues --    63.68411 425.86290 446.24734
           X            0.99995  -0.00046   0.00971
           Y            0.00046   1.00000   0.00047
           Z           -0.00971  -0.00047   0.99995
 This molecule is an asymmetric top.
 Rotational symmetry number  1.
 Rotational temperatures (Kelvin)      1.36005     0.20338     0.19409
 Rotational constants (GHZ):          28.33896     4.23785     4.04426
 Zero-point vibrational energy     132013.3 (Joules/Mol)
                                   31.55194 (Kcal/Mol)
 Warning -- explicit consideration of   6 degrees of freedom as
           vibrations may cause significant error
 Vibrational temperatures:     98.32   284.39   508.77   568.23   584.79
          (Kelvin)            740.63  1050.12  1081.17  1397.10  1536.83
                             1550.46  1698.94  1879.57  2188.07  2611.22
                             4417.87  4611.58  4946.99

 Zero-point correction=                           0.050281 (Hartree/Particle)
 Thermal correction to Energy=                    0.055990
 Thermal correction to Enthalpy=                  0.056934
 Thermal correction to Gibbs Free Energy=         0.021476
 Sum of electronic and zero-point Energies=           -192.041283
 Sum of electronic and thermal Energies=              -192.035575
 Sum of electronic and thermal Enthalpies=            -192.034631
 Sum of electronic and thermal Free Energies=         -192.070089

                     E (Thermal)             CV                S
                      KCal/Mol        Cal/Mol-Kelvin    Cal/Mol-Kelvin
 Total                   35.134             18.478             74.628
 Electronic               0.000              0.000              1.377
 Translational            0.889              2.981             38.342
 Rotational               0.889              2.981             24.008
 Vibrational             33.357             12.517             10.901
 Vibration     1          0.598              1.969              4.201
 Vibration     2          0.637              1.843              2.155
 Vibration     3          0.730              1.568              1.150
 Vibration     4          0.762              1.481              0.981
 Vibration     5          0.771              1.456              0.939
 Vibration     6          0.870              1.217              0.622

 Normal termination of Gaussian 09 at Sun Jun 19 07:47:12 2016.
