 Gaussian 09, Revision E.01,
 Gaussian 09:  EM64L-G09RevE.01 30-Nov-2015

 ------------------------------------------------------
 #p b3lyp/6-311++G(3df,2p) freq IOp(2/17=3) IOp(2/18=3)
 ------------------------------------------------------

 ---------
 b3lyp opt
 ---------
 Symbolic Z-matrix:
 Charge =  3 Multiplicity = 3

                         Standard orientation:
 ---------------------------------------------------------------------
 Center     Atomic      Atomic             Coordinates (Angstroms)
 Number     Number       Type             X           Y           Z
 ---------------------------------------------------------------------
      1          6           0       -0.979226    0.141360   -0.694676
      2          6           0        0.240757   -0.240845   -1.250088
      3          1           0        0.633735   -0.574209   -2.247340
      4          6           0        0.967619    0.223360   -0.000000
      5          1           0        1.788439    0.999791   -0.000000
      6          6           0       -0.979226    0.141360    0.694676
      7          6           0        0.240757   -0.240845    1.250088
      8          1           0        0.633735   -0.574209    2.247340
 ---------------------------------------------------------------------

 SCF Done:  E(UB3LYP) =  -190.377012519     A.U. after   15 cycles

 The electronic state is 3-A".
 Alpha  occ. eigenvalues --  -11.09181 -11.09126 -11.07762 -11.05484 -11.05482
 Alpha  occ. eigenvalues --   -1.73368  -1.53940  -1.48605  -1.34259  -1.27674
 Alpha  occ. eigenvalues --   -1.25805  -1.21987  -1.19570  -1.15228  -1.07876
 Alpha  occ. eigenvalues --   -1.04640
 Alpha virt. eigenvalues --   -0.92197  -0.89148  -0.80854  -0.73463  -0.59191
 Alpha virt. eigenvalues --   -0.53659  -0.53450  -0.51636  -0.50366  -0.50199
 Alpha virt. eigenvalues --   -0.43940  -0.43369  -0.42187  -0.41799  -0.40446

  Beta  occ. eigenvalues --  -11.07655 -11.07605 -11.07546 -11.05090 -11.05088
  Beta  occ. eigenvalues --   -1.71014  -1.51793  -1.46349  -1.32848  -1.25660
  Beta  occ. eigenvalues --   -1.23842  -1.19915  -1.18682  -1.12540
  Beta virt. eigenvalues --   -0.93086  -0.92697  -0.87105  -0.84084  -0.77638
  Beta virt. eigenvalues --   -0.69382  -0.58173  -0.52395  -0.52157  -0.51049
  Beta virt. eigenvalues --   -0.49750  -0.49242  -0.43531  -0.43093  -0.41766

 Mulliken charges and spin densities:
               1          2
     1  C    0.606214   0.747574
     2  C    0.278319   0.198538
     3  H    0.407256   0.016529
     4  C    0.083632   0.058083
     5  H    0.332790   0.016636
     6  C    0.606214   0.747574
     7  C    0.278319   0.198538
     8  H    0.407256   0.016529
 Sum of Mulliken charges =   3.00000   2.00000

 Dipole moment (field-independent basis, Debye):
    X=              1.5853    Y=             -0.2373    Z=              0.0000  Tot=              1.6029
 Quadrupole moment (field-independent basis, Debye-Ang):
   XX=             -5.6158   YY=            -18.5814   ZZ=              3.8976
   XY=              0.9246   XZ=             -0.0000   YZ=             -0.0000

  Exact polarizability:  42.407  -1.151  23.829   0.000   0.000  49.146
 Approx polarizability: 100.413  -7.425  37.772   0.000  -0.000  96.052

                      1                      2                      3
                     A'                     A"                     A'
 Frequencies --    277.1285               322.1188               377.1031
 Red. masses --      3.0180                 5.8859                 2.9758
 Frc consts  --      0.1366                 0.3598                 0.2493
 IR Inten    --     35.3591                47.9373                 1.0711

                      4                      5                      6
                     A"                     A'                     A"
 Frequencies --    489.5765               753.2053               783.6274
 Red. masses --      8.1307                 2.2987                 9.6706
 Frc consts  --      1.1482                 0.7684                 3.4988
 IR Inten    --      2.0871                 4.6132                31.2110

                      7                      8                      9
                     A"                     A'                     A'
 Frequencies --    863.2705               865.7092               959.5076
 Red. masses --      1.3055                 1.4057                 1.6721
 Frc consts  --      0.5732                 0.6207                 0.9070
 IR Inten    --      1.6432                63.6791                 3.9841

                     10                     11                     12
                     A"                     A'                     A"
 Frequencies --   1001.3852              1059.1731              1086.4238
 Red. masses --      1.1697                 4.0592                 1.4391
 Frc consts  --      0.6911                 2.6830                 1.0008
 IR Inten    --      0.0056                42.7483                 0.1442

                     13                     14                     15
                     A'                     A"                     A'
 Frequencies --   1119.5581              1224.8971              1495.4733
 Red. masses --      1.7323                 2.9284                 8.9150
 Frc consts  --      1.2793                 2.5887                11.7471
 IR Inten    --     75.6715               179.0340                43.9980

                     16                     17                     18
                     A'                     A"                     A'
 Frequencies --   2738.4188              2814.6212              2835.4925
 Red. masses --      1.0916                 1.1095                 1.1089
 Frc consts  --      4.8228                 5.1788                 5.2527
 IR Inten    --    446.0039               932.7988               234.1492

 - Thermochemistry -
 -------------------
 Temperature   298.150 Kelvin.  Pressure   1.00000 Atm.
 Atom     1 has atomic number  6 and mass  12.00000

 Molecular mass:    63.02348 amu.
 Principal axes and moments of inertia in atomic units:
                           1         2         3
     Eigenvalues --   155.94507 226.32861 352.91056
           X            0.00000   0.99957   0.02949
           Y            0.00000  -0.02949   0.99957
           Z            1.00000   0.00000  -0.00000
 This molecule is an asymmetric top.
 Rotational symmetry number  1.
 Rotational temperatures (Kelvin)      0.55541     0.38269     0.24543
 Rotational constants (GHZ):          11.57293     7.97399     5.11388
 Zero-point vibrational energy     126006.8 (Joules/Mol)
                                   30.11635 (Kcal/Mol)
 Warning -- explicit consideration of   4 degrees of freedom as
           vibrations may cause significant error
 Vibrational temperatures:    398.73   463.46   542.57   704.39  1083.69
          (Kelvin)           1127.46  1242.05  1245.56  1380.52  1440.77
                             1523.91  1563.12  1610.79  1762.35  2151.65
                             3939.97  4049.61  4079.64

 Zero-point correction=                           0.047993 (Hartree/Particle)
 Thermal correction to Energy=                    0.052711
 Thermal correction to Enthalpy=                  0.053655
 Thermal correction to Gibbs Free Energy=         0.020212
 Sum of electronic and zero-point Energies=           -190.329019
 Sum of electronic and thermal Energies=              -190.324301
 Sum of electronic and thermal Enthalpies=            -190.323357
 Sum of electronic and thermal Free Energies=         -190.356801

                     E (Thermal)             CV                S
                      KCal/Mol        Cal/Mol-Kelvin    Cal/Mol-Kelvin
 Total                   33.077             16.549             70.388
 Electronic               0.000              0.000              2.183
 Translational            0.889              2.981             38.342
 Rotational               0.889              2.981             24.036
 Vibrational             31.299             10.587              5.827
 Vibration     1          0.678              1.716              1.551
 Vibration     2          0.707              1.631              1.299
 Vibration     3          0.748              1.519              1.051
 Vibration     4          0.845              1.273              0.685

 Optimization completed.
    -- Stationary point found.
 Normal termination of Gaussian 09 at Thu Jan 31 06:10:48 2019.
