 Gaussian 09, Revision E.01,
 Gaussian 09:  EM64L-G09RevE.01 30-Nov-2015

 ---------------------------------------------
 #p b3lyp/6-311++G(3df,2p) freq symmetry=Loose
 ---------------------------------------------

 ---------
 b3lyp opt
 ---------
 Symbolic Z-matrix:
 Charge =  1 Multiplicity = 3

                         Standard orientation:
 ---------------------------------------------------------------------
 Center     Atomic      Atomic             Coordinates (Angstroms)
 Number     Number       Type             X           Y           Z
 ---------------------------------------------------------------------
      1          6           0       -1.510803   -0.277037   -0.000458
      2          6           0        0.518255   -0.098802    0.000284
      3          6           0       -0.483490   -1.122074    0.000212
      4          6           0        1.861392   -0.108279   -0.000149
      5          1           0        2.711271    0.558932   -0.000457
      6          6           0       -0.609603    0.987374    0.000110
      7          1           0       -0.682449    1.577197   -0.909718
      8          1           0       -0.683328    1.576772    0.910180
 ---------------------------------------------------------------------

 SCF Done:  E(UB3LYP) =  -191.725035794     A.U. after   20 cycles

 The electronic state is 3-A.
 Alpha  occ. eigenvalues --  -10.50225 -10.49851 -10.49313 -10.47204 -10.45675
 Alpha  occ. eigenvalues --   -1.16526  -1.02327  -0.91237  -0.83489  -0.73865
 Alpha  occ. eigenvalues --   -0.70680  -0.68424  -0.67343  -0.58374  -0.54294
 Alpha  occ. eigenvalues --   -0.52862  -0.50139
 Alpha virt. eigenvalues --   -0.35732  -0.30788  -0.19076  -0.15632  -0.13808
 Alpha virt. eigenvalues --   -0.12330  -0.11132  -0.09992  -0.08991  -0.07672
 Alpha virt. eigenvalues --   -0.06688  -0.05735  -0.05681  -0.05342  -0.02946

  Beta  occ. eigenvalues --  -10.49814 -10.48325 -10.48191 -10.47035 -10.45510
  Beta  occ. eigenvalues --   -1.15480  -0.97647  -0.91301  -0.79930  -0.71383
  Beta  occ. eigenvalues --   -0.69504  -0.69497  -0.65642  -0.55978  -0.51857
  Beta virt. eigenvalues --   -0.41854  -0.35683  -0.33410  -0.24823  -0.17804
  Beta virt. eigenvalues --   -0.15316  -0.13216  -0.11476  -0.10739  -0.09978
  Beta virt. eigenvalues --   -0.08511  -0.07769  -0.06293  -0.05196  -0.04858

 Mulliken charges and spin densities:
               1          2
     1  C    0.247555   1.339628
     2  C    0.706945   0.144872
     3  C    0.025712  -0.802705
     4  C   -0.239893   1.302539
     5  H    0.286500   0.005052
     6  C   -0.490386   0.027199
     7  H    0.231786  -0.008312
     8  H    0.231781  -0.008274
 Sum of Mulliken charges =   1.00000   2.00000

 Dipole moment (field-independent basis, Debye):
    X=              1.3681    Y=              1.4902    Z=             -0.0003  Tot=              2.0230
 Quadrupole moment (field-independent basis, Debye-Ang):
   XX=            -14.2436   YY=            -22.3827   ZZ=            -25.4878
   XY=              1.3354   XZ=             -0.0019   YZ=              0.0000

  Exact polarizability:  73.544   1.736  45.581   0.002  -0.001  31.537
 Approx polarizability: 134.726   6.061  74.352   0.007  -0.005  46.177

                      1                      2                      3
                      A                      A                      A
 Frequencies --    192.6327               361.9148               492.0539
 Red. masses --      4.2346                 2.6442                 3.4037
 Frc consts  --      0.0926                 0.2041                 0.4855
 IR Inten    --      1.7940                 3.2610                 0.9630

                      4                      5                      6
                      A                      A                      A
 Frequencies --    540.0707               662.7573               699.1063
 Red. masses --      8.5168                 9.4120                 1.5101
 Frc consts  --      1.4636                 2.4358                 0.4348
 IR Inten    --      0.7114                14.3239                30.1180

                      7                      8                      9
                      A                      A                      A
 Frequencies --    728.5602               923.7728               939.8878
 Red. masses --      1.2713                 1.5005                 6.3634
 Frc consts  --      0.3976                 0.7544                 3.3120
 IR Inten    --     13.5438                 6.0819                21.3027

                     10                     11                     12
                      A                      A                      A
 Frequencies --   1035.9750              1085.5853              1157.5074
 Red. masses --      4.8183                 1.0932                 1.4549
 Frc consts  --      3.0468                 0.7591                 1.1485
 IR Inten    --      1.2932                 0.0998                 8.6568

                     13                     14                     15
                      A                      A                      A
 Frequencies --   1340.8342              1425.5876              1465.9638
 Red. masses --      6.1558                 2.3466                 1.7024
 Frc consts  --      6.5205                 2.8098                 2.1556
 IR Inten    --    107.1474                17.6799                 4.1161

                     16                     17                     18
                      A                      A                      A
 Frequencies --   3085.1945              3169.5170              3239.9225
 Red. masses --      1.0527                 1.1147                 1.1006
 Frc consts  --      5.9037                 6.5980                 6.8067
 IR Inten    --     10.0624                16.2453                75.1630

 - Thermochemistry -
 -------------------
 Temperature   298.150 Kelvin.  Pressure   1.00000 Atm.
 Atom     1 has atomic number  6 and mass  12.00000

 Molecular mass:    63.02348 amu.
 Principal axes and moments of inertia in atomic units:
                           1         2         3
     Eigenvalues --   124.13684 319.43215 431.64894
           X            0.99995  -0.01016  -0.00003
           Y            0.01016   0.99995   0.00000
           Z            0.00003  -0.00000   1.00000
 This molecule is an asymmetric top.
 Rotational symmetry number  1.
 Rotational temperatures (Kelvin)      0.69773     0.27115     0.20066
 Rotational constants (GHZ):          14.53832     5.64984     4.18104
 Zero-point vibrational energy     134860.1 (Joules/Mol)
                                   32.23233 (Kcal/Mol)
 Warning -- explicit consideration of   4 degrees of freedom as
           vibrations may cause significant error
 Vibrational temperatures:    277.16   520.71   707.95   777.04   953.56
          (Kelvin)           1005.86  1048.23  1329.10  1352.29  1490.54
                             1561.91  1665.39  1929.16  2051.10  2109.19
                             4438.90  4560.22  4661.52

 Zero-point correction=                           0.051365 (Hartree/Particle)
 Thermal correction to Energy=                    0.056084
 Thermal correction to Enthalpy=                  0.057028
 Thermal correction to Gibbs Free Energy=         0.023357
 Sum of electronic and zero-point Energies=           -191.673670
 Sum of electronic and thermal Energies=              -191.668952
 Sum of electronic and thermal Enthalpies=            -191.668008
 Sum of electronic and thermal Free Energies=         -191.701678

                     E (Thermal)             CV                S
                      KCal/Mol        Cal/Mol-Kelvin    Cal/Mol-Kelvin
 Total                   35.193             16.394             70.866
 Electronic               0.000              0.000              2.183
 Translational            0.889              2.981             38.342
 Rotational               0.889              2.981             24.352
 Vibrational             33.416             10.432              5.989
 Vibration     1          0.635              1.850              2.202
 Vibration     2          0.736              1.551              1.114
 Vibration     3          0.848              1.268              0.678
 Vibration     4          0.895              1.161              0.565

 Optimization completed.
    -- Stationary point found.
 Normal termination of Gaussian 09 at Sun Jun 19 10:52:51 2016.
