 Gaussian 09, Revision E.01,
 Gaussian 09:  EM64L-G09RevE.01 30-Nov-2015

 ---------------------------------------------
 #p b3lyp/6-311++G(3df,2p) freq symmetry=Loose
 ---------------------------------------------

 ---------
 b3lyp opt
 ---------
 Symbolic Z-matrix:
 Charge =  0 Multiplicity = 4

                         Standard orientation:
 ---------------------------------------------------------------------
 Center     Atomic      Atomic             Coordinates (Angstroms)
 Number     Number       Type             X           Y           Z
 ---------------------------------------------------------------------
      1          6           0        0.177740   -0.364914    0.387669
      2          1           0        0.213606   -0.762966    1.403305
      3          6           0       -1.123485   -0.048927   -0.067416
      4          6           0       -2.348221    0.228090   -0.106920
      5          6           0        1.286483   -0.696970   -0.510187
      6          6           0        1.429272    0.622385    0.017909
      7          1           0        2.095801    0.835304    0.851410
      8          1           0        1.159862    1.489673   -0.581049
 ---------------------------------------------------------------------

 SCF Done:  E(UB3LYP) =  -192.016839592     A.U. after   24 cycles

 The electronic state is 4-A.
 Alpha  occ. eigenvalues --  -10.26068 -10.23730 -10.23518 -10.23323 -10.22967
 Alpha  occ. eigenvalues --   -0.91992  -0.80477  -0.68961  -0.61418  -0.55407
 Alpha  occ. eigenvalues --   -0.45843  -0.44538  -0.41040  -0.35290  -0.33881
 Alpha  occ. eigenvalues --   -0.31665  -0.26319  -0.23478
 Alpha virt. eigenvalues --   -0.03050  -0.01964   0.00056   0.00931   0.02338
 Alpha virt. eigenvalues --    0.03279   0.05433   0.05741   0.06859   0.07544
 Alpha virt. eigenvalues --    0.08227   0.09109   0.09583   0.10404   0.11125

  Beta  occ. eigenvalues --  -10.25818 -10.23542 -10.22445 -10.22027 -10.20884
  Beta  occ. eigenvalues --   -0.89594  -0.77334  -0.67048  -0.58563  -0.53435
  Beta  occ. eigenvalues --   -0.44064  -0.40593  -0.37956  -0.30112  -0.29264
  Beta virt. eigenvalues --   -0.20305  -0.14336  -0.07368  -0.01490  -0.00238
  Beta virt. eigenvalues --    0.00858   0.01775   0.03160   0.03946   0.05815
  Beta virt. eigenvalues --    0.06139   0.07017   0.08315   0.09069   0.09699

 Mulliken charges and spin densities:
               1          2
     1  C    0.294831  -0.015106
     2  H    0.219312   0.044838
     3  C    0.438507   0.234832
     4  C   -0.827728   0.906007
     5  C   -0.108781   1.647601
     6  C   -0.360653   0.096236
     7  H    0.163012   0.044918
     8  H    0.181500   0.040674
 Sum of Mulliken charges =  -0.00000   3.00000

 Dipole moment (field-independent basis, Debye):
    X=              2.2675    Y=              0.7675    Z=              0.9496  Tot=              2.5754
 Quadrupole moment (field-independent basis, Debye-Ang):
   XX=            -36.1427   YY=            -30.4496   ZZ=            -28.6997
   XY=              3.2983   XZ=              2.7291   YZ=             -1.6360

  Exact polarizability: 122.639 -16.090  57.785   0.796   1.712  45.561
 Approx polarizability: 173.140 -24.107  79.983  -9.275   6.575  66.963

                      1                      2                      3
                      A                      A                      A
 Frequencies --    184.1693               217.2248               403.4427
 Red. masses --      5.6006                 5.6407                 5.1010
 Frc consts  --      0.1119                 0.1568                 0.4892
 IR Inten    --      4.8104                35.1422                27.3590

                      4                      5                      6
                      A                      A                      A
 Frequencies --    494.1036               612.9329               804.1581
 Red. masses --      7.2731                 6.0458                 1.7324
 Frc consts  --      1.0462                 1.3382                 0.6601
 IR Inten    --     11.2682                42.8502               132.9113

                      7                      8                      9
                      A                      A                      A
 Frequencies --    860.3166               959.2881              1003.0303
 Red. masses --      1.2113                 2.5508                 1.3664
 Frc consts  --      0.5282                 1.3830                 0.8100
 IR Inten    --     30.3163                 4.2118                34.7020

                     10                     11                     12
                      A                      A                      A
 Frequencies --   1034.9395              1053.1135              1207.0179
 Red. masses --      1.4512                 2.6645                 1.7136
 Frc consts  --      0.9158                 1.7411                 1.4710
 IR Inten    --     26.3758                40.7959                10.7983

                     13                     14                     15
                      A                      A                      A
 Frequencies --   1283.1637              1451.2838              1509.6401
 Red. masses --      2.3586                 1.2748                 6.4791
 Frc consts  --      2.2881                 1.5819                 8.6999
 IR Inten    --    129.1216               140.7154              1181.5111

                     16                     17                     18
                      A                      A                      A
 Frequencies --   3042.3767              3049.4935              3123.3949
 Red. masses --      1.0807                 1.0490                 1.1158
 Frc consts  --      5.8934                 5.7475                 6.4136
 IR Inten    --      6.3229                 7.2280                 4.8938

 - Thermochemistry -
 -------------------
 Temperature   298.150 Kelvin.  Pressure   1.00000 Atm.
 Atom     1 has atomic number  6 and mass  12.00000

 Molecular mass:    63.02348 amu.
 Principal axes and moments of inertia in atomic units:
                           1         2         3
     Eigenvalues --    86.54040 499.18614 528.88347
           X            0.99949   0.03071   0.00817
           Y           -0.02930   0.99006  -0.13755
           Z           -0.01232   0.13724   0.99046
 This molecule is an asymmetric top.
 Rotational symmetry number  1.
 Rotational temperatures (Kelvin)      1.00085     0.17351     0.16377
 Rotational constants (GHZ):          20.85432     3.61537     3.41236
 Zero-point vibrational energy     133342.3 (Joules/Mol)
                                   31.86957 (Kcal/Mol)
 Warning -- explicit consideration of   5 degrees of freedom as
           vibrations may cause significant error
 Vibrational temperatures:    264.98   312.54   580.46   710.90   881.87
          (Kelvin)           1157.00  1237.80  1380.20  1443.14  1489.05
                             1515.19  1736.63  1846.18  2088.07  2172.03
                             4377.30  4387.54  4493.86

 Zero-point correction=                           0.050787 (Hartree/Particle)
 Thermal correction to Energy=                    0.055748
 Thermal correction to Enthalpy=                  0.056692
 Thermal correction to Gibbs Free Energy=         0.022066
 Sum of electronic and zero-point Energies=           -191.966052
 Sum of electronic and thermal Energies=              -191.961091
 Sum of electronic and thermal Enthalpies=            -191.960147
 Sum of electronic and thermal Free Energies=         -191.994773

                     E (Thermal)             CV                S
                      KCal/Mol        Cal/Mol-Kelvin    Cal/Mol-Kelvin
 Total                   34.983             16.548             72.876
 Electronic               0.000              0.000              2.755
 Translational            0.889              2.981             38.342
 Rotational               0.889              2.981             24.639
 Vibrational             33.205             10.586              7.141
 Vibration     1          0.631              1.861              2.286
 Vibration     2          0.646              1.815              1.982
 Vibration     3          0.769              1.463              0.950
 Vibration     4          0.850              1.263              0.673
 Vibration     5          0.972              1.004              0.428

 Optimization completed.
    -- Stationary point found.
 Normal termination of Gaussian 09 at Sun Jun 19 08:31:08 2016.
