 Gaussian 09, Revision E.01,
 Gaussian 09:  EM64L-G09RevE.01 30-Nov-2015

 ---------------------------------------------
 #p b3lyp/6-311++G(3df,2p) freq symmetry=Loose
 ---------------------------------------------

 ---------
 b3lyp opt
 ---------
 Symbolic Z-matrix:
 Charge =  0 Multiplicity = 4

                         Standard orientation:
 ---------------------------------------------------------------------
 Center     Atomic      Atomic             Coordinates (Angstroms)
 Number     Number       Type             X           Y           Z
 ---------------------------------------------------------------------
      1          6           0        0.532459    0.138520   -0.000169
      2          6           0       -0.890111   -0.014510   -0.000120
      3          6           0       -2.086536   -0.124591    0.000070
      4          1           0       -3.143315   -0.228891    0.000266
      5          6           0        1.025999    1.454104    0.000089
      6          6           0        1.373670   -0.952655    0.000007
      7          1           0        2.444954   -0.823589    0.000377
      8          1           0        0.965472   -1.952733    0.000093
 ---------------------------------------------------------------------

 SCF Done:  E(UB3LYP) =  -192.075272266     A.U. after   18 cycles

 The electronic state is 4-A.
 Alpha  occ. eigenvalues --  -10.25456 -10.24497 -10.19989 -10.19503 -10.18524
 Alpha  occ. eigenvalues --   -0.85599  -0.75955  -0.69801  -0.61094  -0.53289
 Alpha  occ. eigenvalues --   -0.48984  -0.44506  -0.38747  -0.38746  -0.30533
 Alpha  occ. eigenvalues --   -0.28915  -0.24626  -0.23011
 Alpha virt. eigenvalues --   -0.04362  -0.00174   0.00991   0.01748   0.02841
 Alpha virt. eigenvalues --    0.04341   0.05446   0.06554   0.06575   0.07398
 Alpha virt. eigenvalues --    0.09553   0.09848   0.10398   0.11064   0.12357

  Beta  occ. eigenvalues --  -10.24544 -10.21419 -10.19345 -10.19058 -10.18534
  Beta  occ. eigenvalues --   -0.83644  -0.75236  -0.65315  -0.58026  -0.52646
  Beta  occ. eigenvalues --   -0.47140  -0.41995  -0.37016  -0.30217  -0.27062
  Beta virt. eigenvalues --   -0.18430  -0.08933  -0.05971  -0.01458  -0.00021
  Beta virt. eigenvalues --    0.01210   0.02479   0.03108   0.05138   0.05578
  Beta virt. eigenvalues --    0.06932   0.07218   0.08393   0.10107   0.10519

 Mulliken charges and spin densities:
               1          2
     1  C    0.853891  -0.270245
     2  C   -0.484390   0.078108
     3  C    0.004329  -0.025609
     4  H    0.296257   0.001398
     5  C   -0.355034   2.514066
     6  C   -0.680001   0.723107
     7  H    0.183690  -0.021566
     8  H    0.181258   0.000741
 Sum of Mulliken charges =  -0.00000   3.00000

 Dipole moment (field-independent basis, Debye):
    X=             -0.1826    Y=             -0.8283    Z=              0.0006  Tot=              0.8482
 Quadrupole moment (field-independent basis, Debye-Ang):
   XX=            -23.3828   YY=            -29.2500   ZZ=            -32.0110
   XY=             -0.4000   XZ=             -0.0000   YZ=             -0.0004

  Exact polarizability:  87.087   2.650  64.884  -0.000   0.002  38.714
 Approx polarizability: 135.817   5.965 102.813  -0.003   0.003  53.339

                      1                      2                      3
                      A                      A                      A
 Frequencies --    196.2828               270.5344               431.3114
 Red. masses --      3.9116                 3.7539                 3.7003
 Frc consts  --      0.0888                 0.1619                 0.4056
 IR Inten    --      2.4051                 6.0394                 2.7943

                      4                      5                      6
                      A                      A                      A
 Frequencies --    569.0146               595.7781               605.5773
 Red. masses --      5.6500                 1.1261                 5.1835
 Frc consts  --      1.0778                 0.2355                 1.1200
 IR Inten    --      4.0758                 7.2081                 0.0922

                      7                      8                      9
                      A                      A                      A
 Frequencies --    658.2823               693.6479               813.0787
 Red. masses --      1.2697                 1.2958                 1.3855
 Frc consts  --      0.3242                 0.3673                 0.5397
 IR Inten    --     42.8577                39.1234                47.5056

                     10                     11                     12
                      A                      A                      A
 Frequencies --    823.0537               995.6621              1190.6519
 Red. masses --      4.1833                 2.1176                 4.1554
 Frc consts  --      1.6697                 1.2369                 3.4708
 IR Inten    --      5.4045                18.1389                68.4765

                     13                     14                     15
                      A                      A                      A
 Frequencies --   1321.7626              1487.2145              2186.5842
 Red. masses --      3.1543                 1.4099                 6.0671
 Frc consts  --      3.2468                 1.8373                17.0908
 IR Inten    --     20.0593                16.2966                13.3163

                     16                     17                     18
                      A                      A                      A
 Frequencies --   3153.1017              3257.4548              3460.3419
 Red. masses --      1.0531                 1.1189                 1.1580
 Frc consts  --      6.1688                 6.9950                 8.1698
 IR Inten    --      0.0603                 0.4366                62.6348

 - Thermochemistry -
 -------------------
 Temperature   298.150 Kelvin.  Pressure   1.00000 Atm.
 Atom     1 has atomic number  6 and mass  12.00000

 Molecular mass:    63.02348 amu.
 Principal axes and moments of inertia in atomic units:
                           1         2         3
     Eigenvalues --   146.37681 419.53237 565.90918
           X            0.99914  -0.04144   0.00000
           Y            0.04144   0.99914  -0.00001
           Z           -0.00000   0.00001   1.00000
 This molecule is an asymmetric top.
 Rotational symmetry number  1.
 Rotational temperatures (Kelvin)      0.59172     0.20645     0.15305
 Rotational constants (GHZ):          12.32942     4.30179     3.18910
 Zero-point vibrational energy     135832.0 (Joules/Mol)
                                   32.46462 (Kcal/Mol)
 Warning -- explicit consideration of   6 degrees of freedom as
           vibrations may cause significant error
 Vibrational temperatures:    282.41   389.24   620.56   818.68   857.19
          (Kelvin)            871.29   947.12   998.00  1169.84  1184.19
                             1432.53  1713.08  1901.72  2139.77  3146.00
                             4536.60  4686.75  4978.65

 Zero-point correction=                           0.051736 (Hartree/Particle)
 Thermal correction to Energy=                    0.056833
 Thermal correction to Enthalpy=                  0.057778
 Thermal correction to Gibbs Free Energy=         0.022900
 Sum of electronic and zero-point Energies=           -192.023537
 Sum of electronic and thermal Energies=              -192.018439
 Sum of electronic and thermal Enthalpies=            -192.017495
 Sum of electronic and thermal Free Energies=         -192.052372

                     E (Thermal)             CV                S
                      KCal/Mol        Cal/Mol-Kelvin    Cal/Mol-Kelvin
 Total                   35.663             17.906             73.406
 Electronic               0.000              0.000              2.755
 Translational            0.889              2.981             38.342
 Rotational               0.889              2.981             25.056
 Vibrational             33.886             11.944              7.254
 Vibration     1          0.636              1.845              2.168
 Vibration     2          0.674              1.727              1.593
 Vibration     3          0.792              1.402              0.854
 Vibration     4          0.925              1.098              0.506
 Vibration     5          0.954              1.041              0.457
 Vibration     6          0.964              1.020              0.440

 Optimization completed.
    -- Stationary point found.
 Normal termination of Gaussian 09 at Sun Jun 19 08:15:01 2016.
