 Gaussian 09, Revision E.01,
 Gaussian 09:  EM64L-G09RevE.01 30-Nov-2015

 ---------------------------------------------
 #p b3lyp/6-311++G(3df,2p) freq symmetry=Loose
 ---------------------------------------------

 ---------
 b3lyp opt
 ---------
 Symbolic Z-matrix:
 Charge =  1 Multiplicity = 1

                         Standard orientation:
 ---------------------------------------------------------------------
 Center     Atomic      Atomic             Coordinates (Angstroms)
 Number     Number       Type             X           Y           Z
 ---------------------------------------------------------------------
      1          6           0       -1.180553    0.103469    0.000000
      2          1           0       -1.780906    0.170514   -0.907786
      3          1           0       -1.780906    0.170514    0.907786
      4          6           0       -0.185010   -1.001937    0.000000
      5          6           0        1.066020   -1.058339    0.000000
      6          6           0        0.000000    1.221907    0.000000
      7          1           0       -0.113343    2.292498    0.000000
      8          6           0        0.912060    0.295982    0.000000
 ---------------------------------------------------------------------

 SCF Done:  E(RB3LYP) =  -191.811601739     A.U. after   12 cycles

 The electronic state is 1-A'.
 Alpha  occ. eigenvalues --  -10.53354 -10.51710 -10.48667 -10.48429 -10.45901
 Alpha  occ. eigenvalues --   -1.21905  -1.03348  -0.95541  -0.79278  -0.78579
 Alpha  occ. eigenvalues --   -0.72552  -0.69397  -0.68961  -0.61999  -0.57191
 Alpha  occ. eigenvalues --   -0.49941
 Alpha virt. eigenvalues --   -0.38605  -0.29077  -0.27471  -0.18025  -0.16388
 Alpha virt. eigenvalues --   -0.12764  -0.12000  -0.11217  -0.10011  -0.08869
 Alpha virt. eigenvalues --   -0.08298  -0.07898  -0.07140  -0.05716  -0.03293

 Mulliken charges:
               1
     1  C   -0.468544
     2  H    0.236490
     3  H    0.236490
     4  C    0.217939
     5  C    0.053098
     6  C    0.043435
     7  H    0.288840
     8  C    0.392253
 Sum of Mulliken charges =   1.00000

 Dipole moment (field-independent basis, Debye):
    X=             -1.7119    Y=              1.0789    Z=              0.0000  Tot=              2.0235
 Quadrupole moment (field-independent basis, Debye-Ang):
   XX=            -18.6970   YY=            -19.0186   ZZ=            -26.3708
   XY=             -0.0498   XZ=              0.0000   YZ=             -0.0000

  Exact polarizability:  49.962  -7.827  52.131  -0.000   0.000  29.572
 Approx polarizability: 107.393 -26.697 104.630  -0.000  -0.000  43.146

                      1                      2                      3
                     A"                     A"                     A"
 Frequencies --     92.7101               447.2341               601.6601
 Red. masses --      2.7135                 5.4494                 1.1838
 Frc consts  --      0.0137                 0.6422                 0.2525
 IR Inten    --      0.8760                 1.5909                59.7856

                      4                      5                      6
                     A'                     A'                     A'
 Frequencies --    623.5121               650.1278               763.2635
 Red. masses --      7.9646                 8.2265                 6.9553
 Frc consts  --      1.8243                 2.0486                 2.3873
 IR Inten    --     42.7375                 8.0537                 2.1239

                      7                      8                      9
                     A"                     A'                     A'
 Frequencies --    871.3303               895.3125              1027.7430
 Red. masses --      1.6774                 2.9520                 1.4175
 Frc consts  --      0.7503                 1.3942                 0.8822
 IR Inten    --      2.9193                22.6264               105.5446

                     10                     11                     12
                     A"                     A'                     A'
 Frequencies --   1073.7516              1146.2580              1223.0358
 Red. masses --      1.1011                 1.6160                 3.1003
 Frc consts  --      0.7480                 1.2510                 2.7323
 IR Inten    --      0.1626                 9.4099                28.4969

                     13                     14                     15
                     A'                     A'                     A'
 Frequencies --   1405.2653              1738.7806              1900.4280
 Red. masses --      1.1120                 8.4036                10.5429
 Frc consts  --      1.2938                14.9695                22.4344
 IR Inten    --     15.5569                64.8545                55.8512

                     16                     17                     18
                     A'                     A"                     A'
 Frequencies --   3065.8159              3138.4469              3268.2543
 Red. masses --      1.0542                 1.1103                 1.1081
 Frc consts  --      5.8378                 6.4433                 6.9738
 IR Inten    --     42.2263                33.2388               122.2595

 - Thermochemistry -
 -------------------
 Temperature   298.150 Kelvin.  Pressure   1.00000 Atm.
 Atom     1 has atomic number  6 and mass  12.00000

 Molecular mass:    63.02348 amu.
 Principal axes and moments of inertia in atomic units:
                           1         2         3
     Eigenvalues --   141.72528 215.74573 345.60759
           X           -0.65611   0.75466   0.00000
           Y            0.75466   0.65611   0.00000
           Z           -0.00000   0.00000   1.00000
 This molecule is an asymmetric top.
 Rotational symmetry number  1.
 Rotational temperatures (Kelvin)      0.61114     0.40146     0.25061
 Rotational constants (GHZ):          12.73408     8.36513     5.22194
 Zero-point vibrational energy     143150.7 (Joules/Mol)
                                   34.21384 (Kcal/Mol)
 Warning -- explicit consideration of   3 degrees of freedom as
           vibrations may cause significant error
 Vibrational temperatures:    133.39   643.47   865.65   897.09   935.39
          (Kelvin)           1098.16  1253.65  1288.15  1478.69  1544.89
                             1649.21  1759.67  2021.86  2501.71  2734.29
                             4411.02  4515.52  4702.28

 Zero-point correction=                           0.054523 (Hartree/Particle)
 Thermal correction to Energy=                    0.059123
 Thermal correction to Enthalpy=                  0.060067
 Thermal correction to Gibbs Free Energy=         0.027448
 Sum of electronic and zero-point Energies=           -191.757079
 Sum of electronic and thermal Energies=              -191.752479
 Sum of electronic and thermal Enthalpies=            -191.751534
 Sum of electronic and thermal Free Energies=         -191.784154

                     E (Thermal)             CV                S
                      KCal/Mol        Cal/Mol-Kelvin    Cal/Mol-Kelvin
 Total                   37.100             15.219             68.654
 Electronic               0.000              0.000              0.000
 Translational            0.889              2.981             38.342
 Rotational               0.889              2.981             23.873
 Vibrational             35.323              9.257              6.439
 Vibration     1          0.602              1.954              3.602
 Vibration     2          0.806              1.367              0.804
 Vibration     3          0.960              1.028              0.447

 Optimization completed.
    -- Stationary point found.
 Normal termination of Gaussian 09 at Sun Jun 19 09:54:18 2016.
