 Gaussian 09, Revision E.01,
 Gaussian 09:  EM64L-G09RevE.01 30-Nov-2015

 ---------------------------------------------
 #p b3lyp/6-311++G(3df,2p) freq symmetry=Loose
 ---------------------------------------------

 ---------
 b3lyp opt
 ---------
 Symbolic Z-matrix:
 Charge =  2 Multiplicity = 4

                         Standard orientation:
 ---------------------------------------------------------------------
 Center     Atomic      Atomic             Coordinates (Angstroms)
 Number     Number       Type             X           Y           Z
 ---------------------------------------------------------------------
      1          6           0        0.000000    0.435308   -0.000000
      2          6           0        0.105401   -0.905739    0.000000
      3          6           0        0.592923    1.690829   -0.000000
      4          6           0        0.238719   -2.276985    0.000000
      5          6           0       -0.741686    1.654807   -0.000000
      6          1           0        0.287721   -2.833875    0.946432
      7          1           0        0.287721   -2.833875   -0.946432
      8          1           0       -1.747581    2.078421   -0.000000
 ---------------------------------------------------------------------

 SCF Done:  E(UB3LYP) =  -191.251004485     A.U. after   15 cycles

 The electronic state is 4-A".
 Alpha  occ. eigenvalues --  -10.77615 -10.75373 -10.74061 -10.73048 -10.72858
 Alpha  occ. eigenvalues --   -1.43514  -1.30913  -1.18860  -1.04434  -0.98495
 Alpha  occ. eigenvalues --   -0.95010  -0.93797  -0.88702  -0.88024  -0.83017
 Alpha  occ. eigenvalues --   -0.74611  -0.73919
 Alpha virt. eigenvalues --   -0.53136  -0.48959  -0.45127  -0.34542  -0.31205
 Alpha virt. eigenvalues --   -0.29113  -0.27345  -0.26558  -0.25718  -0.24113
 Alpha virt. eigenvalues --   -0.23714  -0.22439  -0.21887  -0.20136  -0.18669

  Beta  occ. eigenvalues --  -10.75739 -10.73993 -10.73197 -10.72582 -10.72145
  Beta  occ. eigenvalues --   -1.41585  -1.25661  -1.16187  -1.02698  -0.96081
  Beta  occ. eigenvalues --   -0.90761  -0.90550  -0.85972  -0.85449
  Beta virt. eigenvalues --   -0.67714  -0.61799  -0.59018  -0.46013  -0.45197
  Beta virt. eigenvalues --   -0.40802  -0.32904  -0.29556  -0.28217  -0.26538
  Beta virt. eigenvalues --   -0.26298  -0.24622  -0.22445  -0.22054  -0.21823

 Mulliken charges and spin densities:
               1          2
     1  C    0.170745   0.165467
     2  C    0.547813   1.023862
     3  C    0.104388   1.088355
     4  C   -0.011379   0.384048
     5  C    0.210222   0.270625
     6  H    0.307588   0.030567
     7  H    0.307588   0.030567
     8  H    0.363036   0.006508
 Sum of Mulliken charges =   2.00000   3.00000

 Dipole moment (field-independent basis, Debye):
    X=             -0.8344    Y=             -2.4477    Z=             -0.0000  Tot=              2.5860
 Quadrupole moment (field-independent basis, Debye-Ang):
   XX=            -17.6879   YY=             15.4545   ZZ=            -21.8629
   XY=             -6.8050   XZ=              0.0000   YZ=              0.0000

  Exact polarizability:  32.222  -5.740  83.701  -0.000  -0.000  26.337
 Approx polarizability:  52.973  -5.499 134.450   0.000   0.000  37.821

                      1                      2                      3
                     A"                     A'                     A"
 Frequencies --    151.2921               179.5303               387.6219
 Red. masses --      3.5342                 4.2941                 1.5540
 Frc consts  --      0.0477                 0.0815                 0.1376
 IR Inten    --      8.2404                 9.2366                 1.2994

                      4                      5                      6
                     A"                     A'                     A'
 Frequencies --    435.6921               480.6794               678.7139
 Red. masses --      2.6757                 5.9263                 5.4648
 Frc consts  --      0.2993                 0.8068                 1.4832
 IR Inten    --      0.5259                 3.1492                 7.9435

                      7                      8                      9
                     A"                     A"                     A'
 Frequencies --    860.6851               929.9870               970.2169
 Red. masses --      1.3206                 1.3222                 1.2521
 Frc consts  --      0.5764                 0.6738                 0.6944
 IR Inten    --     23.2860                 0.7931                26.1188

                     10                     11                     12
                     A'                     A'                     A'
 Frequencies --    988.7318              1022.6030              1213.5335
 Red. masses --      1.3770                 7.2347                 8.5278
 Frc consts  --      0.7931                 4.4575                 7.3993
 IR Inten    --     14.5599                57.3826                39.6788

                     13                     14                     15
                     A'                     A'                     A'
 Frequencies --   1383.4277              1565.6181              1781.2963
 Red. masses --      1.1211                 7.6614                 9.8847
 Frc consts  --      1.2642                11.0644                18.4793
 IR Inten    --     39.2404                 9.8406               116.1103

                     16                     17                     18
                     A'                     A"                     A'
 Frequencies --   2975.7034              3080.8234              3147.1721
 Red. masses --      1.0482                 1.1195                 1.1237
 Frc consts  --      5.4686                 6.2607                 6.5575
 IR Inten    --    314.0553               144.2467               250.4958

 - Thermochemistry -
 -------------------
 Temperature   298.150 Kelvin.  Pressure   1.00000 Atm.
 Atom     1 has atomic number  6 and mass  12.00000

 Molecular mass:    63.02348 amu.
 Principal axes and moments of inertia in atomic units:
                           1         2         3
     Eigenvalues --    53.56605 590.34266 631.01370
           X           -0.10527   0.99444   0.00000
           Y            0.99444   0.10527   0.00000
           Z           -0.00000  -0.00000   1.00000
 This molecule is an asymmetric top.
 Rotational symmetry number  1.
 Rotational temperatures (Kelvin)      1.61695     0.14672     0.13726
 Rotational constants (GHZ):          33.69188     3.05711     2.86007
 Zero-point vibrational energy     132984.8 (Joules/Mol)
                                   31.78414 (Kcal/Mol)
 Warning -- explicit consideration of   5 degrees of freedom as
           vibrations may cause significant error
 Vibrational temperatures:    217.68   258.30   557.70   626.86   691.59
          (Kelvin)            976.52  1238.33  1338.04  1395.92  1422.56
                             1471.30  1746.00  1990.44  2252.57  2562.88
                             4281.37  4432.61  4528.07

 Zero-point correction=                           0.050651 (Hartree/Particle)
 Thermal correction to Energy=                    0.055930
 Thermal correction to Enthalpy=                  0.056874
 Thermal correction to Gibbs Free Energy=         0.021654
 Sum of electronic and zero-point Energies=           -191.200353
 Sum of electronic and thermal Energies=              -191.195075
 Sum of electronic and thermal Enthalpies=            -191.194130
 Sum of electronic and thermal Free Energies=         -191.229351

                     E (Thermal)             CV                S
                      KCal/Mol        Cal/Mol-Kelvin    Cal/Mol-Kelvin
 Total                   35.097             17.348             74.127
 Electronic               0.000              0.000              2.755
 Translational            0.889              2.981             38.342
 Rotational               0.889              2.981             24.504
 Vibrational             33.319             11.386              8.526
 Vibration     1          0.619              1.901              2.656
 Vibration     2          0.629              1.867              2.333
 Vibration     3          0.756              1.497              1.009
 Vibration     4          0.796              1.392              0.840
 Vibration     5          0.837              1.293              0.708

 Optimization completed.
    -- Stationary point found.
 Normal termination of Gaussian 09 at Tue Jul 19 13:29:39 2016.
