 Gaussian 09, Revision E.01,
 Gaussian 09:  EM64L-G09RevE.01 30-Nov-2015

 ---------------------------------------------
 #p b3lyp/6-311++G(3df,2p) freq symmetry=Loose
 ---------------------------------------------

 ---------
 b3lyp opt
 ---------
 Symbolic Z-matrix:
 Charge =  0 Multiplicity = 4

                         Standard orientation:
 ---------------------------------------------------------------------
 Center     Atomic      Atomic             Coordinates (Angstroms)
 Number     Number       Type             X           Y           Z
 ---------------------------------------------------------------------
      1          6           0       -0.000000   -0.739291   -0.008097
      2          6           0        0.000000    0.739291   -0.008097
      3          6           0       -0.000000   -1.868197   -0.684918
      4          1           0       -0.000000   -2.925105   -0.483078
      5          6           0        0.000000    1.868197   -0.684918
      6          1           0        0.000000    2.925105   -0.483078
      7          6           0        0.000000   -0.000000    1.172129
      8          1           0        0.000000   -0.000000    2.249559
 ---------------------------------------------------------------------

 SCF Done:  E(UB3LYP) =  -192.087399912     A.U. after   14 cycles

 The electronic state is 4-A2.
 Alpha  occ. eigenvalues --  -10.23738 -10.22257 -10.22229 -10.20734 -10.20732
 Alpha  occ. eigenvalues --   -0.92862  -0.75636  -0.73151  -0.59764  -0.52598
 Alpha  occ. eigenvalues --   -0.51484  -0.43062  -0.41761  -0.39241  -0.28378
 Alpha  occ. eigenvalues --   -0.26352  -0.23261  -0.22605
 Alpha virt. eigenvalues --   -0.00779  -0.00432   0.00962   0.01352   0.04877
 Alpha virt. eigenvalues --    0.05012   0.05638   0.06448   0.06500   0.08547
 Alpha virt. eigenvalues --    0.09425   0.09852   0.10068   0.11075   0.11107

  Beta  occ. eigenvalues --  -10.22538 -10.22417 -10.22401 -10.18754 -10.18753
  Beta  occ. eigenvalues --   -0.91311  -0.72349  -0.69039  -0.57812  -0.50428
  Beta  occ. eigenvalues --   -0.49776  -0.40486  -0.39747  -0.36174  -0.24268
  Beta virt. eigenvalues --   -0.11667  -0.10566  -0.08193  -0.00267   0.01164
  Beta virt. eigenvalues --    0.01197   0.01730   0.05183   0.05318   0.05883
  Beta virt. eigenvalues --    0.07782   0.08447   0.09292   0.10272   0.10568

 Mulliken charges and spin densities:
               1          2
     1  C    0.149378  -0.273285
     2  C    0.149378  -0.273285
     3  C   -0.459936   1.376157
     4  H    0.202888   0.019942
     5  C   -0.459936   1.376157
     6  H    0.202888   0.019942
     7  C   -0.036661   0.744054
     8  H    0.252001   0.010318
 Sum of Mulliken charges =  -0.00000   3.00000

 Dipole moment (field-independent basis, Debye):
    X=             -0.0000    Y=              0.0000    Z=              2.1233  Tot=              2.1233
 Quadrupole moment (field-independent basis, Debye-Ang):
   XX=            -31.7740   YY=            -25.1180   ZZ=            -28.3974
   XY=              0.0000   XZ=              0.0000   YZ=             -0.0000

  Exact polarizability:  38.450  -0.000 107.775   0.000   0.000  59.018
 Approx polarizability:  54.034   0.000 172.028  -0.000  -0.000  92.673

                      1                      2                      3
                     A1                     B1                     B2
 Frequencies --    233.8150               282.4381               426.6236
 Red. masses --      3.4538                 2.0516                 2.2359
 Frc consts  --      0.1112                 0.0964                 0.2398
 IR Inten    --      1.9258                34.6201                 0.2382

                      4                      5                      6
                     A2                     A2                     B1
 Frequencies --    503.1583               547.3380               586.3251
 Red. masses --      8.8971                 1.2109                 1.7052
 Frc consts  --      1.3271                 0.2137                 0.3454
 IR Inten    --      0.0000                 0.0000                78.3844

                      7                      8                      9
                     B1                     A1                     B2
 Frequencies --    634.1497               677.1106               801.6561
 Red. masses --      1.2550                 2.2242                 1.7932
 Frc consts  --      0.2974                 0.6008                 0.6790
 IR Inten    --      2.3026                14.1107                88.7527

                     10                     11                     12
                     B2                     A1                     B2
 Frequencies --    871.5890               881.3950              1058.4984
 Red. masses --      2.0698                 2.2363                 1.9237
 Frc consts  --      0.9264                 1.0236                 1.2699
 IR Inten    --      8.7455                17.2888                23.4753

                     13                     14                     15
                     A1                     B2                     A1
 Frequencies --   1125.4621              1401.4988              1736.6753
 Red. masses --      6.6323                 8.0411                 8.8956
 Frc consts  --      4.9497                 9.3057                15.8074
 IR Inten    --      0.0825               196.9044                27.8275

                     16                     17                     18
                     A1                     A1                     B2
 Frequencies --   3231.4800              3251.9284              3252.1977
 Red. masses --      1.1037                 1.0978                 1.0991
 Frc consts  --      6.7907                 6.8398                 6.8492
 IR Inten    --      0.4219                 0.1900                 0.1193

 - Thermochemistry -
 -------------------
 Temperature   298.150 Kelvin.  Pressure   1.00000 Atm.
 Atom     1 has atomic number  6 and mass  12.00000

 Molecular mass:    63.02348 amu.
 Principal axes and moments of inertia in atomic units:
                           1         2         3
     Eigenvalues --   118.88668 407.55651 526.44319
           X            0.00000   0.00000   1.00000
           Y            1.00000   0.00000  -0.00000
           Z           -0.00000   1.00000  -0.00000
 This molecule is an asymmetric top.
 Rotational symmetry number  2.
 Rotational temperatures (Kelvin)      0.72854     0.21252     0.16453
 Rotational constants (GHZ):          15.18035     4.42820     3.42818
 Zero-point vibrational energy     128618.5 (Joules/Mol)
                                   30.74057 (Kcal/Mol)
 Warning -- explicit consideration of   6 degrees of freedom as
           vibrations may cause significant error
 Vibrational temperatures:    336.41   406.36   613.82   723.93   787.50
          (Kelvin)            843.59   912.40   974.21  1153.40  1254.02
                             1268.13  1522.94  1619.29  2016.44  2498.69
                             4649.37  4678.79  4679.18

 Zero-point correction=                           0.048988 (Hartree/Particle)
 Thermal correction to Energy=                    0.054159
 Thermal correction to Enthalpy=                  0.055104
 Thermal correction to Gibbs Free Energy=         0.021002
 Sum of electronic and zero-point Energies=           -192.038412
 Sum of electronic and thermal Energies=              -192.033240
 Sum of electronic and thermal Enthalpies=            -192.032296
 Sum of electronic and thermal Free Energies=         -192.066398

                     E (Thermal)             CV                S
                      KCal/Mol        Cal/Mol-Kelvin    Cal/Mol-Kelvin
 Total                   33.986             18.581             71.773
 Electronic               0.000              0.000              2.755
 Translational            0.889              2.981             38.342
 Rotational               0.889              2.981             23.371
 Vibrational             32.208             12.619              7.306
 Vibration     1          0.654              1.789              1.849
 Vibration     2          0.681              1.706              1.519
 Vibration     3          0.788              1.412              0.870
 Vibration     4          0.858              1.243              0.650
 Vibration     5          0.903              1.146              0.550
 Vibration     6          0.943              1.061              0.474

 Optimization completed.
    -- Stationary point found.
 Normal termination of Gaussian 09 at Tue Jul 19 15:15:38 2016.
