 Gaussian 09, Revision E.01,
 Gaussian 09:  EM64L-G09RevE.01 30-Nov-2015

 ---------------------------------------------
 #p b3lyp/6-311++G(3df,2p) freq symmetry=Loose
 ---------------------------------------------

 ---------
 b3lyp opt
 ---------
 Symbolic Z-matrix:
 Charge =  1 Multiplicity = 3

                         Standard orientation:
 ---------------------------------------------------------------------
 Center     Atomic      Atomic             Coordinates (Angstroms)
 Number     Number       Type             X           Y           Z
 ---------------------------------------------------------------------
      1          6           0       -0.297652   -0.473513    0.793064
      2          6           0       -0.175890    0.809168    0.000000
      3          1           0       -1.077529    1.426715    0.000000
      4          6           0        1.076984    1.485953    0.000000
      5          1           0        1.384882    2.521048    0.000000
      6          6           0       -0.297652   -0.473513   -0.793064
      7          6           0       -0.297652   -1.565810   -0.000000
      8          1           0       -0.356186   -2.641477   -0.000000
 ---------------------------------------------------------------------

 SCF Done:  E(UB3LYP) =  -191.781120943     A.U. after   14 cycles

 The electronic state is 3-A".
 Alpha  occ. eigenvalues --  -10.52143 -10.52127 -10.50533 -10.49838 -10.45763
 Alpha  occ. eigenvalues --   -1.24993  -1.03926  -0.90217  -0.81191  -0.79881
 Alpha  occ. eigenvalues --   -0.74694  -0.70458  -0.68216  -0.61739  -0.54995
 Alpha  occ. eigenvalues --   -0.49836  -0.47279
 Alpha virt. eigenvalues --   -0.32277  -0.27094  -0.26368  -0.15297  -0.13329
 Alpha virt. eigenvalues --   -0.11715  -0.11685  -0.10342  -0.09327  -0.07642
 Alpha virt. eigenvalues --   -0.07421  -0.05789  -0.05301  -0.04326  -0.02639

  Beta  occ. eigenvalues --  -10.51869 -10.51852 -10.50610 -10.49773 -10.42986
  Beta  occ. eigenvalues --   -1.24730  -1.01927  -0.86517  -0.80404  -0.78406
  Beta  occ. eigenvalues --   -0.73729  -0.68660  -0.66942  -0.60981  -0.53849
  Beta virt. eigenvalues --   -0.34256  -0.31130  -0.30721  -0.25797  -0.23743
  Beta virt. eigenvalues --   -0.15112  -0.13196  -0.11257  -0.11113  -0.09844
  Beta virt. eigenvalues --   -0.08725  -0.07204  -0.07115  -0.05440  -0.04600

 Mulliken charges and spin densities:
               1          2
     1  C    0.143055   0.065399
     2  C    0.213437  -0.085878
     3  H    0.250499   0.048394
     4  C   -0.369387   1.851427
     5  H    0.256887   0.003765
     6  C    0.143055   0.065399
     7  C    0.040701   0.050499
     8  H    0.321753   0.000995
 Sum of Mulliken charges =   1.00000   2.00000

 Dipole moment (field-independent basis, Debye):
    X=             -0.5665    Y=             -0.2849    Z=             -0.0000  Tot=              0.6341
 Quadrupole moment (field-independent basis, Debye-Ang):
   XX=            -23.8047   YY=             -8.8552   ZZ=            -28.2659
   XY=              3.2993   XZ=              0.0000   YZ=             -0.0000

  Exact polarizability:  39.230  11.162  59.829  -0.000   0.000  40.677
 Approx polarizability:  60.101  15.672  88.808  -0.000  -0.000  90.211

                      1                      2                      3
                     A'                     A"                     A"
 Frequencies --    224.6067               354.4963               426.1398
 Red. masses --      3.6714                 1.5077                 4.9913
 Frc consts  --      0.1091                 0.1116                 0.5340
 IR Inten    --     16.2946                 5.9845                 8.3393

                      4                      5                      6
                     A"                     A'                     A'
 Frequencies --    536.4338               580.5840               755.2097
 Red. masses --      3.1445                 4.2678                 2.5857
 Frc consts  --      0.5331                 0.8476                 0.8689
 IR Inten    --     73.9702                 1.2242                 8.6245

                      7                      8                      9
                     A'                     A'                     A"
 Frequencies --    830.4522               865.8727              1045.6320
 Red. masses --      1.5304                 1.7856                 1.2949
 Frc consts  --      0.6218                 0.7887                 0.8341
 IR Inten    --     13.3314                45.3168                 0.2671

                     10                     11                     12
                     A"                     A'                     A'
 Frequencies --   1058.8937              1066.5206              1151.0895
 Red. masses --      1.1780                 4.6234                 2.3197
 Frc consts  --      0.7782                 3.0985                 1.8110
 IR Inten    --     13.7004                15.4771                28.1462

                     13                     14                     15
                     A"                     A'                     A'
 Frequencies --   1170.7524              1344.8108              1630.3601
 Red. masses --      7.0046                 1.7450                 6.6479
 Frc consts  --      5.6567                 1.8594                10.4113
 IR Inten    --      2.9089                11.8685                32.7845

                     16                     17                     18
                     A'                     A'                     A'
 Frequencies --   3062.9457              3234.1066              3284.2248
 Red. masses --      1.0855                 1.0937                 1.1226
 Frc consts  --      5.9999                 6.7399                 7.1340
 IR Inten    --     30.7708                83.0744                89.5944

 - Thermochemistry -
 -------------------
 Temperature   298.150 Kelvin.  Pressure   1.00000 Atm.
 Atom     1 has atomic number  6 and mass  12.00000

 Molecular mass:    63.02348 amu.
 Principal axes and moments of inertia in atomic units:
                           1         2         3
     Eigenvalues --    86.93530 376.13504 397.00886
           X            0.36331   0.00000   0.93167
           Y            0.93167   0.00000  -0.36331
           Z           -0.00000   1.00000  -0.00000
 This molecule is an asymmetric top.
 Rotational symmetry number  1.
 Rotational temperatures (Kelvin)      0.99630     0.23027     0.21817
 Rotational constants (GHZ):          20.75959     4.79812     4.54585
 Zero-point vibrational energy     135316.4 (Joules/Mol)
                                   32.34139 (Kcal/Mol)
 Warning -- explicit consideration of   5 degrees of freedom as
           vibrations may cause significant error
 Vibrational temperatures:    323.16   510.04   613.12   771.81   835.33
          (Kelvin)           1086.58  1194.83  1245.80  1504.43  1523.51
                             1534.48  1656.16  1684.45  1934.88  2345.72
                             4406.89  4653.15  4725.26

 Zero-point correction=                           0.051539 (Hartree/Particle)
 Thermal correction to Energy=                    0.056269
 Thermal correction to Enthalpy=                  0.057214
 Thermal correction to Gibbs Free Energy=         0.023698
 Sum of electronic and zero-point Energies=           -191.729582
 Sum of electronic and thermal Energies=              -191.724852
 Sum of electronic and thermal Enthalpies=            -191.723907
 Sum of electronic and thermal Free Energies=         -191.757423

                     E (Thermal)             CV                S
                      KCal/Mol        Cal/Mol-Kelvin    Cal/Mol-Kelvin
 Total                   35.310             16.460             70.539
 Electronic               0.000              0.000              2.183
 Translational            0.889              2.981             38.342
 Rotational               0.889              2.981             24.077
 Vibrational             33.532             10.499              5.937
 Vibration     1          0.649              1.804              1.922
 Vibration     2          0.730              1.566              1.146
 Vibration     3          0.788              1.413              0.871
 Vibration     4          0.891              1.169              0.573
 Vibration     5          0.937              1.073              0.484

 Optimization completed.
    -- Stationary point found.
 Normal termination of Gaussian 09 at Tue Jul 19 20:10:43 2016.
