 Gaussian 09, Revision E.01,
 Gaussian 09:  EM64L-G09RevE.01 30-Nov-2015

 ---------------------------------------------
 #p b3lyp/6-311++G(3df,2p) freq symmetry=Loose
 ---------------------------------------------

 ---------
 b3lyp opt
 ---------
 Symbolic Z-matrix:
 Charge =  1 Multiplicity = 1

                         Standard orientation:
 ---------------------------------------------------------------------
 Center     Atomic      Atomic             Coordinates (Angstroms)
 Number     Number       Type             X           Y           Z
 ---------------------------------------------------------------------
      1          6           0       -0.782661    1.715026   -0.000000
      2          1           0       -0.318783    2.694931    0.000000
      3          1           0       -1.861888    1.645273   -0.000000
      4          6           0       -0.000000    0.627758    0.000000
      5          6           0        1.163861   -0.052135    0.000000
      6          1           0        2.247468   -0.076166    0.000000
      7          6           0        0.073171   -0.896909   -0.000000
      8          6           0       -0.465504   -2.104413   -0.000000
 ---------------------------------------------------------------------

 SCF Done:  E(RB3LYP) =  -191.818531249     A.U. after   14 cycles

 The electronic state is 1-A'.
 Alpha  occ. eigenvalues --  -10.52803 -10.50019 -10.49024 -10.45331 -10.45255
 Alpha  occ. eigenvalues --   -1.19018  -1.00348  -0.97087  -0.83543  -0.76000
 Alpha  occ. eigenvalues --   -0.71045  -0.66446  -0.66032  -0.59217  -0.52742
 Alpha  occ. eigenvalues --   -0.50202
 Alpha virt. eigenvalues --   -0.39270  -0.34234  -0.21358  -0.17287  -0.16022
 Alpha virt. eigenvalues --   -0.14061  -0.12309  -0.11221  -0.09775  -0.09629
 Alpha virt. eigenvalues --   -0.07924  -0.06948  -0.05525  -0.05084  -0.04665

 Mulliken charges:
               1
     1  C   -0.302490
     2  H    0.243252
     3  H    0.238850
     4  C    0.166346
     5  C    0.120254
     6  H    0.331558
     7  C    0.651557
     8  C   -0.449327
 Sum of Mulliken charges =   1.00000

 Dipole moment (field-independent basis, Debye):
    X=              1.6112    Y=              2.7560    Z=              0.0000  Tot=              3.1924
 Quadrupole moment (field-independent basis, Debye-Ang):
   XX=            -16.4120   YY=            -18.7849   ZZ=            -27.2963
   XY=             -4.3921   XZ=              0.0000   YZ=             -0.0000

  Exact polarizability:  47.652  -5.594  94.235  -0.000  -0.000  30.277
 Approx polarizability:  78.289  -9.642 268.161   0.000   0.000  45.304

                      1                      2                      3
                     A'                     A"                     A"
 Frequencies --    104.6915               225.1451               342.3225
 Red. masses --      6.6535                 3.8166                 2.5700
 Frc consts  --      0.0430                 0.1140                 0.1774
 IR Inten    --      3.6298                 0.1397                20.4729

                      4                      5                      6
                     A'                     A"                     A'
 Frequencies --    363.4474               529.6075               579.3877
 Red. masses --      2.6841                 1.4081                 7.7099
 Frc consts  --      0.2089                 0.2327                 1.5249
 IR Inten    --      5.8018                 0.5057                18.2774

                      7                      8                      9
                     A'                     A"                     A"
 Frequencies --    898.7373               919.9967               998.0319
 Red. masses --      1.7102                 1.4462                 1.3394
 Frc consts  --      0.8139                 0.7212                 0.7860
 IR Inten    --     24.7869                 6.3139                32.5737

                     10                     11                     12
                     A'                     A'                     A'
 Frequencies --   1050.9475              1097.3836              1109.8732
 Red. masses --      1.5620                 4.5357                 2.3106
 Frc consts  --      1.0164                 3.2182                 1.6770
 IR Inten    --      8.8033                 5.1437                 0.7319

                     13                     14                     15
                     A'                     A'                     A'
 Frequencies --   1456.2543              1625.8885              1841.0979
 Red. masses --      1.1885                 9.4539                 8.3927
 Frc consts  --      1.4849                14.7246                16.7611
 IR Inten    --     78.0971               845.8925               191.9745

                     16                     17                     18
                     A'                     A'                     A'
 Frequencies --   3137.7450              3209.8964              3245.4654
 Red. masses --      1.0566                 1.1188                 1.1197
 Frc consts  --      6.1289                 6.7920                 6.9487
 IR Inten    --     38.1124                57.5502                24.5702

 - Thermochemistry -
 -------------------
 Temperature   298.150 Kelvin.  Pressure   1.00000 Atm.
 Atom     1 has atomic number  6 and mass  12.00000

 Molecular mass:    63.02348 amu.
 Principal axes and moments of inertia in atomic units:
                           1         2         3
     Eigenvalues --   120.31101 406.70553 527.01655
           X           -0.12566   0.99207   0.00000
           Y            0.99207   0.12566   0.00000
           Z           -0.00000  -0.00000   1.00000
 This molecule is an asymmetric top.
 Rotational symmetry number  1.
 Rotational temperatures (Kelvin)      0.71992     0.21296     0.16435
 Rotational constants (GHZ):          15.00063     4.43746     3.42445
 Zero-point vibrational energy     135991.0 (Joules/Mol)
                                   32.50263 (Kcal/Mol)
 Warning -- explicit consideration of   6 degrees of freedom as
           vibrations may cause significant error
 Vibrational temperatures:    150.63   323.93   492.53   522.92   761.99
          (Kelvin)            833.61  1293.08  1323.67  1435.94  1512.08
                             1578.89  1596.86  2095.22  2339.29  2648.93
                             4514.51  4618.32  4669.49

 Zero-point correction=                           0.051796 (Hartree/Particle)
 Thermal correction to Energy=                    0.057199
 Thermal correction to Enthalpy=                  0.058143
 Thermal correction to Gibbs Free Energy=         0.023766
 Sum of electronic and zero-point Energies=           -191.766735
 Sum of electronic and thermal Energies=              -191.761332
 Sum of electronic and thermal Enthalpies=            -191.760388
 Sum of electronic and thermal Free Energies=         -191.794765

                     E (Thermal)             CV                S
                      KCal/Mol        Cal/Mol-Kelvin    Cal/Mol-Kelvin
 Total                   35.893             17.499             72.353
 Electronic               0.000              0.000              0.000
 Translational            0.889              2.981             38.342
 Rotational               0.889              2.981             24.759
 Vibrational             34.115             11.537              9.252
 Vibration     1          0.605              1.945              3.365
 Vibration     2          0.650              1.803              1.917
 Vibration     3          0.721              1.591              1.201
 Vibration     4          0.737              1.548              1.107
 Vibration     5          0.885              1.184              0.588
 Vibration     6          0.936              1.076              0.486

 Optimization completed.
    -- Stationary point found.
 Normal termination of Gaussian 09 at Tue Jul 19 15:02:56 2016.
