 Gaussian 09, Revision E.01,
 Gaussian 09:  EM64L-G09RevE.01 30-Nov-2015

 ---------------------------------------------
 #p b3lyp/6-311++G(3df,2p) freq symmetry=Loose
 ---------------------------------------------

 ---------
 b3lyp opt
 ---------
 Symbolic Z-matrix:
 Charge =  1 Multiplicity = 3

                         Standard orientation:
 ---------------------------------------------------------------------
 Center     Atomic      Atomic             Coordinates (Angstroms)
 Number     Number       Type             X           Y           Z
 ---------------------------------------------------------------------
      1          6           0        0.000000    0.233285    0.000000
      2          6           0       -1.055817   -0.722161    0.000000
      3          1           0       -2.086761   -0.371257    0.000000
      4          6           0        1.335477    0.556505    0.000000
      5          1           0        2.369553    0.247826    0.000000
      6          6           0       -0.780750   -2.023866    0.000000
      7          6           0        0.422006    1.543810    0.000000
      8          1           0        0.191709    2.597993    0.000000
 ---------------------------------------------------------------------

 SCF Done:  E(UB3LYP) =  -191.811294230     A.U. after   15 cycles

 The electronic state is 3-A'.
 Alpha  occ. eigenvalues --  -10.48780 -10.48091 -10.47544 -10.47465 -10.42915
 Alpha  occ. eigenvalues --   -1.19343  -1.03010  -0.85407  -0.83218  -0.79074
 Alpha  occ. eigenvalues --   -0.72181  -0.64794  -0.63662  -0.61426  -0.58138
 Alpha  occ. eigenvalues --   -0.52473  -0.44897
 Alpha virt. eigenvalues --   -0.30696  -0.26654  -0.16153  -0.14430  -0.13352
 Alpha virt. eigenvalues --   -0.13067  -0.10906  -0.09724  -0.09151  -0.07875
 Alpha virt. eigenvalues --   -0.06350  -0.05381  -0.04349  -0.03702  -0.03590

  Beta  occ. eigenvalues --  -10.48623 -10.47572 -10.47469 -10.44513 -10.42862
  Beta  occ. eigenvalues --   -1.19307  -1.00428  -0.83589  -0.82081  -0.77892
  Beta  occ. eigenvalues --   -0.70252  -0.64988  -0.62296  -0.59454  -0.50934
  Beta virt. eigenvalues --   -0.38025  -0.28060  -0.26821  -0.25744  -0.14897
  Beta virt. eigenvalues --   -0.14278  -0.13339  -0.12858  -0.10737  -0.09797
  Beta virt. eigenvalues --   -0.08810  -0.07149  -0.05915  -0.05327  -0.04008

 Mulliken charges and spin densities:
               1          2
     1  C    0.125644   0.022985
     2  C   -0.154635  -0.197850
     3  H    0.209663   0.062427
     4  C    0.235369  -0.056792
     5  H    0.312891   0.001180
     6  C   -0.087149   2.197460
     7  C    0.044350  -0.029437
     8  H    0.313867   0.000027
 Sum of Mulliken charges =   1.00000   2.00000

 Dipole moment (field-independent basis, Debye):
    X=              1.1986    Y=              1.6438    Z=              0.0000  Tot=              2.0344
 Quadrupole moment (field-independent basis, Debye-Ang):
   XX=            -16.6137   YY=            -13.4096   ZZ=            -26.9885
   XY=              3.3150   XZ=              0.0000   YZ=              0.0000

  Exact polarizability:  48.333   9.677  64.373   0.000  -0.000  29.333
 Approx polarizability:  70.580  10.877 108.090  -0.000  -0.000  42.313

                      1                      2                      3
                     A"                     A'                     A"
 Frequencies --    158.6341               240.2076               422.2730
 Red. masses --      3.6700                 4.5969                 2.4081
 Frc consts  --      0.0544                 0.1563                 0.2530
 IR Inten    --      0.6488                 1.6472                15.6109

                      4                      5                      6
                     A'                     A"                     A'
 Frequencies --    549.4481               754.3635               824.0600
 Red. masses --      5.1025                 1.4237                 2.6703
 Frc consts  --      0.9076                 0.4774                 1.0684
 IR Inten    --      2.2569                 0.7116                 3.7342

                      7                      8                      9
                     A"                     A'                     A"
 Frequencies --    865.2605               985.2747               997.1298
 Red. masses --      1.5277                 1.2926                 1.4313
 Frc consts  --      0.6739                 0.7393                 0.8385
 IR Inten    --     44.7549                12.0250                 0.0276

                     10                     11                     12
                     A'                     A'                     A'
 Frequencies --   1031.8098              1230.0780              1305.7017
 Red. masses --      1.5012                 2.1204                 1.8568
 Frc consts  --      0.9417                 1.8903                 1.8651
 IR Inten    --      5.2801                16.3176                20.5664

                     13                     14                     15
                     A'                     A'                     A'
 Frequencies --   1400.9993              1500.3706              1751.1469
 Red. masses --      7.1916                 9.3603                 6.5127
 Frc consts  --      8.3167                12.4147                11.7667
 IR Inten    --    208.5400                20.0404                71.7082

                     16                     17                     18
                     A'                     A'                     A'
 Frequencies --   3092.4032              3240.1564              3273.1216
 Red. masses --      1.0863                 1.0970                 1.1430
 Frc consts  --      6.1206                 6.7853                 7.2147
 IR Inten    --     14.5791                70.2968                51.1996

 - Thermochemistry -
 -------------------
 Temperature   298.150 Kelvin.  Pressure   1.00000 Atm.
 Atom     1 has atomic number  6 and mass  12.00000

 Molecular mass:    63.02348 amu.
 Principal axes and moments of inertia in atomic units:
                           1         2         3
     Eigenvalues --    84.99037 449.23929 534.22966
           X            0.54693   0.83718   0.00000
           Y            0.83718  -0.54693   0.00000
           Z            0.00000  -0.00000   1.00000
 This molecule is an asymmetric top.
 Rotational symmetry number  1.
 Rotational temperatures (Kelvin)      1.01910     0.19280     0.16213
 Rotational constants (GHZ):          21.23466     4.01733     3.37821
 Zero-point vibrational energy     141293.6 (Joules/Mol)
                                   33.76997 (Kcal/Mol)
 Warning -- explicit consideration of   4 degrees of freedom as
           vibrations may cause significant error
 Vibrational temperatures:    228.24   345.60   607.56   790.53  1085.36
          (Kelvin)           1185.64  1244.92  1417.59  1434.65  1484.54
                             1769.81  1878.61  2015.72  2158.70  2519.51
                             4449.27  4661.86  4709.29

 Zero-point correction=                           0.053816 (Hartree/Particle)
 Thermal correction to Energy=                    0.058630
 Thermal correction to Enthalpy=                  0.059574
 Thermal correction to Gibbs Free Energy=         0.025451
 Sum of electronic and zero-point Energies=           -191.757478
 Sum of electronic and thermal Energies=              -191.752664
 Sum of electronic and thermal Enthalpies=            -191.751720
 Sum of electronic and thermal Free Energies=         -191.785843

                     E (Thermal)             CV                S
                      KCal/Mol        Cal/Mol-Kelvin    Cal/Mol-Kelvin
 Total                   36.791             15.746             71.818
 Electronic               0.000              0.000              2.183
 Translational            0.889              2.981             38.342
 Rotational               0.889              2.981             24.526
 Vibrational             35.014              9.784              6.767
 Vibration     1          0.621              1.893              2.566
 Vibration     2          0.657              1.779              1.801
 Vibration     3          0.785              1.422              0.884
 Vibration     4          0.905              1.141              0.545

 Normal termination of Gaussian 09 at Sun Jun 19 11:04:40 2016.
