 Gaussian 09, Revision E.01,
 Gaussian 09:  EM64L-G09RevE.01 30-Nov-2015

 ---------------------------------------------
 #p b3lyp/6-311++G(3df,2p) freq symmetry=Loose
 ---------------------------------------------

 ---------
 b3lyp opt
 ---------
 Symbolic Z-matrix:
 Charge =  3 Multiplicity = 1

                         Standard orientation:
 ---------------------------------------------------------------------
 Center     Atomic      Atomic             Coordinates (Angstroms)
 Number     Number       Type             X           Y           Z
 ---------------------------------------------------------------------
      1          6           0        1.385363    0.640866    0.000000
      2          1           0        2.012440    0.772493    0.943101
      3          1           0        2.012440    0.772493   -0.943101
      4          6           0        0.309032   -0.552851    0.000000
      5          6           0       -1.022961   -1.173443    0.000000
      6          1           0       -1.548752   -2.170922    0.000000
      7          6           0        0.000000    0.992079    0.000000
      8          6           0       -1.084123    0.197670    0.000000
 ---------------------------------------------------------------------

 SCF Done:  E(RB3LYP) =  -190.395796132     A.U. after   13 cycles

 The electronic state is 1-A'.
 Alpha  occ. eigenvalues --  -11.13900 -11.12904 -11.10513 -11.09947 -11.01939
 Alpha  occ. eigenvalues --   -1.83309  -1.61495  -1.47584  -1.32828  -1.26958
 Alpha  occ. eigenvalues --   -1.25090  -1.24692  -1.20726  -1.13222  -1.11825
 Alpha virt. eigenvalues --   -0.93414  -0.86007  -0.85886  -0.74124  -0.72431
 Alpha virt. eigenvalues --   -0.65832  -0.56630  -0.54522  -0.51783  -0.49442
 Alpha virt. eigenvalues --   -0.48545  -0.47539  -0.43828  -0.41797  -0.40697

 Mulliken charges:
               1
     1  C   -0.022130
     2  H    0.374662
     3  H    0.374662
     4  C    0.407672
     5  C    0.480011
     6  H    0.459618
     7  C    0.547036
     8  C    0.378470
 Sum of Mulliken charges =   3.00000

 Dipole moment (field-independent basis, Debye):
    X=              0.4879    Y=             -0.8440    Z=              0.0000  Tot=              0.9748
 Quadrupole moment (field-independent basis, Debye-Ang):
   XX=              3.6373   YY=             -3.6998   ZZ=            -18.1769
   XY=             13.4825   XZ=              0.0000   YZ=              0.0000

  Exact polarizability:  48.092  10.979  38.317  -0.000  -0.000  22.372
 Approx polarizability: 101.805  16.743  82.948   0.000   0.000  35.262

                      1                      2                      3
                     A'                     A"                     A"
 Frequencies --    272.6410               311.9724               422.2232
 Red. masses --      7.4014                 3.0008                 2.4548
 Frc consts  --      0.3242                 0.1721                 0.2578
 IR Inten    --     14.4400                12.1420                 7.2220

                      4                      5                      6
                     A'                     A'                     A"
 Frequencies --    585.6223               662.5031               829.1796
 Red. masses --      7.1505                 8.7741                 1.5261
 Frc consts  --      1.4448                 2.2690                 0.6182
 IR Inten    --      5.7977                15.3283                 0.5740

                      7                      8                      9
                     A"                     A"                     A'
 Frequencies --    872.5775               893.9339               943.6443
 Red. masses --      1.5305                 1.1861                 9.3705
 Frc consts  --      0.6866                 0.5584                 4.9162
 IR Inten    --     23.4045                 0.0566               115.0729

                     10                     11                     12
                     A'                     A'                     A'
 Frequencies --    969.4163               988.2859              1049.1568
 Red. masses --      1.3057                 2.1146                 1.6498
 Frc consts  --      0.7230                 1.2169                 1.0700
 IR Inten    --     87.4363                24.8182                41.4057

                     13                     14                     15
                     A'                     A'                     A'
 Frequencies --   1150.9215              1383.9948              1621.6877
 Red. masses --      1.1854                 5.6444                 8.0979
 Frc consts  --      0.9251                 6.3699                12.5475
 IR Inten    --    246.6939               233.9082               283.2848

                     16                     17                     18
                     A'                     A"                     A'
 Frequencies --   2598.6120              2628.4894              2823.7352
 Red. masses --      1.0508                 1.1158                 1.1423
 Frc consts  --      4.1808                 4.5419                 5.3662
 IR Inten    --   1111.4739               503.4176               425.7247

 - Thermochemistry -
 -------------------
 Temperature   298.150 Kelvin.  Pressure   1.00000 Atm.
 Atom     1 has atomic number  6 and mass  12.00000

 Molecular mass:    63.02348 amu.
 Principal axes and moments of inertia in atomic units:
                           1         2         3
     Eigenvalues --    91.72757 294.85584 373.77901
           X            0.81118  -0.58479   0.00000
           Y            0.58479   0.81118   0.00000
           Z           -0.00000   0.00000   1.00000
 This molecule is an asymmetric top.
 Rotational symmetry number  1.
 Rotational temperatures (Kelvin)      0.94425     0.29375     0.23172
 Rotational constants (GHZ):          19.67501     6.12076     4.82836
 Zero-point vibrational energy     125659.3 (Joules/Mol)
                                   30.03330 (Kcal/Mol)
 Warning -- explicit consideration of   4 degrees of freedom as
           vibrations may cause significant error
 Vibrational temperatures:    392.27   448.86   607.48   842.58   953.19
          (Kelvin)           1193.00  1255.44  1286.17  1357.69  1394.77
                             1421.92  1509.50  1655.92  1991.26  2333.24
                             3738.82  3781.81  4062.72

 Zero-point correction=                           0.047861 (Hartree/Particle)
 Thermal correction to Energy=                    0.052513
 Thermal correction to Enthalpy=                  0.053457
 Thermal correction to Gibbs Free Energy=         0.021255
 Sum of electronic and zero-point Energies=           -190.347935
 Sum of electronic and thermal Energies=              -190.343283
 Sum of electronic and thermal Enthalpies=            -190.342339
 Sum of electronic and thermal Free Energies=         -190.374541

                     E (Thermal)             CV                S
                      KCal/Mol        Cal/Mol-Kelvin    Cal/Mol-Kelvin
 Total                   32.952             16.348             67.774
 Electronic               0.000              0.000              0.000
 Translational            0.889              2.981             38.342
 Rotational               0.889              2.981             23.829
 Vibrational             31.175             10.386              5.603
 Vibration     1          0.676              1.724              1.579
 Vibration     2          0.700              1.651              1.352
 Vibration     3          0.785              1.422              0.884
 Vibration     4          0.943              1.062              0.475

 Optimization completed.
    -- Stationary point found.
 Normal termination of Gaussian 09 at Sun Jun 19 13:58:54 2016.
