 Gaussian 09, Revision E.01,
 Gaussian 09:  EM64L-G09RevE.01 30-Nov-2015

 ---------------------------------------------
 #p b3lyp/6-311++G(3df,2p) freq symmetry=Loose
 ---------------------------------------------

 ---------
 b3lyp opt
 ---------
 Symbolic Z-matrix:
 Charge =  0 Multiplicity = 2

                         Standard orientation:
 ---------------------------------------------------------------------
 Center     Atomic      Atomic             Coordinates (Angstroms)
 Number     Number       Type             X           Y           Z
 ---------------------------------------------------------------------
      1          6           0        0.194770    0.005396   -0.166221
      2          6           0       -0.783861   -1.072543   -0.254019
      3          6           0       -1.283463   -0.004261    0.499043
      4          6           0       -0.792274    1.071725   -0.251625
      5          6           0        1.652633    0.004494    0.099473
      6          1           0        2.170144   -0.249071   -0.828112
      7          1           0        1.995925    0.981125    0.434869
      8          1           0        1.907100   -0.760924    0.833331
 ---------------------------------------------------------------------

 SCF Done:  E(UB3LYP) =  -192.082973400     A.U. after   17 cycles

 The electronic state is 2-A.
 Alpha  occ. eigenvalues --  -10.28461 -10.26823 -10.24204 -10.24174 -10.21395
 Alpha  occ. eigenvalues --   -1.00632  -0.78753  -0.68249  -0.59377  -0.50204
 Alpha  occ. eigenvalues --   -0.47038  -0.46581  -0.41521  -0.38572  -0.33777
 Alpha  occ. eigenvalues --   -0.27987  -0.26603
 Alpha virt. eigenvalues --   -0.09613  -0.04087  -0.01434  -0.01125   0.02292
 Alpha virt. eigenvalues --    0.02639   0.04029   0.04939   0.05819   0.05937
 Alpha virt. eigenvalues --    0.07324   0.07735   0.10195   0.10946   0.11704

  Beta  occ. eigenvalues --  -10.27986 -10.25572 -10.24044 -10.24018 -10.21371
  Beta  occ. eigenvalues --   -0.99794  -0.78385  -0.67748  -0.57384  -0.48377
  Beta  occ. eigenvalues --   -0.46755  -0.44728  -0.40926  -0.37958  -0.32300
  Beta  occ. eigenvalues --   -0.26025
  Beta virt. eigenvalues --   -0.15395  -0.09452  -0.03068  -0.01192   0.00603
  Beta virt. eigenvalues --    0.02423   0.02685   0.04342   0.05396   0.05903
  Beta virt. eigenvalues --    0.06121   0.07334   0.07893   0.10406   0.11147

 Mulliken charges and spin densities:
               1          2
     1  C    0.517491   0.286808
     2  C   -0.517710   0.009559
     3  C    0.324127   0.677731
     4  C   -0.535151   0.013426
     5  C   -0.281202  -0.009580
     6  H    0.159096   0.007572
     7  H    0.165796   0.003509
     8  H    0.167553   0.010975
 Sum of Mulliken charges =  -0.00000   1.00000

 Dipole moment (field-independent basis, Debye):
    X=              2.8628    Y=             -0.0273    Z=              1.2370  Tot=              3.1188
 Quadrupole moment (field-independent basis, Debye-Ang):
   XX=            -27.8151   YY=            -36.2676   ZZ=            -29.9063
   XY=             -0.0579   XZ=             -0.8837   YZ=             -0.0212

  Exact polarizability:  59.024  -0.250  62.167  -2.320   0.006  41.555
 Approx polarizability:  86.713  -0.629 116.953  -7.970  -0.066  66.122

                      1                      2                      3
                      A                      A                      A
 Frequencies --     28.5833               328.0085               348.0266
 Red. masses --      1.0959                 3.7740                 3.5493
 Frc consts  --      0.0005                 0.2392                 0.2533
 IR Inten    --      0.8683                 0.7759                 0.7762

                      4                      5                      6
                      A                      A                      A
 Frequencies --    514.5830               607.7321               698.9244
 Red. masses --     10.0570                 8.4602                 4.4716
 Frc consts  --      1.5690                 1.8410                 1.2870
 IR Inten    --     11.6703                 0.3321                 3.2377

                      7                      8                      9
                      A                      A                      A
 Frequencies --    819.3867              1019.2998              1024.1657
 Red. masses --      6.0598                 1.7190                 1.7483
 Frc consts  --      2.3971                 1.0523                 1.0804
 IR Inten    --      4.9029                 4.7995                 2.1001

                     10                     11                     12
                      A                      A                      A
 Frequencies --   1202.8474              1209.2951              1395.3039
 Red. masses --      7.4758                 4.6378                 1.1986
 Frc consts  --      6.3728                 3.9960                 1.3748
 IR Inten    --      5.5855                 1.8377                 2.9734

                     13                     14                     15
                      A                      A                      A
 Frequencies --   1432.6354              1471.0174              1481.3028
 Red. masses --      4.4716                 1.0479                 1.2244
 Frc consts  --      5.4073                 1.3360                 1.5830
 IR Inten    --     28.2472                13.3690                 9.0694

                     16                     17                     18
                      A                      A                      A
 Frequencies --   3031.6317              3091.8003              3122.9240
 Red. masses --      1.0344                 1.0987                 1.1040
 Frc consts  --      5.6015                 6.1882                 6.3438
 IR Inten    --      1.7252                 2.4889                 4.1612

 - Thermochemistry -
 -------------------
 Temperature   298.150 Kelvin.  Pressure   1.00000 Atm.
 Atom     1 has atomic number  6 and mass  12.00000

 Molecular mass:    63.02348 amu.
 Principal axes and moments of inertia in atomic units:
                           1         2         3
     Eigenvalues --   127.66249 308.19965 389.11794
           X            0.99995  -0.00071   0.00952
           Y            0.00071   1.00000  -0.00008
           Z           -0.00952   0.00008   0.99995
 This molecule is an asymmetric top.
 Rotational symmetry number  1.
 Rotational temperatures (Kelvin)      0.67846     0.28103     0.22259
 Rotational constants (GHZ):          14.13682     5.85575     4.63803
 Zero-point vibrational energy     136538.6 (Joules/Mol)
                                   32.63350 (Kcal/Mol)
 Warning -- explicit consideration of   5 degrees of freedom as
           vibrations may cause significant error
 Vibrational temperatures:     41.12   471.93   500.73   740.37   874.39
          (Kelvin)           1005.60  1178.91  1466.54  1473.54  1730.63
                             1739.90  2007.53  2061.24  2116.46  2131.26
                             4361.84  4448.41  4493.19

 Zero-point correction=                           0.052005 (Hartree/Particle)
 Thermal correction to Energy=                    0.057148
 Thermal correction to Enthalpy=                  0.058093
 Thermal correction to Gibbs Free Energy=         0.022837
 Sum of electronic and zero-point Energies=           -192.030969
 Sum of electronic and thermal Energies=              -192.025825
 Sum of electronic and thermal Enthalpies=            -192.024881
 Sum of electronic and thermal Free Energies=         -192.060136

                     E (Thermal)             CV                S
                      KCal/Mol        Cal/Mol-Kelvin    Cal/Mol-Kelvin
 Total                   35.861             16.304             74.202
 Electronic               0.000              0.000              1.377
 Translational            0.889              2.981             38.342
 Rotational               0.889              2.981             24.241
 Vibrational             34.084             10.342             10.241
 Vibration     1          0.593              1.984              5.925
 Vibration     2          0.711              1.620              1.270
 Vibration     3          0.726              1.579              1.175
 Vibration     4          0.870              1.218              0.623
 Vibration     5          0.967              1.015              0.437

 Normal termination of Gaussian 09 at Sun Jun 19 07:32:21 2016.
