 Gaussian 09, Revision E.01,
 Gaussian 09:  EM64L-G09RevE.01 30-Nov-2015

 ---------------------------------------------
 #p b3lyp/6-311++G(3df,2p) freq symmetry=Loose
 ---------------------------------------------

 ---------
 b3lyp opt
 ---------
 Symbolic Z-matrix:
 Charge =  2 Multiplicity = 4

                         Standard orientation:
 ---------------------------------------------------------------------
 Center     Atomic      Atomic             Coordinates (Angstroms)
 Number     Number       Type             X           Y           Z
 ---------------------------------------------------------------------
      1          6           0        0.873836   -0.076323    0.065168
      2          6           0        2.114825    0.130452   -0.130724
      3          1           0        2.839632   -0.706962   -0.187684
      4          1           0        2.549252    1.139920   -0.260932
      5          6           0       -0.460194   -0.335247    0.358017
      6          1           0       -0.623035   -1.041162    1.211653
      7          6           0       -1.675303   -0.316737   -0.662607
      8          6           0       -1.647472    0.699223    0.242974
 ---------------------------------------------------------------------

 SCF Done:  E(UB3LYP) =  -191.150204397     A.U. after   18 cycles

 The electronic state is 4-A.
 Alpha  occ. eigenvalues --  -10.81162 -10.81046 -10.75167 -10.74171 -10.66756
 Alpha  occ. eigenvalues --   -1.42990  -1.28233  -1.18290  -1.02010  -1.00115
 Alpha  occ. eigenvalues --   -0.95656  -0.93750  -0.89757  -0.84287  -0.81859
 Alpha  occ. eigenvalues --   -0.80228  -0.74385
 Alpha virt. eigenvalues --   -0.58092  -0.54088  -0.47087  -0.35567  -0.34970
 Alpha virt. eigenvalues --   -0.30121  -0.28997  -0.27214  -0.26402  -0.24978
 Alpha virt. eigenvalues --   -0.22889  -0.22282  -0.21486  -0.20562  -0.19314

  Beta  occ. eigenvalues --  -10.78909 -10.78567 -10.74687 -10.73987 -10.66543
  Beta  occ. eigenvalues --   -1.38807  -1.26817  -1.15983  -0.99127  -0.94427
  Beta  occ. eigenvalues --   -0.92372  -0.90668  -0.88135  -0.76799
  Beta virt. eigenvalues --   -0.67366  -0.65334  -0.63130  -0.55202  -0.45725
  Beta virt. eigenvalues --   -0.44348  -0.34171  -0.31189  -0.29482  -0.27518
  Beta virt. eigenvalues --   -0.26505  -0.25723  -0.24347  -0.22338  -0.21218

 Mulliken charges and spin densities:
               1          2
     1  C    0.313832   0.277385
     2  C   -0.403678   0.145767
     3  H    0.315793   0.007454
     4  H    0.311369   0.007175
     5  C    0.337422  -0.095984
     6  H    0.317854   0.074772
     7  C    0.435740   1.381759
     8  C    0.371669   1.201672
 Sum of Mulliken charges =   2.00000   3.00000

 Dipole moment (field-independent basis, Debye):
    X=              0.9821    Y=             -0.2043    Z=              0.1170  Tot=              1.0099
 Quadrupole moment (field-independent basis, Debye-Ang):
   XX=              9.7432   YY=            -18.4791   ZZ=            -21.5357
   XY=              0.8612   XZ=             -1.0120   YZ=             -1.4769

  Exact polarizability:  86.535  -2.100  35.828   0.083   2.412  33.131
 Approx polarizability: 150.116  -5.760  64.031   0.361   9.579  57.545

                      1                      2                      3
                      A                      A                      A
 Frequencies --    182.7251               208.1220               300.2288
 Red. masses --      3.6728                 5.0260                 1.1424
 Frc consts  --      0.0723                 0.1283                 0.0607
 IR Inten    --      8.1049                 9.4044                23.5871

                      4                      5                      6
                      A                      A                      A
 Frequencies --    394.7772               448.8285               525.8224
 Red. masses --      1.9672                 8.6752                 7.1867
 Frc consts  --      0.1806                 1.0297                 1.1707
 IR Inten    --     14.6480                13.5742                 5.6205

                      7                      8                      9
                      A                      A                      A
 Frequencies --    669.5428               764.5874               867.6886
 Red. masses --      6.1407                 1.9669                 1.4565
 Frc consts  --      1.6219                 0.6775                 0.6461
 IR Inten    --      3.6390                 4.7077                66.5402

                     10                     11                     12
                      A                      A                      A
 Frequencies --    900.3956               963.9261              1163.5523
 Red. masses --      1.3330                 3.2659                 1.2507
 Frc consts  --      0.6367                 1.7879                 0.9976
 IR Inten    --     57.2244                15.3566                31.1327

                     13                     14                     15
                      A                      A                      A
 Frequencies --   1224.6217              1436.9268              1694.7819
 Red. masses --      1.1932                10.4803                 9.6845
 Frc consts  --      1.0543                12.7495                16.3891
 IR Inten    --    109.2976                14.1253                12.7039

                     16                     17                     18
                      A                      A                      A
 Frequencies --   2775.2525              2911.7269              2962.6039
 Red. masses --      1.0738                 1.0607                 1.1038
 Frc consts  --      4.8727                 5.2983                 5.7083
 IR Inten    --    247.8183               540.3378               254.6173

 - Thermochemistry -
 -------------------
 Temperature   298.150 Kelvin.  Pressure   1.00000 Atm.
 Atom     1 has atomic number  6 and mass  12.00000

 Molecular mass:    63.02348 amu.
 Principal axes and moments of inertia in atomic units:
                           1         2         3
     Eigenvalues --    74.62651 553.49838 566.58106
           X            0.99985   0.00384  -0.01701
           Y           -0.01091   0.89890  -0.43801
           Z            0.01361   0.43813   0.89881
 This molecule is an asymmetric top.
 Rotational symmetry number  1.
 Rotational temperatures (Kelvin)      1.16063     0.15648     0.15287
 Rotational constants (GHZ):          24.18365     3.26061     3.18532
 Zero-point vibrational energy     121995.8 (Joules/Mol)
                                   29.15770 (Kcal/Mol)
 Warning -- explicit consideration of   6 degrees of freedom as
           vibrations may cause significant error
 Vibrational temperatures:    262.90   299.44   431.96   568.00   645.76
          (Kelvin)            756.54   963.32  1100.07  1248.41  1295.47
                             1386.87  1674.09  1761.96  2067.41  2438.41
                             3992.96  4189.32  4262.52

 Zero-point correction=                           0.046466 (Hartree/Particle)
 Thermal correction to Energy=                    0.052055
 Thermal correction to Enthalpy=                  0.052999
 Thermal correction to Gibbs Free Energy=         0.017360
 Sum of electronic and zero-point Energies=           -191.103739
 Sum of electronic and thermal Energies=              -191.098150
 Sum of electronic and thermal Enthalpies=            -191.097205
 Sum of electronic and thermal Free Energies=         -191.132844

                     E (Thermal)             CV                S
                      KCal/Mol        Cal/Mol-Kelvin    Cal/Mol-Kelvin
 Total                   32.665             18.978             75.008
 Electronic               0.000              0.000              2.755
 Translational            0.889              2.981             38.342
 Rotational               0.889              2.981             24.663
 Vibrational             30.887             13.017              9.249
 Vibration     1          0.630              1.863              2.300
 Vibration     2          0.641              1.828              2.060
 Vibration     3          0.693              1.673              1.416
 Vibration     4          0.762              1.481              0.982
 Vibration     5          0.808              1.363              0.799
 Vibration     6          0.881              1.193              0.597

 Optimization completed.
    -- Stationary point found.
 Normal termination of Gaussian 09 at Sun Jun 19 12:36:21 2016.
