 Gaussian 09, Revision E.01,
 Gaussian 09:  EM64L-G09RevE.01 30-Nov-2015

 ---------------------------------------------
 #p b3lyp/6-311++G(3df,2p) freq symmetry=Loose
 ---------------------------------------------

 ---------
 b3lyp opt
 ---------
 Symbolic Z-matrix:
 Charge =  2 Multiplicity = 4

                         Standard orientation:
 ---------------------------------------------------------------------
 Center     Atomic      Atomic             Coordinates (Angstroms)
 Number     Number       Type             X           Y           Z
 ---------------------------------------------------------------------
      1          6           0       -1.974836   -0.123797   -0.091860
      2          1           0       -2.875136    0.472590   -0.246807
      3          6           0       -0.608729   -0.059815    0.013731
      4          6           0        0.523468    0.883280    0.066415
      5          1           0        0.610361    1.897098    0.480403
      6          6           0        1.515320   -0.113423   -0.197313
      7          1           0        2.572631   -0.155036   -0.461428
      8          6           0        0.493468   -0.955354    0.246999
 ---------------------------------------------------------------------

 SCF Done:  E(UB3LYP) =  -191.235818890     A.U. after   15 cycles

 The electronic state is 4-A.
 Alpha  occ. eigenvalues --  -10.78765 -10.76403 -10.76312 -10.74986 -10.74190
 Alpha  occ. eigenvalues --   -1.46496  -1.27178  -1.13861  -1.12855  -0.99415
 Alpha  occ. eigenvalues --   -0.97467  -0.94282  -0.93180  -0.90208  -0.78747
 Alpha  occ. eigenvalues --   -0.77147  -0.73025
 Alpha virt. eigenvalues --   -0.57249  -0.56327  -0.43832  -0.33115  -0.32293
 Alpha virt. eigenvalues --   -0.30371  -0.29348  -0.28656  -0.27188  -0.24935
 Alpha virt. eigenvalues --   -0.24389  -0.22609  -0.21449  -0.20943  -0.20199

  Beta  occ. eigenvalues --  -10.77038 -10.75958 -10.75849 -10.74521 -10.71813
  Beta  occ. eigenvalues --   -1.44552  -1.22515  -1.11419  -1.09990  -0.97434
  Beta  occ. eigenvalues --   -0.93625  -0.92474  -0.91490  -0.86947
  Beta virt. eigenvalues --   -0.65616  -0.61911  -0.55830  -0.53351  -0.50505
  Beta virt. eigenvalues --   -0.38965  -0.31500  -0.31262  -0.29551  -0.28344
  Beta virt. eigenvalues --   -0.27522  -0.26277  -0.24442  -0.23529  -0.21577

 Mulliken charges and spin densities:
               1          2
     1  C   -0.129841   1.352293
     2  H    0.349798  -0.006216
     3  C    0.472406   0.276124
     4  C    0.184496   0.202290
     5  H    0.327394   0.029881
     6  C    0.036941   0.253698
     7  H    0.375475   0.002994
     8  C    0.383331   0.888937
 Sum of Mulliken charges =   2.00000   3.00000

 Dipole moment (field-independent basis, Debye):
    X=             -0.0051    Y=              1.4603    Z=             -0.2321  Tot=              1.4786
 Quadrupole moment (field-independent basis, Debye-Ang):
   XX=              5.1145   YY=            -16.3898   ZZ=            -23.0036
   XY=             -1.1445   XZ=             -0.2251   YZ=              0.8716

  Exact polarizability:  67.041  -0.189  38.318  -0.604  -0.156  24.562
 Approx polarizability: 109.710   1.201  71.383  -3.415  -2.497  37.463

                      1                      2                      3
                      A                      A                      A
 Frequencies --    240.8151               353.3536               488.6588
 Red. masses --      3.0910                 2.4686                 3.3861
 Frc consts  --      0.1056                 0.1816                 0.4764
 IR Inten    --     10.5375                10.8925                 6.6690

                      4                      5                      6
                      A                      A                      A
 Frequencies --    635.0401               665.2246               721.3257
 Red. masses --      1.7143                 2.0587                 1.6607
 Frc consts  --      0.4073                 0.5368                 0.5091
 IR Inten    --     21.9218                13.5844                34.3330

                      7                      8                      9
                      A                      A                      A
 Frequencies --    866.6262               905.5758               933.1447
 Red. masses --      2.1864                 1.9291                 2.6311
 Frc consts  --      0.9675                 0.9321                 1.3499
 IR Inten    --     25.0732                 4.9830                17.7157

                     10                     11                     12
                      A                      A                      A
 Frequencies --    994.9506              1042.7299              1133.8081
 Red. masses --      1.5667                 2.6104                 1.5407
 Frc consts  --      0.9138                 1.6723                 1.1669
 IR Inten    --      5.0461                11.6700                18.3126

                     13                     14                     15
                      A                      A                      A
 Frequencies --   1214.5471              1356.1098              1576.4475
 Red. masses --      2.7001                 5.3824                 8.5607
 Frc consts  --      2.3467                 5.8320                12.5349
 IR Inten    --     57.2806               108.0691                 3.6299

                     16                     17                     18
                      A                      A                      A
 Frequencies --   3053.6125              3146.1031              3152.4844
 Red. masses --      1.0980                 1.1058                 1.1110
 Frc consts  --      6.0321                 6.4484                 6.5052
 IR Inten    --    178.8513               382.1819               107.4424

 - Thermochemistry -
 -------------------
 Temperature   298.150 Kelvin.  Pressure   1.00000 Atm.
 Atom     1 has atomic number  6 and mass  12.00000

 Molecular mass:    63.02348 amu.
 Principal axes and moments of inertia in atomic units:
                           1         2         3
     Eigenvalues --    94.11314 365.04212 446.07752
           X            0.99997  -0.00761  -0.00209
           Y            0.00768   0.99926   0.03760
           Z            0.00180  -0.03762   0.99929
 This molecule is an asymmetric top.
 Rotational symmetry number  1.
 Rotational temperatures (Kelvin)      0.92032     0.23727     0.19417
 Rotational constants (GHZ):          19.17629     4.94393     4.04580
 Zero-point vibrational energy     134463.6 (Joules/Mol)
                                   32.13757 (Kcal/Mol)
 Warning -- explicit consideration of   3 degrees of freedom as
           vibrations may cause significant error
 Vibrational temperatures:    346.48   508.40   703.07   913.68   957.11
          (Kelvin)           1037.83  1246.88  1302.92  1342.59  1431.51
                             1500.25  1631.29  1747.46  1951.14  2268.15
                             4393.46  4526.54  4535.72

 Zero-point correction=                           0.051214 (Hartree/Particle)
 Thermal correction to Energy=                    0.055791
 Thermal correction to Enthalpy=                  0.056735
 Thermal correction to Gibbs Free Energy=         0.023136
 Sum of electronic and zero-point Energies=           -191.184604
 Sum of electronic and thermal Energies=              -191.180028
 Sum of electronic and thermal Enthalpies=            -191.179084
 Sum of electronic and thermal Free Energies=         -191.212683

                     E (Thermal)             CV                S
                      KCal/Mol        Cal/Mol-Kelvin    Cal/Mol-Kelvin
 Total                   35.009             16.067             70.715
 Electronic               0.000              0.000              2.755
 Translational            0.889              2.981             38.342
 Rotational               0.889              2.981             24.242
 Vibrational             33.232             10.106              5.376
 Vibration     1          0.658              1.778              1.797
 Vibration     2          0.730              1.568              1.151
 Vibration     3          0.845              1.275              0.687

 Optimization completed.
    -- Stationary point found.
 Normal termination of Gaussian 09 at Sun Jun 19 13:06:25 2016.
