 Gaussian 09, Revision E.01,
 Gaussian 09:  EM64L-G09RevE.01 30-Nov-2015

 ------------------------------------------------------
 #p b3lyp/6-311++G(3df,2p) freq IOp(2/17=3) IOp(2/18=3)
 ------------------------------------------------------

 ---------
 b3lyp opt
 ---------
 Symbolic Z-matrix:
 Charge =  0 Multiplicity = 4

                         Standard orientation:
 ---------------------------------------------------------------------
 Center     Atomic      Atomic             Coordinates (Angstroms)
 Number     Number       Type             X           Y           Z
 ---------------------------------------------------------------------
      1          6           0        1.245503    0.368870    0.000000
      2          6           0        0.000000    0.958047    0.000000
      3          6           0        0.213728   -0.489079    0.000000
      4          6           0       -0.838170    2.085429    0.000000
      5          6           0       -0.359866   -1.834783    0.000000
      6          1           0       -0.994113   -1.967386   -0.878704
      7          1           0        0.420762   -2.596095    0.000000
      8          1           0       -0.994113   -1.967386    0.878704
 ---------------------------------------------------------------------

 SCF Done:  E(UB3LYP) =  -192.036064829     A.U. after   19 cycles

 The electronic state is 4-A".
 Alpha  occ. eigenvalues --  -10.28388 -10.26157 -10.26075 -10.22929 -10.20217
 Alpha  occ. eigenvalues --   -0.97291  -0.80076  -0.72772  -0.56531  -0.52614
 Alpha  occ. eigenvalues --   -0.49029  -0.45804  -0.43265  -0.41664  -0.32632
 Alpha  occ. eigenvalues --   -0.30468  -0.24863  -0.19036
 Alpha virt. eigenvalues --   -0.06186  -0.02367   0.00393   0.01621   0.01997
 Alpha virt. eigenvalues --    0.02785   0.05131   0.06164   0.06328   0.06911
 Alpha virt. eigenvalues --    0.07892   0.08507   0.09752   0.09906   0.10691

  Beta  occ. eigenvalues --  -10.27612 -10.25731 -10.24748 -10.22933 -10.17916
  Beta  occ. eigenvalues --   -0.95330  -0.79501  -0.66866  -0.54865  -0.49821
  Beta  occ. eigenvalues --   -0.48174  -0.42699  -0.41025  -0.39168  -0.25381
  Beta virt. eigenvalues --   -0.18420  -0.13319  -0.04330  -0.03255  -0.02230
  Beta virt. eigenvalues --    0.01864   0.01939   0.03189   0.03778   0.05766
  Beta virt. eigenvalues --    0.06504   0.06644   0.07400   0.08699   0.09355

 Mulliken charges and spin densities:
               1          2
     1  C   -0.236172   0.799212
     2  C    0.685250   0.124710
     3  C    0.164077   0.484829
     4  C   -0.743802   1.517052
     5  C   -0.373387   0.025460
     6  H    0.172251   0.010130
     7  H    0.159532   0.028477
     8  H    0.172251   0.010130
 Sum of Mulliken charges =  -0.00000   3.00000

 Dipole moment (field-independent basis, Debye):
    X=              0.4843    Y=             -5.5408    Z=              0.0000  Tot=              5.5619
 Quadrupole moment (field-independent basis, Debye-Ang):
   XX=            -32.9600   YY=            -36.0266   ZZ=            -29.0410
   XY=              4.8796   XZ=             -0.0000   YZ=             -0.0000

  Exact polarizability:  99.561 -34.001 102.811  -0.000   0.000  42.749
 Approx polarizability: 152.061 -56.732 153.571  -0.000  -0.000  60.526

                      1                      2                      3
                     A"                     A'                     A"
 Frequencies --     82.9930               204.5051               266.1605
 Red. masses --      1.0939                 4.1215                 5.2391
 Frc consts  --      0.0044                 0.1016                 0.2187
 IR Inten    --      0.9884                 2.1216                 9.1781

                      4                      5                      6
                     A"                     A'                     A'
 Frequencies --    426.1860               445.6141               500.5282
 Red. masses --      5.3195                10.6095                 4.4060
 Frc consts  --      0.5693                 1.2413                 0.6504
 IR Inten    --     11.8112               273.8389               166.2277

                      7                      8                      9
                     A'                     A'                     A"
 Frequencies --    835.8125               953.9462              1021.5652
 Red. masses --      5.3826                 5.3930                 1.4638
 Frc consts  --      2.2155                 2.8916                 0.9000
 IR Inten    --     74.5662                32.5146                 1.3872

                     10                     11                     12
                     A'                     A'                     A'
 Frequencies --   1070.2997              1395.5389              1423.4630
 Red. masses --      1.7168                 1.2386                 4.4855
 Frc consts  --      1.1587                 1.4212                 5.3549
 IR Inten    --     80.5321                 0.7268                32.7839

                     13                     14                     15
                     A"                     A'                     A'
 Frequencies --   1461.2884              1466.7895              1693.6105
 Red. masses --      1.0412                 1.1894                11.5976
 Frc consts  --      1.3099                 1.5077                19.5996
 IR Inten    --     11.9395                 0.7421                49.2798

                     16                     17                     18
                     A'                     A"                     A'
 Frequencies --   3022.2916              3084.0276              3098.3878
 Red. masses --      1.0329                 1.0988                 1.1035
 Frc consts  --      5.5586                 6.1576                 6.2414
 IR Inten    --      2.8845                 0.2147                 8.6806

 - Thermochemistry -
 -------------------
 Temperature   298.150 Kelvin.  Pressure   1.00000 Atm.
 Atom     1 has atomic number  6 and mass  12.00000

 Molecular mass:    63.02348 amu.
 Principal axes and moments of inertia in atomic units:
                           1         2         3
     Eigenvalues --   115.79715 442.80083 547.48249
           X           -0.06689   0.99776   0.00000
           Y            0.99776   0.06689   0.00000
           Z           -0.00000  -0.00000   1.00000
 This molecule is an asymmetric top.
 Rotational symmetry number  1.
 Rotational temperatures (Kelvin)      0.74798     0.19560     0.15820
 Rotational constants (GHZ):          15.58537     4.07574     3.29644
 Zero-point vibrational energy     134298.8 (Joules/Mol)
                                   32.09819 (Kcal/Mol)
 Warning -- explicit consideration of   6 degrees of freedom as
           vibrations may cause significant error
 Vibrational temperatures:    119.41   294.24   382.95   613.19   641.14
          (Kelvin)            720.15  1202.55  1372.51  1469.80  1539.92
                             2007.87  2048.04  2102.47  2110.38  2436.72
                             4348.40  4437.22  4457.88

 Zero-point correction=                           0.051152 (Hartree/Particle)
 Thermal correction to Energy=                    0.056748
 Thermal correction to Enthalpy=                  0.057693
 Thermal correction to Gibbs Free Energy=         0.021428
 Sum of electronic and zero-point Energies=           -191.984913
 Sum of electronic and thermal Energies=              -191.979316
 Sum of electronic and thermal Enthalpies=            -191.978372
 Sum of electronic and thermal Free Energies=         -192.014637

                     E (Thermal)             CV                S
                      KCal/Mol        Cal/Mol-Kelvin    Cal/Mol-Kelvin
 Total                   35.610             17.621             76.325
 Electronic               0.000              0.000              2.755
 Translational            0.889              2.981             38.342
 Rotational               0.889              2.981             24.843
 Vibrational             33.833             11.660             10.385
 Vibration     1          0.600              1.961              3.819
 Vibration     2          0.640              1.833              2.092
 Vibration     3          0.672              1.735              1.621
 Vibration     4          0.788              1.413              0.871
 Vibration     5          0.805              1.371              0.809
 Vibration     6          0.856              1.249              0.657

 Optimization completed.
    -- Stationary point found.
 Normal termination of Gaussian 09 at Thu Jan 31 05:35:06 2019.
