 Gaussian 09, Revision E.01,
 Gaussian 09:  EM64L-G09RevE.01 30-Nov-2015

 ---------------------------------------------
 #p b3lyp/6-311++G(3df,2p) freq symmetry=Loose
 ---------------------------------------------

 ---------
 b3lyp opt
 ---------
 Symbolic Z-matrix:
 Charge =  2 Multiplicity = 2

                         Standard orientation:
 ---------------------------------------------------------------------
 Center     Atomic      Atomic             Coordinates (Angstroms)
 Number     Number       Type             X           Y           Z
 ---------------------------------------------------------------------
      1          6           0       -0.061215   -1.117235    0.250924
      2          6           0        1.140125   -0.359271    0.039952
      3          1           0        2.166035   -0.714784   -0.070627
      4          6           0        0.591612    0.947186   -0.094010
      5          1           0        1.089200    1.888553   -0.337522
      6          6           0       -1.090812   -0.584880   -0.387887
      7          6           0       -0.861234    0.704589    0.134459
      8          1           0       -1.566089    1.283898    0.747525
 ---------------------------------------------------------------------

 SCF Done:  E(UB3LYP) =  -191.248116147     A.U. after   20 cycles

 The electronic state is 2-A.
 Alpha  occ. eigenvalues --  -10.80138 -10.79404 -10.77996 -10.76269 -10.75698
 Alpha  occ. eigenvalues --   -1.47101  -1.26544  -1.22793  -1.07108  -1.02697
 Alpha  occ. eigenvalues --   -1.01257  -0.95537  -0.91558  -0.90092  -0.81566
 Alpha  occ. eigenvalues --   -0.78358
 Alpha virt. eigenvalues --   -0.63398  -0.61329  -0.54069  -0.48778  -0.32806
 Alpha virt. eigenvalues --   -0.31133  -0.30411  -0.29609  -0.27595  -0.26080
 Alpha virt. eigenvalues --   -0.25815  -0.24633  -0.23572  -0.22548  -0.21229

  Beta  occ. eigenvalues --  -10.79365 -10.78938 -10.78145 -10.76110 -10.75033
  Beta  occ. eigenvalues --   -1.46147  -1.25465  -1.21489  -1.06344  -1.02301
  Beta  occ. eigenvalues --   -0.99976  -0.94426  -0.90973  -0.88070  -0.80370
  Beta virt. eigenvalues --   -0.66926  -0.63837  -0.58728  -0.51818  -0.45762
  Beta virt. eigenvalues --   -0.32499  -0.30812  -0.29956  -0.29201  -0.27324
  Beta virt. eigenvalues --   -0.25757  -0.25663  -0.24331  -0.23101  -0.22347

 Mulliken charges and spin densities:
               1          2
     1  C    0.428226   0.645649
     2  C    0.022587   0.071977
     3  H    0.333803  -0.001841
     4  C    0.132763   0.423158
     5  H    0.317879  -0.001850
     6  C    0.415524  -0.180887
     7  C    0.046051   0.047004
     8  H    0.303167  -0.003211
 Sum of Mulliken charges =   2.00000   1.00000

 Dipole moment (field-independent basis, Debye):
    X=              0.6725    Y=              1.2977    Z=              0.5133  Tot=              1.5491
 Quadrupole moment (field-independent basis, Debye-Ang):
   XX=             -8.5876   YY=            -11.2638   ZZ=            -22.9635
   XY=             -1.9060   XZ=             -2.0019   YZ=              0.2400

  Exact polarizability:  50.013   1.503  46.244   0.907  -0.344  26.361
 Approx polarizability: 103.012   4.672  93.683  10.947  -1.134  45.526

                      1                      2                      3
                      A                      A                      A
 Frequencies --    286.3317               418.1941               457.9746
 Red. masses --      2.3296                 3.1886                 5.3268
 Frc consts  --      0.1125                 0.3286                 0.6583
 IR Inten    --      8.1585                16.3202                 6.3727

                      4                      5                      6
                      A                      A                      A
 Frequencies --    726.9910               847.1852               884.3489
 Red. masses --      5.2183                 1.6939                 1.7930
 Frc consts  --      1.6249                 0.7163                 0.8262
 IR Inten    --      4.1886                30.9526                16.5061

                      7                      8                      9
                      A                      A                      A
 Frequencies --    963.7745              1003.1093              1043.7741
 Red. masses --      1.6787                 1.8261                 1.4241
 Frc consts  --      0.9187                 1.0826                 0.9141
 IR Inten    --      4.0791                 2.0133                 3.8093

                     10                     11                     12
                      A                      A                      A
 Frequencies --   1078.9269              1157.4544              1207.5951
 Red. masses --      3.1856                 1.9256                 2.9878
 Frc consts  --      2.1848                 1.5199                 2.5671
 IR Inten    --     17.8191                22.5460                21.6099

                     13                     14                     15
                      A                      A                      A
 Frequencies --   1288.0659              1321.9561              1373.1514
 Red. masses --      1.6204                 2.6014                 8.9550
 Frc consts  --      1.5839                 2.6785                 9.9484
 IR Inten    --     78.9833               156.0764                 3.4980

                     16                     17                     18
                      A                      A                      A
 Frequencies --   3050.8194              3114.1367              3136.6710
 Red. masses --      1.0963                 1.0964                 1.1057
 Frc consts  --      6.0120                 6.2644                 6.4093
 IR Inten    --    209.6472               143.1284               144.6610

 - Thermochemistry -
 -------------------
 Temperature   298.150 Kelvin.  Pressure   1.00000 Atm.
 Atom     1 has atomic number  6 and mass  12.00000

 Molecular mass:    63.02348 amu.
 Principal axes and moments of inertia in atomic units:
                           1         2         3
     Eigenvalues --   165.43864 197.06766 337.35576
           X            0.98633  -0.16095  -0.03518
           Y            0.16142   0.98682   0.01095
           Z            0.03296  -0.01648   0.99932
 This molecule is an asymmetric top.
 Rotational symmetry number  1.
 Rotational temperatures (Kelvin)      0.52354     0.43951     0.25674
 Rotational constants (GHZ):          10.90882     9.15798     5.34967
 Zero-point vibrational energy     139726.6 (Joules/Mol)
                                   33.39545 (Kcal/Mol)
 Warning -- explicit consideration of   3 degrees of freedom as
           vibrations may cause significant error
 Vibrational temperatures:    411.97   601.69   658.92  1045.98  1218.91
          (Kelvin)           1272.38  1386.65  1443.25  1501.76  1552.33
                             1665.32  1737.46  1853.24  1902.00  1975.66
                             4389.44  4480.54  4512.96

 Zero-point correction=                           0.053219 (Hartree/Particle)
 Thermal correction to Energy=                    0.057467
 Thermal correction to Enthalpy=                  0.058411
 Thermal correction to Gibbs Free Energy=         0.026148
 Sum of electronic and zero-point Energies=           -191.194897
 Sum of electronic and thermal Energies=              -191.190649
 Sum of electronic and thermal Enthalpies=            -191.189705
 Sum of electronic and thermal Free Energies=         -191.221968

                     E (Thermal)             CV                S
                      KCal/Mol        Cal/Mol-Kelvin    Cal/Mol-Kelvin
 Total                   36.061             14.576             67.904
 Electronic               0.000              0.000              1.377
 Translational            0.889              2.981             38.342
 Rotational               0.889              2.981             23.912
 Vibrational             34.284              8.614              4.272
 Vibration     1          0.684              1.699              1.496
 Vibration     2          0.781              1.431              0.898
 Vibration     3          0.816              1.343              0.772

 Optimization completed.
    -- Stationary point found.
 Normal termination of Gaussian 09 at Sun Jun 19 12:07:49 2016.
