 Gaussian 09, Revision E.01,
 Gaussian 09:  EM64L-G09RevE.01 30-Nov-2015

 ---------------------------------------------
 #p b3lyp/6-311++G(3df,2p) freq symmetry=Loose
 ---------------------------------------------

 ---------
 b3lyp opt
 ---------
 Symbolic Z-matrix:
 Charge =  3 Multiplicity = 3

                         Standard orientation:
 ---------------------------------------------------------------------
 Center     Atomic      Atomic             Coordinates (Angstroms)
 Number     Number       Type             X           Y           Z
 ---------------------------------------------------------------------
      1          6           0        0.005016    2.033496   -0.000000
      2          1           0        0.970945    2.581008   -0.000000
      3          1           0       -0.957505    2.587116   -0.000000
      4          6           0        0.000000    0.598702   -0.000000
      5          6           0        0.796788   -0.622232    0.000000
      6          6           0       -0.003918   -1.771256    0.000000
      7          1           0       -0.008181   -2.897216    0.000000
      8          6           0       -0.798762   -0.617195    0.000000
 ---------------------------------------------------------------------

 SCF Done:  E(UB3LYP) =  -190.413367814     A.U. after   15 cycles

 The electronic state is 3-A".
 Alpha  occ. eigenvalues --  -11.12494 -11.12477 -11.06157 -11.04536 -10.98443
 Alpha  occ. eigenvalues --   -1.79046  -1.54152  -1.43150  -1.35892  -1.24433
 Alpha  occ. eigenvalues --   -1.21723  -1.21091  -1.18582  -1.12104  -1.10887
 Alpha  occ. eigenvalues --   -1.02959
 Alpha virt. eigenvalues --   -0.86219  -0.82621  -0.82324  -0.68331  -0.60848
 Alpha virt. eigenvalues --   -0.55729  -0.51236  -0.49552  -0.49178  -0.48646
 Alpha virt. eigenvalues --   -0.43840  -0.42415  -0.42249  -0.40416  -0.39235

  Beta  occ. eigenvalues --  -11.11322 -11.11311 -11.05326 -11.04125 -10.98047
  Beta  occ. eigenvalues --   -1.77448  -1.51704  -1.41516  -1.31437  -1.23198
  Beta  occ. eigenvalues --   -1.20794  -1.17720  -1.17666  -1.10413
  Beta virt. eigenvalues --   -0.96407  -0.91755  -0.83807  -0.77888  -0.75753
  Beta virt. eigenvalues --   -0.63068  -0.58468  -0.54909  -0.50667  -0.48718
  Beta virt. eigenvalues --   -0.48271  -0.46829  -0.43412  -0.41904  -0.41577

 Mulliken charges and spin densities:
               1          2
     1  C   -0.408970   0.359592
     2  H    0.369614  -0.009874
     3  H    0.369350  -0.009863
     4  C    0.154295   0.689101
     5  C    1.250428   0.298164
     6  C   -0.436260   0.368664
     7  H    0.445825   0.013134
     8  C    1.255718   0.291082
 Sum of Mulliken charges =   3.00000   2.00000

 Dipole moment (field-independent basis, Debye):
    X=              0.0006    Y=              0.0560    Z=              0.0000  Tot=              0.0560
 Quadrupole moment (field-independent basis, Debye-Ang):
   XX=            -13.6929   YY=             27.4098   ZZ=            -21.3908
   XY=              0.0992   XZ=             -0.0000   YZ=             -0.0000

  Exact polarizability:  31.300   0.087  68.267  -0.000   0.000  20.934
 Approx polarizability:  69.923   0.105 109.864  -0.000  -0.000  32.142

                      1                      2                      3
                     A"                     A"                     A'
 Frequencies --    237.7314               240.8110               340.6376
 Red. masses --      1.1352                 3.4929                 2.9978
 Frc consts  --      0.0378                 0.1193                 0.2049
 IR Inten    --      0.3874                19.6267                10.4919

                      4                      5                      6
                     A'                     A"                     A'
 Frequencies --    446.2221               526.7786               697.5741
 Red. masses --      5.4277                 7.0075                 5.9939
 Frc consts  --      0.6367                 1.1457                 1.7185
 IR Inten    --      1.8328                 4.0476                38.5462

                      7                      8                      9
                     A"                     A'                     A'
 Frequencies --    785.6801               792.2397               979.8503
 Red. masses --      1.2951                 4.7684                 1.2620
 Frc consts  --      0.4710                 1.7633                 0.7139
 IR Inten    --     39.7551                 9.8881                49.3274

                     10                     11                     12
                     A'                     A'                     A"
 Frequencies --    992.7396              1012.8059              1091.4799
 Red. masses --      8.7451                 1.6088                 1.3250
 Frc consts  --      5.0779                 0.9723                 0.9300
 IR Inten    --     35.9288                 2.1108                18.3763

                     13                     14                     15
                     A'                     A'                     A'
 Frequencies --   1348.1755              1369.7832              1414.0930
 Red. masses --      6.1262                 1.3482                 4.1665
 Frc consts  --      6.5604                 1.4905                 4.9088
 IR Inten    --    149.7686                24.5583                73.7314

                     16                     17                     18
                     A'                     A'                     A'
 Frequencies --   2800.6534              2885.9689              3000.8720
 Red. masses --      1.1255                 1.0486                 1.1313
 Frc consts  --      5.2011                 5.1459                 6.0023
 IR Inten    --    873.2005               316.6426               244.6129

 - Thermochemistry -
 -------------------
 Temperature   298.150 Kelvin.  Pressure   1.00000 Atm.
 Atom     1 has atomic number  6 and mass  12.00000

 Molecular mass:    63.02348 amu.
 Principal axes and moments of inertia in atomic units:
                           1         2         3
     Eigenvalues --    61.23975 437.90806 499.14782
           X            0.00213   1.00000   0.00000
           Y            1.00000  -0.00213   0.00000
           Z            0.00000   0.00000   1.00000
 This molecule is an asymmetric top.
 Rotational symmetry number  1.
 Rotational temperatures (Kelvin)      1.41434     0.19779     0.17352
 Rotational constants (GHZ):          29.47009     4.12128     3.61564
 Zero-point vibrational energy     125393.1 (Joules/Mol)
                                   29.96968 (Kcal/Mol)
 Warning -- explicit consideration of   5 degrees of freedom as
           vibrations may cause significant error
 Vibrational temperatures:    342.04   346.47   490.10   642.01   757.92
          (Kelvin)           1003.65  1130.42  1139.85  1409.78  1428.33
                             1457.20  1570.39  1939.72  1970.81  2034.56
                             4029.51  4152.26  4317.58

 Zero-point correction=                           0.047760 (Hartree/Particle)
 Thermal correction to Energy=                    0.052880
 Thermal correction to Enthalpy=                  0.053824
 Thermal correction to Gibbs Free Energy=         0.019608
 Sum of electronic and zero-point Energies=           -190.365608
 Sum of electronic and thermal Energies=              -190.360488
 Sum of electronic and thermal Enthalpies=            -190.359544
 Sum of electronic and thermal Free Energies=         -190.393760

                     E (Thermal)             CV                S
                      KCal/Mol        Cal/Mol-Kelvin    Cal/Mol-Kelvin
 Total                   33.183             17.630             72.013
 Electronic               0.000              0.000              2.183
 Translational            0.889              2.981             38.342
 Rotational               0.889              2.981             24.108
 Vibrational             31.405             11.668              7.380
 Vibration     1          0.656              1.783              1.820
 Vibration     2          0.658              1.778              1.797
 Vibration     3          0.720              1.594              1.209
 Vibration     4          0.805              1.369              0.807
 Vibration     5          0.882              1.191              0.594

 Normal termination of Gaussian 09 at Sun Jun 19 14:40:54 2016.
