 Gaussian 09, Revision E.01,
 Gaussian 09:  EM64L-G09RevE.01 30-Nov-2015

 ---------------------------------------------
 #p b3lyp/6-311++G(3df,2p) freq symmetry=Loose
 ---------------------------------------------

 ---------
 b3lyp opt
 ---------
 Symbolic Z-matrix:
 Charge =  2 Multiplicity = 4

                         Standard orientation:
 ---------------------------------------------------------------------
 Center     Atomic      Atomic             Coordinates (Angstroms)
 Number     Number       Type             X           Y           Z
 ---------------------------------------------------------------------
      1          6           0       -0.238905   -0.212815    0.350914
      2          1           0       -0.183586   -0.529210    1.417640
      3          6           0       -1.537766    0.586605    0.038719
      4          6           0       -1.457610   -0.719844   -0.295935
      5          1           0       -1.975673    1.587066    0.054991
      6          6           0        1.089244    0.031165   -0.260533
      7          1           0        1.245951    0.250777   -1.357511
      8          6           0        2.297255    0.096785    0.147648
 ---------------------------------------------------------------------

 SCF Done:  E(UB3LYP) =  -191.109676612     A.U. after   21 cycles

 The electronic state is 4-A.
 Alpha  occ. eigenvalues --  -10.82387 -10.75188 -10.74245 -10.72614 -10.71405
 Alpha  occ. eigenvalues --   -1.41076  -1.31614  -1.13573  -1.04248  -1.01399
 Alpha  occ. eigenvalues --   -0.93930  -0.92128  -0.89495  -0.85673  -0.81658
 Alpha  occ. eigenvalues --   -0.77923  -0.73608
 Alpha virt. eigenvalues --   -0.60648  -0.51753  -0.47853  -0.34107  -0.33477
 Alpha virt. eigenvalues --   -0.31049  -0.30186  -0.28240  -0.26432  -0.25149
 Alpha virt. eigenvalues --   -0.24571  -0.21640  -0.21510  -0.21107  -0.20269

  Beta  occ. eigenvalues --  -10.79974 -10.73296 -10.73103 -10.72258 -10.71179
  Beta  occ. eigenvalues --   -1.38109  -1.29215  -1.10649  -1.01989  -0.99097
  Beta  occ. eigenvalues --   -0.91480  -0.87348  -0.84706  -0.77768
  Beta virt. eigenvalues --   -0.67169  -0.64936  -0.59111  -0.56568  -0.46154
  Beta virt. eigenvalues --   -0.43219  -0.33071  -0.32407  -0.30007  -0.28722
  Beta virt. eigenvalues --   -0.27529  -0.25679  -0.24601  -0.23522  -0.20772

 Mulliken charges and spin densities:
               1          2
     1  C    0.411938   0.039298
     2  H    0.295062   0.092973
     3  C    0.228309   0.556700
     4  C    0.161797   1.158463
     5  H    0.385552  -0.011750
     6  C    0.198704  -0.086399
     7  H    0.270912  -0.007002
     8  C    0.047726   1.257717
 Sum of Mulliken charges =   2.00000   3.00000

 Dipole moment (field-independent basis, Debye):
    X=              1.6322    Y=              1.4862    Z=              0.0368  Tot=              2.2078
 Quadrupole moment (field-independent basis, Debye-Ang):
   XX=              6.6234   YY=            -20.3100   ZZ=            -17.9359
   XY=             -2.5226   XZ=             -1.0917   YZ=             -1.3919

  Exact polarizability:  67.431   3.284  38.706   4.868   1.768  32.416
 Approx polarizability: 115.671   7.019  59.023  16.488   4.314  53.858

                      1                      2                      3
                      A                      A                      A
 Frequencies --    122.5203               243.7360               282.3995
 Red. masses --      2.9689                 7.8795                 1.8456
 Frc consts  --      0.0263                 0.2758                 0.0867
 IR Inten    --      0.7888                 3.8213                 3.5642

                      4                      5                      6
                      A                      A                      A
 Frequencies --    379.0244               486.0115               653.8116
 Red. masses --      5.0740                 2.0808                 1.3641
 Frc consts  --      0.4295                 0.2896                 0.3435
 IR Inten    --      2.7384                15.1240                32.8907

                      7                      8                      9
                      A                      A                      A
 Frequencies --    684.8870               793.0615               885.7492
 Red. masses --      7.5007                 3.9543                 1.2568
 Frc consts  --      2.0729                 1.4653                 0.5809
 IR Inten    --     28.5596                 9.3792                73.0352

                     10                     11                     12
                      A                      A                      A
 Frequencies --    920.6524               956.9465              1079.0493
 Red. masses --      1.2600                 1.3815                 4.8283
 Frc consts  --      0.6292                 0.7454                 3.3123
 IR Inten    --     26.3904                 3.8045                 7.0474

                     13                     14                     15
                      A                      A                      A
 Frequencies --   1205.3382              1489.5302              1690.8100
 Red. masses --      1.2169                 7.0678                10.3628
 Frc consts  --      1.0417                 9.2392                17.4549
 IR Inten    --      1.0219                13.2418                21.5519

                     16                     17                     18
                      A                      A                      A
 Frequencies --   2763.0335              2820.7359              3136.0869
 Red. masses --      1.0744                 1.0754                 1.1142
 Frc consts  --      4.8328                 5.0413                 6.4565
 IR Inten    --    202.1384               196.9111               232.1890

 - Thermochemistry -
 -------------------
 Temperature   298.150 Kelvin.  Pressure   1.00000 Atm.
 Atom     1 has atomic number  6 and mass  12.00000

 Molecular mass:    63.02348 amu.
 Principal axes and moments of inertia in atomic units:
                           1         2         3
     Eigenvalues --    76.02029 518.06097 541.68148
           X            0.99963  -0.02417  -0.01250
           Y            0.02211   0.98916  -0.14514
           Z            0.01587   0.14481   0.98933
 This molecule is an asymmetric top.
 Rotational symmetry number  1.
 Rotational temperatures (Kelvin)      1.13935     0.16719     0.15990
 Rotational constants (GHZ):          23.74026     3.48365     3.33174
 Zero-point vibrational energy     123175.8 (Joules/Mol)
                                   29.43972 (Kcal/Mol)
 Warning -- explicit consideration of   5 degrees of freedom as
           vibrations may cause significant error
 Vibrational temperatures:    176.28   350.68   406.31   545.33   699.26
          (Kelvin)            940.69   985.40  1141.04  1274.39  1324.61
                             1376.83  1552.51  1734.21  2143.10  2432.70
                             3975.38  4058.40  4512.12

 Zero-point correction=                           0.046915 (Hartree/Particle)
 Thermal correction to Energy=                    0.052476
 Thermal correction to Enthalpy=                  0.053421
 Thermal correction to Gibbs Free Energy=         0.017702
 Sum of electronic and zero-point Energies=           -191.062761
 Sum of electronic and thermal Energies=              -191.057200
 Sum of electronic and thermal Enthalpies=            -191.056256
 Sum of electronic and thermal Free Energies=         -191.091975

                     E (Thermal)             CV                S
                      KCal/Mol        Cal/Mol-Kelvin    Cal/Mol-Kelvin
 Total                   32.929             18.644             75.176
 Electronic               0.000              0.000              2.755
 Translational            0.889              2.981             38.342
 Rotational               0.889              2.981             24.571
 Vibrational             31.152             12.682              9.509
 Vibration     1          0.610              1.930              3.060
 Vibration     2          0.659              1.773              1.775
 Vibration     3          0.681              1.706              1.519
 Vibration     4          0.749              1.515              1.043
 Vibration     5          0.842              1.281              0.694

 Normal termination of Gaussian 09 at Sun Jun 19 12:36:40 2016.
