 Gaussian 09, Revision E.01,
 Gaussian 09:  EM64L-G09RevE.01 30-Nov-2015

 ---------------------------------------------
 #p b3lyp/6-311++G(3df,2p) freq symmetry=Loose
 ---------------------------------------------

 ---------
 b3lyp opt
 ---------
 Symbolic Z-matrix:
 Charge =  0 Multiplicity = 4

                         Standard orientation:
 ---------------------------------------------------------------------
 Center     Atomic      Atomic             Coordinates (Angstroms)
 Number     Number       Type             X           Y           Z
 ---------------------------------------------------------------------
      1          1           0        1.833637   -0.343589    1.195030
      2          6           0        0.328142   -0.776593   -0.351238
      3          6           0       -0.815284   -0.098022    0.071196
      4          6           0       -2.179758   -0.036314    0.097153
      5          6           0        1.537857   -0.131738    0.169728
      6          1           0        2.371827   -0.008620   -0.512316
      7          6           0        0.364107    0.814504   -0.001089
      8          1           0        0.384154    1.721181   -0.597212
 ---------------------------------------------------------------------

 SCF Done:  E(UB3LYP) =  -192.029831360     A.U. after   20 cycles

 The electronic state is 4-A.
 Alpha  occ. eigenvalues --  -10.28329 -10.28284 -10.25517 -10.24072 -10.18704
 Alpha  occ. eigenvalues --   -0.99098  -0.77968  -0.68049  -0.65591  -0.54378
 Alpha  occ. eigenvalues --   -0.51564  -0.46757  -0.43774  -0.38440  -0.30386
 Alpha  occ. eigenvalues --   -0.28439  -0.23906  -0.19781
 Alpha virt. eigenvalues --   -0.05136  -0.02394   0.00005   0.00898   0.01393
 Alpha virt. eigenvalues --    0.03208   0.05568   0.06692   0.07108   0.07975
 Alpha virt. eigenvalues --    0.08234   0.09209   0.10265   0.11127   0.11485

  Beta  occ. eigenvalues --  -10.27378 -10.26574 -10.25406 -10.23954 -10.16876
  Beta  occ. eigenvalues --   -0.97267  -0.75886  -0.64397  -0.62781  -0.51521
  Beta  occ. eigenvalues --   -0.49782  -0.44184  -0.41870  -0.34679  -0.25063
  Beta virt. eigenvalues --   -0.16316  -0.11736  -0.06079  -0.02056  -0.01649
  Beta virt. eigenvalues --    0.00467   0.01703   0.02878   0.04587   0.05875
  Beta virt. eigenvalues --    0.06961   0.07876   0.08761   0.09245   0.09813

 Mulliken charges and spin densities:
               1          2
     1  H    0.202972   0.046244
     2  C    0.104181   1.053544
     3  C    0.693846   0.056161
     4  C   -0.699413   1.216748
     5  C   -0.520496  -0.016357
     6  H    0.157299   0.010672
     7  C   -0.134816   0.600173
     8  H    0.196426   0.032815
 Sum of Mulliken charges =  -0.00000   3.00000

 Dipole moment (field-independent basis, Debye):
    X=              6.0739    Y=              0.9102    Z=             -0.3672  Tot=              6.1527
 Quadrupole moment (field-independent basis, Debye-Ang):
   XX=            -39.6504   YY=            -28.7812   ZZ=            -29.5552
   XY=              0.0588   XZ=              0.9347   YZ=             -1.3672

  Exact polarizability:  92.910  -0.305  51.952  -0.349   0.578  43.699
 Approx polarizability: 146.853  -1.213  85.826  -1.940   5.036  63.046

                      1                      2                      3
                      A                      A                      A
 Frequencies --    185.2483               363.9449               441.9250
 Red. masses --      3.7961                 6.7969                 7.4754
 Frc consts  --      0.0768                 0.5304                 0.8602
 IR Inten    --      5.2030                 8.5978                 8.2545

                      4                      5                      6
                      A                      A                      A
 Frequencies --    597.0717               701.5332               791.2323
 Red. masses --      5.7526                 5.5334                 4.8910
 Frc consts  --      1.2083                 1.6045                 1.8041
 IR Inten    --     14.7572                 2.6785                24.3295

                      7                      8                      9
                      A                      A                      A
 Frequencies --    827.2335               987.6405              1000.2809
 Red. masses --      1.1698                 2.0564                 1.4480
 Frc consts  --      0.4716                 1.1819                 0.8536
 IR Inten    --     17.8807                 1.7513                 6.4519

                     10                     11                     12
                      A                      A                      A
 Frequencies --   1044.9076              1096.2422              1150.3429
 Red. masses --      1.2019                 1.9377                 1.4062
 Frc consts  --      0.7732                 1.3720                 1.0963
 IR Inten    --      1.2676                13.4986                15.5242

                     13                     14                     15
                      A                      A                      A
 Frequencies --   1228.1857              1494.2546              1498.5281
 Red. masses --      4.7801                 5.4093                 1.2659
 Frc consts  --      4.2483                 7.1161                 1.6748
 IR Inten    --      2.0348                19.0828                 3.9693

                     16                     17                     18
                      A                      A                      A
 Frequencies --   3064.9396              3134.6015              3154.4138
 Red. masses --      1.0582                 1.0900                 1.1077
 Frc consts  --      5.8566                 6.3103                 6.4938
 IR Inten    --      9.8510                 1.9079                 1.2354

 - Thermochemistry -
 -------------------
 Temperature   298.150 Kelvin.  Pressure   1.00000 Atm.
 Atom     1 has atomic number  1 and mass   1.00783

 Molecular mass:    63.02348 amu.
 Principal axes and moments of inertia in atomic units:
                           1         2         3
     Eigenvalues --    80.95829 389.45859 442.41584
           X            0.99997   0.00209   0.00724
           Y           -0.00138   0.99536  -0.09621
           Z           -0.00741   0.09620   0.99533
 This molecule is an asymmetric top.
 Rotational symmetry number  1.
 Rotational temperatures (Kelvin)      1.06986     0.22240     0.19577
 Rotational constants (GHZ):          22.29224     4.63397     4.07929
 Zero-point vibrational energy     136150.1 (Joules/Mol)
                                   32.54066 (Kcal/Mol)
 Warning -- explicit consideration of   4 degrees of freedom as
           vibrations may cause significant error
 Vibrational temperatures:    266.53   523.63   635.83   859.05  1009.35
          (Kelvin)           1138.41  1190.20  1420.99  1439.18  1503.39
                             1577.25  1655.08  1767.08  2149.90  2156.04
                             4409.76  4509.99  4538.49

 Zero-point correction=                           0.051857 (Hartree/Particle)
 Thermal correction to Energy=                    0.056493
 Thermal correction to Enthalpy=                  0.057437
 Thermal correction to Gibbs Free Energy=         0.023679
 Sum of electronic and zero-point Energies=           -191.977975
 Sum of electronic and thermal Energies=              -191.973338
 Sum of electronic and thermal Enthalpies=            -191.972394
 Sum of electronic and thermal Free Energies=         -192.006152

                     E (Thermal)             CV                S
                      KCal/Mol        Cal/Mol-Kelvin    Cal/Mol-Kelvin
 Total                   35.450             15.844             71.050
 Electronic               0.000              0.000              2.755
 Translational            0.889              2.981             38.342
 Rotational               0.889              2.981             24.149
 Vibrational             33.672              9.882              5.805
 Vibration     1          0.631              1.860              2.275
 Vibration     2          0.737              1.546              1.105
 Vibration     3          0.802              1.379              0.821
 Vibration     4          0.955              1.038              0.455

 Optimization completed.
    -- Stationary point found.
 Normal termination of Gaussian 09 at Sun Jun 19 09:14:33 2016.
