 Gaussian 09, Revision E.01,
 Gaussian 09:  EM64L-G09RevE.01 30-Nov-2015

 ---------------------------------------------
 #p b3lyp/6-311++G(3df,2p) freq symmetry=Loose
 ---------------------------------------------

 ---------
 b3lyp opt
 ---------
 Symbolic Z-matrix:
 Charge =  1 Multiplicity = 3

                         Standard orientation:
 ---------------------------------------------------------------------
 Center     Atomic      Atomic             Coordinates (Angstroms)
 Number     Number       Type             X           Y           Z
 ---------------------------------------------------------------------
      1          6           0        0.000000   -0.628427   -1.063095
      2          6           0        0.000000   -1.180425    0.241606
      3          1           0        0.000000   -2.213309    0.554820
      4          6           0       -0.000000    0.000000    1.094873
      5          1           0       -0.000000    0.000000    2.178988
      6          6           0        0.000000    1.180425    0.241606
      7          1           0        0.000000    2.213309    0.554820
      8          6           0        0.000000    0.628427   -1.063095
 ---------------------------------------------------------------------

 SCF Done:  E(UB3LYP) =  -191.820215992     A.U. after   12 cycles

 The electronic state is 3-B2.
 Alpha  occ. eigenvalues --  -10.49054 -10.49051 -10.48508 -10.47094 -10.46939
 Alpha  occ. eigenvalues --   -1.17113  -0.98478  -0.98067  -0.82653  -0.76052
 Alpha  occ. eigenvalues --   -0.75833  -0.67641  -0.66616  -0.66255  -0.52509
 Alpha  occ. eigenvalues --   -0.51892  -0.50995
 Alpha virt. eigenvalues --   -0.37672  -0.25326  -0.18312  -0.15270  -0.12523
 Alpha virt. eigenvalues --   -0.12096  -0.11393  -0.10649  -0.08668  -0.08397
 Alpha virt. eigenvalues --   -0.05901  -0.05640  -0.05408  -0.03781  -0.02138

  Beta  occ. eigenvalues --  -10.48307 -10.48305 -10.47825 -10.46625 -10.46474
  Beta  occ. eigenvalues --   -1.14898  -0.96000  -0.95484  -0.81076  -0.75105
  Beta  occ. eigenvalues --   -0.74748  -0.65837  -0.65497  -0.60902  -0.51759
  Beta virt. eigenvalues --   -0.40774  -0.39471  -0.36542  -0.18622  -0.15090
  Beta virt. eigenvalues --   -0.13425  -0.12367  -0.11782  -0.10826  -0.10121
  Beta virt. eigenvalues --   -0.08557  -0.08169  -0.05268  -0.05148  -0.05066

 Mulliken charges and spin densities:
               1          2
     1  C    0.324827   0.280333
     2  C   -0.216618   0.517883
     3  H    0.261096  -0.018435
     4  C    0.012950   0.456719
     5  H    0.248439  -0.016283
     6  C   -0.216618   0.517883
     7  H    0.261096  -0.018435
     8  C    0.324827   0.280333
 Sum of Mulliken charges =   1.00000   2.00000

 Dipole moment (field-independent basis, Debye):
    X=              0.0000    Y=              0.0000    Z=              1.8219  Tot=              1.8219
 Quadrupole moment (field-independent basis, Debye-Ang):
   XX=            -27.0782   YY=            -16.1679   ZZ=            -20.0231
   XY=              0.0000   XZ=              0.0000   YZ=              0.0000

  Exact polarizability:  28.395  -0.000  57.354  -0.000   0.000  50.993
 Approx polarizability:  41.266   0.000 134.052  -0.000  -0.000  91.621

                      1                      2                      3
                     A2                     B1                     B2
 Frequencies --    202.9227               324.1273               399.2993
 Red. masses --      4.7187                 2.1490                10.6018
 Frc consts  --      0.1145                 0.1330                 0.9959
 IR Inten    --      0.0000                 0.8889               125.5297

                      4                      5                      6
                     B1                     A2                     A1
 Frequencies --    638.9949               756.6957               830.1460
 Red. masses --      1.1587                 1.4416                 7.1682
 Frc consts  --      0.2788                 0.4864                 2.9105
 IR Inten    --     19.9739                 0.0000                 0.0289

                      7                      8                      9
                     B1                     A1                     B2
 Frequencies --    895.1887               967.2703              1008.1537
 Red. masses --      1.7031                 2.2406                 1.7221
 Frc consts  --      0.8041                 1.2351                 1.0313
 IR Inten    --      1.8821                 1.1219                 0.4193

                     10                     11                     12
                     A1                     B2                     B2
 Frequencies --   1166.9954              1188.7601              1301.7790
 Red. masses --      5.6067                 1.8698                 1.9306
 Frc consts  --      4.4988                 1.5568                 1.9276
 IR Inten    --     24.5657                16.9181                21.4306

                     13                     14                     15
                     A1                     B2                     A1
 Frequencies --   1304.7057              1381.7571              1872.7076
 Red. masses --      1.6873                 2.5001                11.4773
 Frc consts  --      1.6923                 2.8124                23.7153
 IR Inten    --     28.3456                15.3298                34.7795

                     16                     17                     18
                     A1                     B2                     A1
 Frequencies --   3188.4567              3234.2878              3240.3612
 Red. masses --      1.0939                 1.0934                 1.1010
 Frc consts  --      6.5520                 6.7388                 6.8111
 IR Inten    --      6.3104                34.3237                 0.4399

 - Thermochemistry -
 -------------------
 Temperature   298.150 Kelvin.  Pressure   1.00000 Atm.
 Atom     1 has atomic number  6 and mass  12.00000

 Molecular mass:    63.02348 amu.
 Principal axes and moments of inertia in atomic units:
                           1         2         3
     Eigenvalues --   171.93502 188.53053 360.46555
           X           -0.00000   0.00000   1.00000
           Y            1.00000   0.00000   0.00000
           Z            0.00000   1.00000  -0.00000
 This molecule is an asymmetric top.
 Rotational symmetry number  2.
 Rotational temperatures (Kelvin)      0.50376     0.45942     0.24028
 Rotational constants (GHZ):          10.49665     9.57267     5.00670
 Zero-point vibrational energy     142969.4 (Joules/Mol)
                                   34.17049 (Kcal/Mol)
 Warning -- explicit consideration of   3 degrees of freedom as
           vibrations may cause significant error
 Vibrational temperatures:    291.96   466.35   574.50   919.37  1088.71
          (Kelvin)           1194.39  1287.98  1391.68  1450.51  1679.04
                             1710.36  1872.97  1877.18  1988.04  2694.41
                             4587.47  4653.41  4662.15

 Zero-point correction=                           0.054454 (Hartree/Particle)
 Thermal correction to Energy=                    0.059046
 Thermal correction to Enthalpy=                  0.059990
 Thermal correction to Gibbs Free Energy=         0.027299
 Sum of electronic and zero-point Energies=           -191.765762
 Sum of electronic and thermal Energies=              -191.761170
 Sum of electronic and thermal Enthalpies=            -191.760226
 Sum of electronic and thermal Free Energies=         -191.792917

                     E (Thermal)             CV                S
                      KCal/Mol        Cal/Mol-Kelvin    Cal/Mol-Kelvin
 Total                   37.052             15.328             68.804
 Electronic               0.000              0.000              2.183
 Translational            0.889              2.981             38.342
 Rotational               0.889              2.981             22.595
 Vibrational             35.274              9.366              5.684
 Vibration     1          0.639              1.836              2.106
 Vibration     2          0.709              1.627              1.289
 Vibration     3          0.765              1.472              0.965

 Optimization completed.
    -- Stationary point found.
 Normal termination of Gaussian 09 at Tue Jul 19 21:38:44 2016.
