 Gaussian 09, Revision E.01,
 Gaussian 09:  EM64L-G09RevE.01 30-Nov-2015

 ---------------------------------------------
 #p b3lyp/6-311++G(3df,2p) freq symmetry=Loose
 ---------------------------------------------

 ---------
 b3lyp opt
 ---------
 Symbolic Z-matrix:
 Charge =  0 Multiplicity = 2

                         Standard orientation:
 ---------------------------------------------------------------------
 Center     Atomic      Atomic             Coordinates (Angstroms)
 Number     Number       Type             X           Y           Z
 ---------------------------------------------------------------------
      1          6           0        1.556444   -0.684259   -0.350238
      2          6           0        0.334582   -0.131170    0.100838
      3          6           0       -1.115861   -0.353071    0.285175
      4          1           0       -1.381778   -1.417519    0.333234
      5          1           0       -1.459011    0.105162    1.248177
      6          6           0       -2.026834    0.485249   -0.467424
      7          6           0        1.411312    0.637804    0.114530
      8          1           0        1.882937    1.585040    0.321308
 ---------------------------------------------------------------------

 SCF Done:  E(UB3LYP) =  -192.053435549     A.U. after   18 cycles

 The electronic state is 2-A.
 Alpha  occ. eigenvalues --  -10.26782 -10.24797 -10.23922 -10.23650 -10.20044
 Alpha  occ. eigenvalues --   -0.94392  -0.83979  -0.62986  -0.59725  -0.54509
 Alpha  occ. eigenvalues --   -0.50213  -0.45043  -0.39827  -0.35104  -0.32288
 Alpha  occ. eigenvalues --   -0.24722  -0.24243
 Alpha virt. eigenvalues --   -0.12190  -0.05382  -0.02690  -0.01022   0.00293
 Alpha virt. eigenvalues --    0.01714   0.03670   0.04987   0.05331   0.06941
 Alpha virt. eigenvalues --    0.07066   0.08700   0.09685   0.10055   0.10318

  Beta  occ. eigenvalues --  -10.25352 -10.24658 -10.24004 -10.23650 -10.20031
  Beta  occ. eigenvalues --   -0.94302  -0.82871  -0.61472  -0.59043  -0.53321
  Beta  occ. eigenvalues --   -0.49972  -0.44571  -0.39338  -0.34752  -0.30500
  Beta  occ. eigenvalues --   -0.24628
  Beta virt. eigenvalues --   -0.10697  -0.09059  -0.05099  -0.02443  -0.00984
  Beta virt. eigenvalues --    0.00347   0.01733   0.03826   0.05042   0.05698
  Beta virt. eigenvalues --    0.07005   0.07197   0.08968   0.09778   0.10284

 Mulliken charges and spin densities:
               1          2
     1  C   -0.599612   0.006698
     2  C    0.211985   0.003724
     3  C   -0.106046  -0.011249
     4  H    0.165541   0.053610
     5  H    0.200557  -0.010142
     6  C   -0.429273   0.953341
     7  C    0.299897   0.004360
     8  H    0.256951  -0.000342
 Sum of Mulliken charges =  -0.00000   1.00000

 Dipole moment (field-independent basis, Debye):
    X=             -0.8293    Y=              1.2586    Z=              2.6731  Tot=              3.0687
 Quadrupole moment (field-independent basis, Debye-Ang):
   XX=            -37.7736   YY=            -31.3121   ZZ=            -29.3986
   XY=              9.2189   XZ=             -1.0498   YZ=              0.1582

  Exact polarizability:  72.188  -1.184  53.824   0.007   0.734  43.921
 Approx polarizability:  96.545  -0.323  79.559   0.290   2.081  69.053

                      1                      2                      3
                      A                      A                      A
 Frequencies --     75.9578               208.4949               312.5899
 Red. masses --      3.6367                 6.7021                 2.2190
 Frc consts  --      0.0124                 0.1717                 0.1277
 IR Inten    --     27.2666                22.8738                 2.0796

                      4                      5                      6
                      A                      A                      A
 Frequencies --    476.6152               519.6093               760.1536
 Red. masses --      1.8149                 5.2966                 3.4044
 Frc consts  --      0.2429                 0.8426                 1.1590
 IR Inten    --     15.4354                 1.0157                 8.3904

                      7                      8                      9
                      A                      A                      A
 Frequencies --    892.7531               941.0340               980.7372
 Red. masses --      1.3304                 1.4072                 1.8364
 Frc consts  --      0.6247                 0.7342                 1.0407
 IR Inten    --      5.1433                 8.7334                 7.4607

                     10                     11                     12
                      A                      A                      A
 Frequencies --   1089.0893              1144.5963              1231.8305
 Red. masses --      1.8952                 3.2815                 2.3824
 Frc consts  --      1.3245                 2.5330                 2.1299
 IR Inten    --     25.1530                 9.1898                73.9317

                     13                     14                     15
                      A                      A                      A
 Frequencies --   1301.9043              1345.1656              1754.2078
 Red. masses --      1.4422                 2.3498                 7.7995
 Frc consts  --      1.4402                 2.5052                14.1409
 IR Inten    --     28.3216                19.9346                10.7420

                     16                     17                     18
                      A                      A                      A
 Frequencies --   2830.9701              2979.4610              3232.6060
 Red. masses --      1.0686                 1.0829                 1.1135
 Frc consts  --      5.0457                 5.6641                 6.8556
 IR Inten    --     38.6674                 8.0106                 0.3277

 - Thermochemistry -
 -------------------
 Temperature   298.150 Kelvin.  Pressure   1.00000 Atm.
 Atom     1 has atomic number  6 and mass  12.00000

 Molecular mass:    63.02348 amu.
 Principal axes and moments of inertia in atomic units:
                           1         2         3
     Eigenvalues --    94.41372 476.63387 520.66895
           X            0.99891   0.04454  -0.01385
           Y           -0.04442   0.99897   0.00870
           Z            0.01423  -0.00808   0.99987
 This molecule is an asymmetric top.
 Rotational symmetry number  1.
 Rotational temperatures (Kelvin)      0.91739     0.18172     0.16635
 Rotational constants (GHZ):          19.11524     3.78643     3.46620
 Zero-point vibrational energy     132054.4 (Joules/Mol)
                                   31.56176 (Kcal/Mol)
 Warning -- explicit consideration of   5 degrees of freedom as
           vibrations may cause significant error
 Vibrational temperatures:    109.29   299.98   449.75   685.74   747.60
          (Kelvin)           1093.69  1284.47  1353.94  1411.06  1566.95
                             1646.82  1772.33  1873.15  1935.39  2523.91
                             4073.13  4286.77  4650.99

 Zero-point correction=                           0.050297 (Hartree/Particle)
 Thermal correction to Energy=                    0.055631
 Thermal correction to Enthalpy=                  0.056575
 Thermal correction to Gibbs Free Energy=         0.021452
 Sum of electronic and zero-point Energies=           -192.003139
 Sum of electronic and thermal Energies=              -191.997804
 Sum of electronic and thermal Enthalpies=            -191.996860
 Sum of electronic and thermal Free Energies=         -192.031984

                     E (Thermal)             CV                S
                      KCal/Mol        Cal/Mol-Kelvin    Cal/Mol-Kelvin
 Total                   34.909             17.010             73.924
 Electronic               0.000              0.000              1.377
 Translational            0.889              2.981             38.342
 Rotational               0.889              2.981             24.664
 Vibrational             33.132             11.048              9.541
 Vibration     1          0.599              1.965              3.993
 Vibration     2          0.642              1.828              2.057
 Vibration     3          0.701              1.650              1.349
 Vibration     4          0.833              1.302              0.719
 Vibration     5          0.875              1.207              0.611

 Normal termination of Gaussian 09 at Sun Jun 19 07:17:37 2016.
