 Gaussian 09, Revision E.01,
 Gaussian 09:  EM64L-G09RevE.01 30-Nov-2015

 ---------------------------------------------
 #p b3lyp/6-311++G(3df,2p) freq symmetry=Loose
 ---------------------------------------------

 ---------
 b3lyp opt
 ---------
 Symbolic Z-matrix:
 Charge =  0 Multiplicity = 4

                         Standard orientation:
 ---------------------------------------------------------------------
 Center     Atomic      Atomic             Coordinates (Angstroms)
 Number     Number       Type             X           Y           Z
 ---------------------------------------------------------------------
      1          6           0        1.240444    0.978489    0.003494
      2          6           0        0.318366   -0.085376    0.001031
      3          6           0       -1.077506   -0.538017    0.003270
      4          1           0       -1.237430   -1.183828   -0.870136
      5          1           0       -1.237740   -1.170762    0.886058
      6          6           0       -2.094487    0.583158   -0.005440
      7          6           0        1.623236   -0.363223   -0.003652
      8          1           0        2.414854   -1.095593   -0.008140
 ---------------------------------------------------------------------

 SCF Done:  E(UB3LYP) =  -192.000103535     A.U. after   18 cycles

 The electronic state is 4-A.
 Alpha  occ. eigenvalues --  -10.25363 -10.24589 -10.24501 -10.22988 -10.21089
 Alpha  occ. eigenvalues --   -0.95256  -0.81665  -0.62239  -0.61177  -0.52938
 Alpha  occ. eigenvalues --   -0.49094  -0.47844  -0.38953  -0.36710  -0.35132
 Alpha  occ. eigenvalues --   -0.25652  -0.22961  -0.22612
 Alpha virt. eigenvalues --   -0.05532  -0.02893  -0.01534   0.00238   0.02126
 Alpha virt. eigenvalues --    0.03320   0.05189   0.05687   0.06678   0.07843
 Alpha virt. eigenvalues --    0.09489   0.09523   0.09568   0.10445   0.11329

  Beta  occ. eigenvalues --  -10.25199 -10.24418 -10.24352 -10.20928 -10.18883
  Beta  occ. eigenvalues --   -0.94974  -0.79343  -0.60945  -0.56438  -0.50181
  Beta  occ. eigenvalues --   -0.47919  -0.45676  -0.38512  -0.35082  -0.24877
  Beta virt. eigenvalues --   -0.16988  -0.05544  -0.04519  -0.04266  -0.02291
  Beta virt. eigenvalues --   -0.01355   0.00374   0.02220   0.03588   0.05746
  Beta virt. eigenvalues --    0.06267   0.06699   0.08200   0.09588   0.09971

 Mulliken charges and spin densities:
               1          2
     1  C   -0.492968   0.097161
     2  C    0.246393   0.011440
     3  C   -0.207459   0.012863
     4  H    0.170536   0.052197
     5  H    0.170968   0.052115
     6  C   -0.380297   2.748724
     7  C    0.234581   0.022943
     8  H    0.258247   0.002558
 Sum of Mulliken charges =  -0.00000   3.00000

 Dipole moment (field-independent basis, Debye):
    X=              0.9071    Y=             -4.3591    Z=             -0.0001  Tot=              4.4525
 Quadrupole moment (field-independent basis, Debye-Ang):
   XX=            -31.5511   YY=            -33.0713   ZZ=            -29.2376
   XY=             -2.8906   XZ=             -0.0460   YZ=             -0.0125

  Exact polarizability: 131.755  -0.515  54.955   0.158   0.016  40.519
 Approx polarizability: 200.742   2.015  81.187   0.265   0.038  59.526

                      1                      2                      3
                      A                      A                      A
 Frequencies --     77.0984               208.9609               361.0738
 Red. masses --      2.9679                 7.2516                 2.5913
 Frc consts  --      0.0104                 0.1866                 0.1990
 IR Inten    --      0.8578                 2.3331                 0.0014

                      4                      5                      6
                      A                      A                      A
 Frequencies --    505.3801               772.3137               825.8907
 Red. masses --      5.3452                 4.8841                 1.5486
 Frc consts  --      0.8044                 1.7164                 0.6223
 IR Inten    --      9.6465                 8.8773                 0.1551

                      7                      8                      9
                      A                      A                      A
 Frequencies --    917.0804               935.8334               954.4302
 Red. masses --      2.4429                 1.5916                 2.0039
 Frc consts  --      1.2105                 0.8212                 1.0755
 IR Inten    --     72.1893                13.5781               104.5531

                     10                     11                     12
                      A                      A                      A
 Frequencies --   1152.3246              1175.5306              1208.1891
 Red. masses --      8.0289                 1.1079                 1.9434
 Frc consts  --      6.2814                 0.9021                 1.6714
 IR Inten    --      8.0253                 0.8633                97.2192

                     13                     14                     15
                      A                      A                      A
 Frequencies --   1302.0577              1405.2994              1725.8424
 Red. masses --      2.4170                 1.0881                 8.1077
 Frc consts  --      2.4143                 1.2661                14.2281
 IR Inten    --    188.4066                10.3696                25.6901

                     16                     17                     18
                      A                      A                      A
 Frequencies --   2964.0221              2991.9890              3231.5664
 Red. masses --      1.0558                 1.1004                 1.1126
 Frc consts  --      5.4651                 5.8040                 6.8457
 IR Inten    --      6.3101                 0.1982                 0.2502

 - Thermochemistry -
 -------------------
 Temperature   298.150 Kelvin.  Pressure   1.00000 Atm.
 Atom     1 has atomic number  6 and mass  12.00000

 Molecular mass:    63.02348 amu.
 Principal axes and moments of inertia in atomic units:
                           1         2         3
     Eigenvalues --    93.15631 458.50459 540.55375
           X            1.00000   0.00263  -0.00031
           Y           -0.00263   1.00000   0.00005
           Z            0.00031  -0.00005   1.00000
 This molecule is an asymmetric top.
 Rotational symmetry number  1.
 Rotational temperatures (Kelvin)      0.92977     0.18891     0.16023
 Rotational constants (GHZ):          19.37326     3.93615     3.33869
 Zero-point vibrational energy     135865.2 (Joules/Mol)
                                   32.47255 (Kcal/Mol)
 Warning -- explicit consideration of   4 degrees of freedom as
           vibrations may cause significant error
 Vibrational temperatures:    110.93   300.65   519.50   727.13  1111.19
          (Kelvin)           1188.27  1319.47  1346.45  1373.21  1657.94
                             1691.32  1738.31  1873.37  2021.91  2483.10
                             4264.56  4304.80  4649.50

 Zero-point correction=                           0.051748 (Hartree/Particle)
 Thermal correction to Energy=                    0.056851
 Thermal correction to Enthalpy=                  0.057796
 Thermal correction to Gibbs Free Energy=         0.022402
 Sum of electronic and zero-point Energies=           -191.948355
 Sum of electronic and thermal Energies=              -191.943252
 Sum of electronic and thermal Enthalpies=            -191.942308
 Sum of electronic and thermal Free Energies=         -191.977701

                     E (Thermal)             CV                S
                      KCal/Mol        Cal/Mol-Kelvin    Cal/Mol-Kelvin
 Total                   35.675             16.154             74.492
 Electronic               0.000              0.000              2.755
 Translational            0.889              2.981             38.342
 Rotational               0.889              2.981             24.649
 Vibrational             33.897             10.192              8.746
 Vibration     1          0.599              1.964              3.963
 Vibration     2          0.642              1.827              2.053
 Vibration     3          0.735              1.552              1.117
 Vibration     4          0.861              1.238              0.645

 Normal termination of Gaussian 09 at Sun Jun 19 08:15:31 2016.
