 Gaussian 09, Revision E.01,
 Gaussian 09:  EM64L-G09RevE.01 30-Nov-2015

 ---------------------------------------------
 #p b3lyp/6-311++G(3df,2p) freq symmetry=Loose
 ---------------------------------------------

 ---------
 b3lyp opt
 ---------
 Symbolic Z-matrix:
 Charge =  0 Multiplicity = 4

                         Standard orientation:
 ---------------------------------------------------------------------
 Center     Atomic      Atomic             Coordinates (Angstroms)
 Number     Number       Type             X           Y           Z
 ---------------------------------------------------------------------
      1          6           0       -1.060592   -0.470890    0.039757
      2          1           0       -1.764292   -0.728845   -0.755514
      3          1           0       -1.551538   -0.719609    0.985099
      4          6           0        0.273496   -1.187072   -0.060441
      5          6           0        1.318287   -0.322597   -0.023148
      6          6           0       -0.576816    0.960933   -0.018007
      7          1           0       -1.197554    1.809340   -0.278424
      8          6           0        0.797856    0.959478    0.069978
 ---------------------------------------------------------------------

 SCF Done:  E(UB3LYP) =  -192.082500349     A.U. after   19 cycles

 The electronic state is 4-A.
 Alpha  occ. eigenvalues --  -10.23910 -10.23596 -10.22197 -10.22117 -10.20901
 Alpha  occ. eigenvalues --   -0.91369  -0.74643  -0.73216  -0.57704  -0.52652
 Alpha  occ. eigenvalues --   -0.48318  -0.48089  -0.42324  -0.35450  -0.32739
 Alpha  occ. eigenvalues --   -0.27362  -0.25104  -0.24383
 Alpha virt. eigenvalues --   -0.08077  -0.01283   0.01253   0.01882   0.03597
 Alpha virt. eigenvalues --    0.04239   0.05983   0.06368   0.06503   0.07760
 Alpha virt. eigenvalues --    0.08720   0.10826   0.11340   0.11485   0.12506

  Beta  occ. eigenvalues --  -10.23093 -10.21850 -10.21797 -10.20811 -10.19458
  Beta  occ. eigenvalues --   -0.88605  -0.72746  -0.69583  -0.54993  -0.50210
  Beta  occ. eigenvalues --   -0.46735  -0.45506  -0.40574  -0.32382  -0.25508
  Beta virt. eigenvalues --   -0.16087  -0.10747  -0.09263  -0.04027  -0.01174
  Beta virt. eigenvalues --    0.01462   0.02047   0.04478   0.06211   0.06765
  Beta virt. eigenvalues --    0.06999   0.07344   0.07988   0.09501   0.11133

 Mulliken charges and spin densities:
               1          2
     1  C   -0.234492   0.015732
     2  H    0.132565  -0.003543
     3  H    0.147803  -0.001993
     4  C   -0.097987   1.093264
     5  C   -0.080648   0.695289
     6  C   -0.063902   0.471031
     7  H    0.177839  -0.013700
     8  C    0.018821   0.743919
 Sum of Mulliken charges =  -0.00000   3.00000

 Dipole moment (field-independent basis, Debye):
    X=             -3.3451    Y=              0.6603    Z=              0.1509  Tot=              3.4130
 Quadrupole moment (field-independent basis, Debye-Ang):
   XX=            -30.5130   YY=            -31.8142   ZZ=            -29.4453
   XY=             -0.3104   XZ=              0.4557   YZ=             -1.2452

  Exact polarizability:  70.301  -0.900  75.782   1.080   1.628  38.910
 Approx polarizability: 113.981   0.565 134.576   2.436   3.704  57.963

                      1                      2                      3
                      A                      A                      A
 Frequencies --    294.6317               467.9653               599.8894
 Red. masses --      1.8289                 4.7176                 1.8011
 Frc consts  --      0.0935                 0.6087                 0.3819
 IR Inten    --     20.0682                12.4082                69.3026

                      4                      5                      6
                      A                      A                      A
 Frequencies --    691.0767               755.8681               863.8713
 Red. masses --      3.7567                 4.7190                 2.4436
 Frc consts  --      1.0571                 1.5885                 1.0744
 IR Inten    --     21.2824                27.1654                10.4484

                      7                      8                      9
                      A                      A                      A
 Frequencies --    915.2366               939.3529              1100.4383
 Red. masses --      2.7951                 3.0016                 1.1544
 Frc consts  --      1.3795                 1.5605                 0.8236
 IR Inten    --      1.9460                 4.2212                 1.8243

                     10                     11                     12
                      A                      A                      A
 Frequencies --   1148.1639              1177.5865              1271.6627
 Red. masses --      1.9103                 2.2595                 3.3143
 Frc consts  --      1.4837                 1.8460                 3.1578
 IR Inten    --      6.8241                14.4379                85.6068

                     13                     14                     15
                      A                      A                      A
 Frequencies --   1341.8631              1411.5653              1475.4688
 Red. masses --      2.4313                 1.3237                 4.6615
 Frc consts  --      2.5793                 1.5539                 5.9791
 IR Inten    --      9.1370                38.2705                30.0962

                     16                     17                     18
                      A                      A                      A
 Frequencies --   3030.5699              3062.1272              3169.6513
 Red. masses --      1.0599                 1.0999                 1.0908
 Frc consts  --      5.7357                 6.0762                 6.4571
 IR Inten    --      1.7917                 3.8709                 4.7957

 - Thermochemistry -
 -------------------
 Temperature   298.150 Kelvin.  Pressure   1.00000 Atm.
 Atom     1 has atomic number  6 and mass  12.00000

 Molecular mass:    63.02348 amu.
 Principal axes and moments of inertia in atomic units:
                           1         2         3
     Eigenvalues --   175.18797 197.59817 360.26301
           X            0.99943   0.03353   0.00265
           Y           -0.03349   0.99934  -0.01441
           Z           -0.00313   0.01432   0.99989
 This molecule is an asymmetric top.
 Rotational symmetry number  1.
 Rotational temperatures (Kelvin)      0.49441     0.43833     0.24042
 Rotational constants (GHZ):          10.30174     9.13339     5.00951
 Zero-point vibrational energy     141859.1 (Joules/Mol)
                                   33.90514 (Kcal/Mol)
 Warning -- explicit consideration of   3 degrees of freedom as
           vibrations may cause significant error
 Vibrational temperatures:    423.91   673.30   863.11   994.30  1087.52
          (Kelvin)           1242.92  1316.82  1351.52  1583.28  1651.95
                             1694.28  1829.64  1930.64  2030.93  2122.87
                             4360.31  4405.71  4560.42

 Zero-point correction=                           0.054031 (Hartree/Particle)
 Thermal correction to Energy=                    0.058166
 Thermal correction to Enthalpy=                  0.059110
 Thermal correction to Gibbs Free Energy=         0.026330
 Sum of electronic and zero-point Energies=           -192.028469
 Sum of electronic and thermal Energies=              -192.024335
 Sum of electronic and thermal Enthalpies=            -192.023390
 Sum of electronic and thermal Free Energies=         -192.056171

                     E (Thermal)             CV                S
                      KCal/Mol        Cal/Mol-Kelvin    Cal/Mol-Kelvin
 Total                   36.500             14.266             68.992
 Electronic               0.000              0.000              2.755
 Translational            0.889              2.981             38.342
 Rotational               0.889              2.981             24.037
 Vibrational             34.722              8.305              3.858
 Vibration     1          0.689              1.684              1.447
 Vibration     2          0.825              1.321              0.743
 Vibration     3          0.958              1.032              0.450

 Optimization completed.
    -- Stationary point found.
 Normal termination of Gaussian 09 at Sun Jun 19 09:14:58 2016.
