 Gaussian 09, Revision E.01,
 Gaussian 09:  EM64L-G09RevE.01 30-Nov-2015

 ---------------------------------------------
 #p b3lyp/6-311++G(3df,2p) freq symmetry=Loose
 ---------------------------------------------

 ---------
 b3lyp opt
 ---------
 Symbolic Z-matrix:
 Charge =  0 Multiplicity = 4

                         Standard orientation:
 ---------------------------------------------------------------------
 Center     Atomic      Atomic             Coordinates (Angstroms)
 Number     Number       Type             X           Y           Z
 ---------------------------------------------------------------------
      1          6           0        1.216705    0.197230    0.000000
      2          6           0        0.000000    0.801259    0.000000
      3          6           0       -1.261991    0.527908    0.000000
      4          6           0       -2.572510    0.429544    0.000000
      5          6           0        1.697002   -1.184259   -0.000000
      6          1           0        2.325210   -1.361757    0.878015
      7          1           0        0.874348   -1.906575   -0.000000
      8          1           0        2.325210   -1.361757   -0.878015
 ---------------------------------------------------------------------

 SCF Done:  E(UB3LYP) =  -192.074027460     A.U. after   18 cycles

 The electronic state is 4-A".
 Alpha  occ. eigenvalues --  -10.28103 -10.23776 -10.22861 -10.22198 -10.22096
 Alpha  occ. eigenvalues --   -0.86875  -0.80630  -0.74026  -0.64164  -0.50992
 Alpha  occ. eigenvalues --   -0.48075  -0.47866  -0.39010  -0.38650  -0.31576
 Alpha  occ. eigenvalues --   -0.30065  -0.28535  -0.21355
 Alpha virt. eigenvalues --   -0.09148  -0.02049   0.00693   0.01739   0.01865
 Alpha virt. eigenvalues --    0.04260   0.05626   0.06178   0.06326   0.06787
 Alpha virt. eigenvalues --    0.07185   0.08529   0.08868   0.10072   0.10674

  Beta  occ. eigenvalues --  -10.25907 -10.22905 -10.22104 -10.21784 -10.21550
  Beta  occ. eigenvalues --   -0.83663  -0.78372  -0.70501  -0.61114  -0.48838
  Beta  occ. eigenvalues --   -0.46385  -0.46054  -0.35344  -0.33806  -0.28701
  Beta virt. eigenvalues --   -0.17929  -0.16523  -0.07248  -0.03889  -0.01743
  Beta virt. eigenvalues --    0.01791   0.02048   0.02211   0.05180   0.06564
  Beta virt. eigenvalues --    0.06662   0.06980   0.07743   0.07852   0.09228

 Mulliken charges and spin densities:
               1          2
     1  C   -0.119260   1.393370
     2  C   -0.579181   0.270796
     3  C    1.077304   0.382655
     4  C   -0.541804   0.898854
     5  C   -0.337123  -0.067150
     6  H    0.173231   0.028174
     7  H    0.153603   0.065126
     8  H    0.173231   0.028174
 Sum of Mulliken charges =  -0.00000   3.00000

 Dipole moment (field-independent basis, Debye):
    X=              4.6872    Y=             -2.1191    Z=              0.0000  Tot=              5.1440
 Quadrupole moment (field-independent basis, Debye-Ang):
   XX=            -38.5813   YY=            -29.6430   ZZ=            -29.1893
   XY=             -1.6063   XZ=              0.0000   YZ=             -0.0000

  Exact polarizability: 115.492 -11.818  54.376   0.000   0.000  43.019
 Approx polarizability: 214.104  -5.175  73.292   0.000  -0.000  60.924

                      1                      2                      3
                     A"                     A'                     A"
 Frequencies --     75.1471                98.3509               209.9726
 Red. masses --      1.0684                 5.1958                 8.3800
 Frc consts  --      0.0036                 0.0296                 0.2177
 IR Inten    --      0.0101                 5.1547                20.1239

                      4                      5                      6
                     A'                     A'                     A"
 Frequencies --    348.6595               480.1719               489.4235
 Red. masses --      5.7172                 4.7924                 5.6875
 Frc consts  --      0.4095                 0.6510                 0.8027
 IR Inten    --      3.0533                 8.3035                 3.0185

                      7                      8                      9
                     A'                     A"                     A'
 Frequencies --    802.0384               967.9592              1043.2478
 Red. masses --      4.2513                 1.4264                 1.6872
 Frc consts  --      1.6113                 0.7874                 1.0819
 IR Inten    --     10.2252                 1.5593                 2.1980

                     10                     11                     12
                     A'                     A'                     A'
 Frequencies --   1128.3099              1375.1160              1423.2734
 Red. masses --      7.9837                 1.2115                 1.7266
 Frc consts  --      5.9884                 1.3498                 2.0607
 IR Inten    --     10.0316                11.8950               210.4730

                     13                     14                     15
                     A"                     A'                     A'
 Frequencies --   1434.2209              1459.9198              1923.7795
 Red. masses --      1.0439                 2.1404                11.8728
 Frc consts  --      1.2651                 2.6878                25.8888
 IR Inten    --     10.5031                92.5478                 2.9504

                     16                     17                     18
                     A'                     A"                     A'
 Frequencies --   2985.7828              3053.3418              3054.3570
 Red. masses --      1.0334                 1.0971                 1.0991
 Frc consts  --      5.4279                 6.0260                 6.0411
 IR Inten    --      1.0865                 0.2521                 2.4533

 - Thermochemistry -
 -------------------
 Temperature   298.150 Kelvin.  Pressure   1.00000 Atm.
 Atom     1 has atomic number  6 and mass  12.00000

 Molecular mass:    63.02348 amu.
 Principal axes and moments of inertia in atomic units:
                           1         2         3
     Eigenvalues --    76.70326 647.40884 713.01405
           X            0.94300   0.33280   0.00000
           Y           -0.33280   0.94300   0.00000
           Z            0.00000  -0.00000   1.00000
 This molecule is an asymmetric top.
 Rotational symmetry number  1.
 Rotational temperatures (Kelvin)      1.12921     0.13379     0.12148
 Rotational constants (GHZ):          23.52887     2.78764     2.53114
 Zero-point vibrational energy     133701.1 (Joules/Mol)
                                   31.95532 (Kcal/Mol)
 Warning -- explicit consideration of   6 degrees of freedom as
           vibrations may cause significant error
 Vibrational temperatures:    108.12   141.50   302.10   501.64   690.86
          (Kelvin)            704.17  1153.95  1392.68  1501.00  1623.38
                             1978.48  2047.77  2063.52  2100.50  2767.89
                             4295.87  4393.07  4394.53

 Zero-point correction=                           0.050924 (Hartree/Particle)
 Thermal correction to Energy=                    0.056858
 Thermal correction to Enthalpy=                  0.057802
 Thermal correction to Gibbs Free Energy=         0.020364
 Sum of electronic and zero-point Energies=           -192.023103
 Sum of electronic and thermal Energies=              -192.017169
 Sum of electronic and thermal Enthalpies=            -192.016225
 Sum of electronic and thermal Free Energies=         -192.053664

                     E (Thermal)             CV                S
                      KCal/Mol        Cal/Mol-Kelvin    Cal/Mol-Kelvin
 Total                   35.679             17.908             78.796
 Electronic               0.000              0.000              2.755
 Translational            0.889              2.981             38.342
 Rotational               0.889              2.981             25.074
 Vibrational             33.901             11.946             12.625
 Vibration     1          0.599              1.966              4.014
 Vibration     2          0.604              1.950              3.487
 Vibration     3          0.642              1.826              2.044
 Vibration     4          0.726              1.578              1.172
 Vibration     5          0.837              1.294              0.710
 Vibration     6          0.845              1.273              0.685

 Optimization completed.
    -- Stationary point found.
 Normal termination of Gaussian 09 at Tue Jul 19 14:15:26 2016.
