 Gaussian 09, Revision E.01,
 Gaussian 09:  EM64L-G09RevE.01 30-Nov-2015

 ---------------------------------------------
 #p b3lyp/6-311++G(3df,2p) freq symmetry=Loose
 ---------------------------------------------

 ---------
 b3lyp opt
 ---------
 Symbolic Z-matrix:
 Charge =  2 Multiplicity = 2

                         Standard orientation:
 ---------------------------------------------------------------------
 Center     Atomic      Atomic             Coordinates (Angstroms)
 Number     Number       Type             X           Y           Z
 ---------------------------------------------------------------------
      1          6           0        1.783004    0.049233    0.120380
      2          1           0        2.227419    0.967629    0.509973
      3          1           0        2.436837   -0.777307   -0.174092
      4          6           0        0.408284   -0.049587   -0.120026
      5          6           0       -0.778965    0.868644   -0.142488
      6          1           0       -1.046026    1.791745   -0.670535
      7          6           0       -1.405486   -0.184678    0.492000
      8          6           0       -0.609876   -1.013957   -0.294090
 ---------------------------------------------------------------------

 SCF Done:  E(UB3LYP) =  -191.215438294     A.U. after   21 cycles

 The electronic state is 2-A.
 Alpha  occ. eigenvalues --  -10.80340 -10.78107 -10.78037 -10.76030 -10.74030
 Alpha  occ. eigenvalues --   -1.49226  -1.25990  -1.16001  -1.09557  -1.00495
 Alpha  occ. eigenvalues --   -0.96751  -0.95457  -0.90240  -0.88242  -0.81638
 Alpha  occ. eigenvalues --   -0.76677
 Alpha virt. eigenvalues --   -0.65591  -0.56416  -0.52200  -0.47108  -0.33669
 Alpha virt. eigenvalues --   -0.32592  -0.30108  -0.29367  -0.27213  -0.26991
 Alpha virt. eigenvalues --   -0.25617  -0.23907  -0.22277  -0.21676  -0.21226

  Beta  occ. eigenvalues --  -10.78703 -10.77897 -10.77829 -10.75893 -10.73963
  Beta  occ. eigenvalues --   -1.48474  -1.25658  -1.14553  -1.08936  -0.98728
  Beta  occ. eigenvalues --   -0.96368  -0.94786  -0.89343  -0.87350  -0.77339
  Beta virt. eigenvalues --   -0.65274  -0.63904  -0.54168  -0.51312  -0.45611
  Beta virt. eigenvalues --   -0.33450  -0.32370  -0.29824  -0.28630  -0.27022
  Beta virt. eigenvalues --   -0.26555  -0.25328  -0.23675  -0.21809  -0.21531

 Mulliken charges and spin densities:
               1          2
     1  C   -0.089627   0.047606
     2  H    0.304282   0.000798
     3  H    0.299794   0.004024
     4  C    0.438063   0.021679
     5  C    0.006884   0.090107
     6  H    0.354240   0.015037
     7  C    0.276916   0.008962
     8  C    0.409448   0.811788
 Sum of Mulliken charges =   2.00000   1.00000

 Dipole moment (field-independent basis, Debye):
    X=              1.6383    Y=              1.2700    Z=             -0.4557  Tot=              2.1224
 Quadrupole moment (field-independent basis, Debye-Ang):
   XX=             -0.8031   YY=            -14.2591   ZZ=            -22.7838
   XY=             -1.2958   XZ=              1.9014   YZ=             -0.7216

  Exact polarizability:  71.832   1.712  38.726  -2.608   0.775  28.565
 Approx polarizability: 200.013  11.520  70.939 -23.418   1.070  50.011

                      1                      2                      3
                      A                      A                      A
 Frequencies --    268.8904               315.2006               406.7474
 Red. masses --      4.1192                 1.7290                 1.6328
 Frc consts  --      0.1755                 0.1012                 0.1592
 IR Inten    --      8.7075                 7.2879                14.9442

                      4                      5                      6
                      A                      A                      A
 Frequencies --    455.3461               624.3892               700.5582
 Red. masses --      5.1894                 5.5722                 3.8765
 Frc consts  --      0.6339                 1.2799                 1.1209
 IR Inten    --     40.8916                11.3615                26.0985

                      7                      8                      9
                      A                      A                      A
 Frequencies --    890.2053               912.0469              1011.5514
 Red. masses --      2.3317                 1.8676                 1.4277
 Frc consts  --      1.0887                 0.9153                 0.8607
 IR Inten    --     36.2157                 1.0238                 1.2375

                     10                     11                     12
                      A                      A                      A
 Frequencies --   1090.0331              1130.2262              1285.8525
 Red. masses --      1.4515                 1.4014                 7.8076
 Frc consts  --      1.0161                 1.0548                 7.6059
 IR Inten    --     32.0133                15.8619                35.9299

                     13                     14                     15
                      A                      A                      A
 Frequencies --   1322.9987              1437.2102              1501.5697
 Red. masses --      6.7007                 1.2989                 5.0284
 Frc consts  --      6.9102                 1.5808                 6.6799
 IR Inten    --     54.7485                96.4531               213.6759

                     16                     17                     18
                      A                      A                      A
 Frequencies --   3051.5538              3088.1448              3166.5571
 Red. masses --      1.0555                 1.1078                 1.1247
 Frc consts  --      5.7912                 6.2243                 6.6447
 IR Inten    --    155.7651               222.4329               102.7064

 - Thermochemistry -
 -------------------
 Temperature   298.150 Kelvin.  Pressure   1.00000 Atm.
 Atom     1 has atomic number  6 and mass  12.00000

 Molecular mass:    63.02348 amu.
 Principal axes and moments of inertia in atomic units:
                           1         2         3
     Eigenvalues --   113.57523 331.31650 407.49029
           X            0.99957  -0.02377   0.01732
           Y            0.02425   0.99931  -0.02829
           Z           -0.01664   0.02870   0.99945
 This molecule is an asymmetric top.
 Rotational symmetry number  1.
 Rotational temperatures (Kelvin)      0.76261     0.26142     0.21255
 Rotational constants (GHZ):          15.89027     5.44718     4.42892
 Zero-point vibrational energy     135531.4 (Joules/Mol)
                                   32.39278 (Kcal/Mol)
 Warning -- explicit consideration of   4 degrees of freedom as
           vibrations may cause significant error
 Vibrational temperatures:    386.87   453.50   585.22   655.14   898.36
          (Kelvin)           1007.95  1280.81  1312.23  1455.39  1568.31
                             1626.14  1850.05  1903.50  2067.82  2160.42
                             4390.50  4443.15  4555.96

 Zero-point correction=                           0.051621 (Hartree/Particle)
 Thermal correction to Energy=                    0.056362
 Thermal correction to Enthalpy=                  0.057306
 Thermal correction to Gibbs Free Energy=         0.024093
 Sum of electronic and zero-point Energies=           -191.163817
 Sum of electronic and thermal Energies=              -191.159077
 Sum of electronic and thermal Enthalpies=            -191.158133
 Sum of electronic and thermal Free Energies=         -191.191345

                     E (Thermal)             CV                S
                      KCal/Mol        Cal/Mol-Kelvin    Cal/Mol-Kelvin
 Total                   35.367             16.316             69.902
 Electronic               0.000              0.000              1.377
 Translational            0.889              2.981             38.342
 Rotational               0.889              2.981             24.243
 Vibrational             33.590             10.355              5.940
 Vibration     1          0.673              1.730              1.603
 Vibration     2          0.703              1.645              1.335
 Vibration     3          0.772              1.456              0.938
 Vibration     4          0.814              1.349              0.780

 Normal termination of Gaussian 09 at Sun Jun 19 11:52:10 2016.
