 Gaussian 09, Revision E.01,
 Gaussian 09:  EM64L-G09RevE.01 30-Nov-2015

 ---------------------------------------------
 #p b3lyp/6-311++G(3df,2p) freq symmetry=Loose
 ---------------------------------------------

 ---------
 b3lyp opt
 ---------
 Symbolic Z-matrix:
 Charge =  0 Multiplicity = 2

                         Standard orientation:
 ---------------------------------------------------------------------
 Center     Atomic      Atomic             Coordinates (Angstroms)
 Number     Number       Type             X           Y           Z
 ---------------------------------------------------------------------
      1          6           0       -2.515331    0.000042    0.000408
      2          6           0        0.066512   -0.000076   -0.000572
      3          6           0       -1.169869   -0.000031   -0.000494
      4          1           0       -3.073812    0.926892    0.000769
      5          1           0       -3.073726   -0.926795    0.000770
      6          6           0        1.407850    0.000001   -0.000050
      7          6           0        2.621561    0.000033    0.000299
      8          1           0        3.683204    0.000081    0.000915
 ---------------------------------------------------------------------

 SCF Done:  E(UB3LYP) =  -192.236072883     A.U. after   16 cycles

 The electronic state is 2-A.
 Alpha  occ. eigenvalues --  -10.21029 -10.20823 -10.20471 -10.20452 -10.19852
 Alpha  occ. eigenvalues --   -0.82673  -0.78413  -0.72451  -0.62721  -0.53666
 Alpha  occ. eigenvalues --   -0.49885  -0.46589  -0.38809  -0.36247  -0.31772
 Alpha  occ. eigenvalues --   -0.26364  -0.21871
 Alpha virt. eigenvalues --   -0.04185  -0.00995  -0.00457   0.00492   0.02637
 Alpha virt. eigenvalues --    0.03723   0.05308   0.06519   0.06719   0.07857
 Alpha virt. eigenvalues --    0.09076   0.09837   0.10101   0.11061   0.12791

  Beta  occ. eigenvalues --  -10.20846 -10.20710 -10.20283 -10.19935 -10.19365
  Beta  occ. eigenvalues --   -0.81786  -0.77648  -0.70550  -0.62112  -0.53249
  Beta  occ. eigenvalues --   -0.49363  -0.46159  -0.36540  -0.35938  -0.29286
  Beta  occ. eigenvalues --   -0.26113
  Beta virt. eigenvalues --   -0.12031  -0.04134  -0.00352   0.00521   0.00560
  Beta virt. eigenvalues --    0.02626   0.03751   0.05515   0.06529   0.06717
  Beta virt. eigenvalues --    0.09001   0.09192   0.10203   0.10377   0.11231

 Mulliken charges and spin densities:
               1          2
     1  C   -0.644805   0.701196
     2  C   -0.930263   0.421223
     3  C    0.884224  -0.266739
     4  H    0.186897  -0.024109
     5  H    0.186908  -0.024105
     6  C   -0.419993  -0.122644
     7  C    0.418617   0.325124
     8  H    0.318415  -0.009946
 Sum of Mulliken charges =  -0.00000   1.00000

 Dipole moment (field-independent basis, Debye):
    X=             -0.2518    Y=              0.0001    Z=              0.0014  Tot=              0.2518
 Quadrupole moment (field-independent basis, Debye-Ang):
   XX=            -18.0513   YY=            -29.5730   ZZ=            -31.3998
   XY=             -0.0000   XZ=              0.0005   YZ=             -0.0000

  Exact polarizability: 145.395  -0.001  38.075  -0.002   0.000  37.159
 Approx polarizability: 272.454  -0.002  52.461  -0.000   0.000  50.771

                      1                      2                      3
                      A                      A                      A
 Frequencies --    143.0023               151.2183               347.5181
 Red. masses --      4.3423                 3.6085                 3.6382
 Frc consts  --      0.0523                 0.0486                 0.2589
 IR Inten    --      5.1692                 5.4453                 0.0101

                      4                      5                      6
                      A                      A                      A
 Frequencies --    398.4625               523.5250               549.8663
 Red. masses --      5.2088                 7.4188                 7.7248
 Frc consts  --      0.4873                 1.1980                 1.3761
 IR Inten    --      0.0003                 3.1297                 0.8165

                      7                      8                      9
                      A                      A                      A
 Frequencies --    587.1521               629.5509               736.7138
 Red. masses --      1.3098                 1.2766                 5.6525
 Frc consts  --      0.2660                 0.2981                 1.8075
 IR Inten    --     43.5614                47.2770                 0.0853

                     10                     11                     12
                      A                      A                      A
 Frequencies --    752.8075              1022.2171              1320.2856
 Red. masses --      1.3496                 1.4545                 2.8006
 Frc consts  --      0.4506                 0.8955                 2.8763
 IR Inten    --     49.6185                 0.1993                 1.0068

                     13                     14                     15
                      A                      A                      A
 Frequencies --   1473.1808              2031.1889              2098.8772
 Red. masses --      1.4841                11.1998                 6.9323
 Frc consts  --      1.8977                27.2245                17.9930
 IR Inten    --      1.6074                 0.6829                 2.4588

                     16                     17                     18
                      A                      A                      A
 Frequencies --   3127.9932              3211.7426              3458.2144
 Red. masses --      1.0519                 1.1165                 1.1436
 Frc consts  --      6.0638                 6.7854                 8.0578
 IR Inten    --      1.0699                 0.1061               113.8633

 - Thermochemistry -
 -------------------
 Temperature   298.150 Kelvin.  Pressure   1.00000 Atm.
 Atom     1 has atomic number  6 and mass  12.00000

 Molecular mass:    63.02348 amu.
 Principal axes and moments of inertia in atomic units:
                           1         2         3
     Eigenvalues --     6.18342 825.90033 832.08367
           X            1.00000  -0.00000  -0.00001
           Y            0.00000   1.00000  -0.00000
           Z            0.00001   0.00000   1.00000
 This molecule is an asymmetric top.
 Rotational symmetry number  1.
 Rotational temperatures (Kelvin)     14.00743     0.10487     0.10409
 Rotational constants (GHZ):         291.86783     2.18518     2.16894
 Zero-point vibrational energy     134959.8 (Joules/Mol)
                                   32.25617 (Kcal/Mol)
 Warning -- explicit consideration of   7 degrees of freedom as
           vibrations may cause significant error
 Vibrational temperatures:    205.75   217.57   500.00   573.30   753.23
          (Kelvin)            791.13   844.78   905.78  1059.97  1083.12
                             1470.74  1899.59  2119.58  2922.42  3019.81
                             4500.48  4620.98  4975.59

 Zero-point correction=                           0.051403 (Hartree/Particle)
 Thermal correction to Energy=                    0.057159
 Thermal correction to Enthalpy=                  0.058103
 Thermal correction to Gibbs Free Energy=         0.023459
 Sum of electronic and zero-point Energies=           -192.184669
 Sum of electronic and thermal Energies=              -192.178914
 Sum of electronic and thermal Enthalpies=            -192.177970
 Sum of electronic and thermal Free Energies=         -192.212614

                     E (Thermal)             CV                S
                      KCal/Mol        Cal/Mol-Kelvin    Cal/Mol-Kelvin
 Total                   35.868             19.279             72.914
 Electronic               0.000              0.000              1.377
 Translational            0.889              2.981             38.342
 Rotational               0.889              2.981             22.968
 Vibrational             34.090             13.318             10.227
 Vibration     1          0.616              1.910              2.763
 Vibration     2          0.619              1.901              2.657
 Vibration     3          0.725              1.580              1.177
 Vibration     4          0.765              1.473              0.968
 Vibration     5          0.878              1.198              0.602
 Vibration     6          0.905              1.140              0.544
 Vibration     7          0.944              1.059              0.472

 Optimization completed.
    -- Stationary point found.
 Normal termination of Gaussian 09 at Sun Jun 19 07:30:03 2016.
