 Gaussian 09, Revision E.01,
 Gaussian 09:  EM64L-G09RevE.01 30-Nov-2015

 ---------------------------------------------
 #p b3lyp/6-311++G(3df,2p) freq symmetry=Loose
 ---------------------------------------------

 ---------
 b3lyp opt
 ---------
 Symbolic Z-matrix:
 Charge =  0 Multiplicity = 4

                         Standard orientation:
 ---------------------------------------------------------------------
 Center     Atomic      Atomic             Coordinates (Angstroms)
 Number     Number       Type             X           Y           Z
 ---------------------------------------------------------------------
      1          6           0        2.343927   -0.471294    0.000030
      2          6           0       -0.022583    0.063417   -0.000212
      3          6           0        1.311912    0.389754   -0.000140
      4          1           0        1.556854    1.461717    0.000487
      5          1           0        3.418358   -0.390390    0.000451
      6          6           0       -1.309062   -0.007502    0.000239
      7          6           0       -2.551913   -0.117131   -0.000212
      8          1           0       -3.608895   -0.214795    0.000836
 ---------------------------------------------------------------------

 SCF Done:  E(UB3LYP) =  -192.137847820     A.U. after   16 cycles

 The electronic state is 4-A.
 Alpha  occ. eigenvalues --  -10.22143 -10.21723 -10.21550 -10.20536 -10.19780
 Alpha  occ. eigenvalues --   -0.83919  -0.78942  -0.71220  -0.62221  -0.53961
 Alpha  occ. eigenvalues --   -0.50664  -0.48856  -0.38525  -0.35685  -0.31715
 Alpha  occ. eigenvalues --   -0.27010  -0.22007  -0.21577
 Alpha virt. eigenvalues --   -0.02549  -0.00586   0.00468   0.01949   0.04021
 Alpha virt. eigenvalues --    0.04730   0.05554   0.06691   0.07594   0.08145
 Alpha virt. eigenvalues --    0.09258   0.09306   0.09949   0.10489   0.12074

  Beta  occ. eigenvalues --  -10.21973 -10.20404 -10.19944 -10.19901 -10.19042
  Beta  occ. eigenvalues --   -0.81505  -0.77196  -0.66756  -0.59419  -0.52567
  Beta  occ. eigenvalues --   -0.48193  -0.46990  -0.35820  -0.32303  -0.28999
  Beta virt. eigenvalues --   -0.10186  -0.09893  -0.09400  -0.00284  -0.00076
  Beta virt. eigenvalues --    0.00643   0.02149   0.04439   0.05226   0.05652
  Beta virt. eigenvalues --    0.07345   0.08385   0.09188   0.09953   0.10526

 Mulliken charges and spin densities:
               1          2
     1  C   -0.455404   1.492360
     2  C   -0.057369   0.866332
     3  C    0.043705  -0.156642
     4  H    0.142377   0.122590
     5  H    0.218272   0.016474
     6  C   -0.476833  -0.298630
     7  C    0.264259   0.987387
     8  H    0.320993  -0.029871
 Sum of Mulliken charges =  -0.00000   3.00000

 Dipole moment (field-independent basis, Debye):
    X=              0.3918    Y=              0.7831    Z=              0.0019  Tot=              0.8756
 Quadrupole moment (field-independent basis, Debye-Ang):
   XX=            -19.4268   YY=            -30.0212   ZZ=            -31.8083
   XY=              1.8299   XZ=             -0.0021   YZ=              0.0004

  Exact polarizability: 133.256  -1.733  44.888   0.008   0.001  38.387
 Approx polarizability: 215.044  -3.552  63.711   0.024   0.001  52.597

                      1                      2                      3
                      A                      A                      A
 Frequencies --     63.3700               154.3217               246.0832
 Red. masses --      4.6407                 3.6462                 1.4007
 Frc consts  --      0.0110                 0.0512                 0.0500
 IR Inten    --      4.7345                10.7707                47.1184

                      4                      5                      6
                      A                      A                      A
 Frequencies --    392.7371               404.1129               444.4638
 Red. masses --      3.9893                 1.7478                 2.5885
 Frc consts  --      0.3625                 0.1682                 0.3013
 IR Inten    --      4.7799                40.1592                 6.9483

                      7                      8                      9
                      A                      A                      A
 Frequencies --    468.9893               598.8572               748.9671
 Red. masses --      4.1127                 1.2332                 1.9810
 Frc consts  --      0.5330                 0.2606                 0.6547
 IR Inten    --      1.6543                37.6946                13.8810

                     10                     11                     12
                      A                      A                      A
 Frequencies --    803.2932               931.4922              1232.8106
 Red. masses --      1.5932                 2.0818                 1.3776
 Frc consts  --      0.6057                 1.0642                 1.2336
 IR Inten    --      2.3179                 9.8374                 2.7822

                     13                     14                     15
                      A                      A                      A
 Frequencies --   1395.1140              1580.8801              1807.3897
 Red. masses --      4.3363                 8.7707                 8.7282
 Frc consts  --      4.9726                12.9146                16.7987
 IR Inten    --     15.1125                 0.4624                 1.3529

                     16                     17                     18
                      A                      A                      A
 Frequencies --   2944.9137              3242.8489              3445.9799
 Red. masses --      1.0776                 1.0964                 1.1202
 Frc consts  --      5.5060                 6.7930                 7.8373
 IR Inten    --      9.5502                 3.1540               102.5625

 - Thermochemistry -
 -------------------
 Temperature   298.150 Kelvin.  Pressure   1.00000 Atm.
 Atom     1 has atomic number  6 and mass  12.00000

 Molecular mass:    63.02348 amu.
 Principal axes and moments of inertia in atomic units:
                           1         2         3
     Eigenvalues --    25.10262 759.31151 784.41411
           X            0.99996   0.00837  -0.00000
           Y           -0.00837   0.99996   0.00005
           Z            0.00000  -0.00005   1.00000
 This molecule is an asymmetric top.
 Rotational symmetry number  1.
 Rotational temperatures (Kelvin)      3.45039     0.11407     0.11042
 Rotational constants (GHZ):          71.89453     2.37681     2.30075
 Zero-point vibrational energy     125049.4 (Joules/Mol)
                                   29.88752 (Kcal/Mol)
 Warning -- explicit consideration of   8 degrees of freedom as
           vibrations may cause significant error
 Vibrational temperatures:     91.18   222.03   354.06   565.06   581.43
          (Kelvin)            639.48   674.77   861.62  1077.60  1155.76
                             1340.21  1773.74  2007.26  2274.53  2600.43
                             4237.07  4665.73  4957.99

 Zero-point correction=                           0.047629 (Hartree/Particle)
 Thermal correction to Energy=                    0.053942
 Thermal correction to Enthalpy=                  0.054887
 Thermal correction to Gibbs Free Energy=         0.017527
 Sum of electronic and zero-point Energies=           -192.090219
 Sum of electronic and thermal Energies=              -192.083905
 Sum of electronic and thermal Enthalpies=            -192.082961
 Sum of electronic and thermal Free Energies=         -192.120321

                     E (Thermal)             CV                S
                      KCal/Mol        Cal/Mol-Kelvin    Cal/Mol-Kelvin
 Total                   33.849             20.489             78.629
 Electronic               0.000              0.000              2.755
 Translational            0.889              2.981             38.342
 Rotational               0.889              2.981             24.218
 Vibrational             32.072             14.528             13.315
 Vibration     1          0.597              1.972              4.349
 Vibration     2          0.620              1.898              2.618
 Vibration     3          0.661              1.769              1.758
 Vibration     4          0.760              1.486              0.990
 Vibration     5          0.769              1.461              0.948
 Vibration     6          0.804              1.373              0.813
 Vibration     7          0.826              1.319              0.740
 Vibration     8          0.957              1.034              0.452

 Optimization completed.
    -- Stationary point found.
 Normal termination of Gaussian 09 at Sun Jun 19 09:26:44 2016.
