 Gaussian 09, Revision E.01,
 Gaussian 09:  EM64L-G09RevE.01 30-Nov-2015

 ---------------------------------------------
 #p b3lyp/6-311++G(3df,2p) freq symmetry=Loose
 ---------------------------------------------

 ---------
 b3lyp opt
 ---------
 Symbolic Z-matrix:
 Charge =  1 Multiplicity = 3

                         Standard orientation:
 ---------------------------------------------------------------------
 Center     Atomic      Atomic             Coordinates (Angstroms)
 Number     Number       Type             X           Y           Z
 ---------------------------------------------------------------------
      1          1           0        0.386408    1.830197   -0.368688
      2          6           0        0.479435    0.847274    0.092464
      3          6           0       -0.748973   -0.109455    0.359789
      4          1           0       -1.010544   -0.248138    1.421244
      5          6           0        0.418146   -0.923166   -0.147771
      6          6           0       -1.956550    0.036870   -0.381427
      7          6           0        1.488548   -0.097880   -0.051294
      8          1           0        2.540494   -0.103908   -0.283128
 ---------------------------------------------------------------------

 SCF Done:  E(UB3LYP) =  -191.727416414     A.U. after   22 cycles

 The electronic state is 3-A.
 Alpha  occ. eigenvalues --  -10.52784 -10.51132 -10.49907 -10.47600 -10.47455
 Alpha  occ. eigenvalues --   -1.20657  -1.02208  -0.89293  -0.85939  -0.77301
 Alpha  occ. eigenvalues --   -0.73257  -0.69913  -0.67834  -0.61115  -0.52899
 Alpha  occ. eigenvalues --   -0.52131  -0.46181
 Alpha virt. eigenvalues --   -0.34445  -0.32254  -0.26720  -0.15039  -0.14596
 Alpha virt. eigenvalues --   -0.12995  -0.12009  -0.09803  -0.08580  -0.07886
 Alpha virt. eigenvalues --   -0.07845  -0.07056  -0.06378  -0.04840  -0.03092

  Beta  occ. eigenvalues --  -10.51072 -10.50433 -10.48754 -10.47604 -10.47492
  Beta  occ. eigenvalues --   -1.19300  -1.00668  -0.86652  -0.84425  -0.76058
  Beta  occ. eigenvalues --   -0.70919  -0.68565  -0.65537  -0.59017  -0.51249
  Beta virt. eigenvalues --   -0.37360  -0.33407  -0.33098  -0.27123  -0.25030
  Beta virt. eigenvalues --   -0.14776  -0.14059  -0.12472  -0.11311  -0.09519
  Beta virt. eigenvalues --   -0.08329  -0.07395  -0.07237  -0.06413  -0.05867

 Mulliken charges and spin densities:
               1          2
     1  H    0.251049   0.036133
     2  C   -0.051560   0.427845
     3  C    0.409167  -0.120564
     4  H    0.259541  -0.002598
     5  C    0.102892   1.063577
     6  C   -0.440931   0.754261
     7  C    0.166760  -0.162151
     8  H    0.303082   0.003498
 Sum of Mulliken charges =   1.00000   2.00000

 Dipole moment (field-independent basis, Debye):
    X=              2.4439    Y=              0.7401    Z=              0.9014  Tot=              2.7080
 Quadrupole moment (field-independent basis, Debye-Ang):
   XX=            -19.3915   YY=            -22.9530   ZZ=            -25.0055
   XY=              0.7214   XZ=             -3.7647   YZ=             -1.0187

  Exact polarizability:  69.114  -0.421  45.074   2.176   0.626  34.444
 Approx polarizability: 111.711  -2.102  83.811   4.918   3.230  54.536

                      1                      2                      3
                      A                      A                      A
 Frequencies --    169.5938               343.1222               462.3010
 Red. masses --      5.5939                 5.4769                 3.7993
 Frc consts  --      0.0948                 0.3799                 0.4784
 IR Inten    --     30.5300                 5.9258                24.4226

                      4                      5                      6
                      A                      A                      A
 Frequencies --    544.3239               637.4281               792.7043
 Red. masses --      4.0744                 4.1628                 1.9023
 Frc consts  --      0.7113                 0.9965                 0.7043
 IR Inten    --     21.0633                11.7660                30.3402

                      7                      8                      9
                      A                      A                      A
 Frequencies --    879.8454               899.6070               955.4999
 Red. masses --      1.3781                 2.0709                 1.2906
 Frc consts  --      0.6286                 0.9875                 0.6942
 IR Inten    --     14.5546                 9.2812                 9.4927

                     10                     11                     12
                      A                      A                      A
 Frequencies --   1012.9004              1052.9312              1117.8450
 Red. masses --      1.4249                 1.7935                 1.4701
 Frc consts  --      0.8613                 1.1715                 1.0823
 IR Inten    --      7.5751                 8.2270                17.6328

                     13                     14                     15
                      A                      A                      A
 Frequencies --   1212.2127              1248.0568              1507.0521
 Red. masses --      2.4137                 3.2897                 6.3028
 Frc consts  --      2.0897                 3.0191                 8.4341
 IR Inten    --     17.6947                12.0563                 8.8886

                     16                     17                     18
                      A                      A                      A
 Frequencies --   2986.5655              3117.8592              3271.5596
 Red. masses --      1.0800                 1.0923                 1.1117
 Frc consts  --      5.6755                 6.2563                 7.0105
 IR Inten    --     70.6441                52.4015                78.0675

 - Thermochemistry -
 -------------------
 Temperature   298.150 Kelvin.  Pressure   1.00000 Atm.
 Atom     1 has atomic number  1 and mass   1.00783

 Molecular mass:    63.02348 amu.
 Principal axes and moments of inertia in atomic units:
                           1         2         3
     Eigenvalues --   101.43303 348.64065 408.49555
           X            0.99961   0.00864  -0.02672
           Y           -0.01021   0.99819  -0.05925
           Z            0.02616   0.05950   0.99789
 This molecule is an asymmetric top.
 Rotational symmetry number  1.
 Rotational temperatures (Kelvin)      0.85390     0.24843     0.21203
 Rotational constants (GHZ):          17.79244     5.17651     4.41802
 Zero-point vibrational energy     132853.7 (Joules/Mol)
                                   31.75280 (Kcal/Mol)
 Warning -- explicit consideration of   4 degrees of freedom as
           vibrations may cause significant error
 Vibrational temperatures:    244.01   493.68   665.15   783.16   917.12
          (Kelvin)           1140.52  1265.90  1294.33  1374.75  1457.34
                             1514.93  1608.33  1744.10  1795.67  2168.31
                             4297.00  4485.90  4707.04

 Zero-point correction=                           0.050601 (Hartree/Particle)
 Thermal correction to Energy=                    0.055360
 Thermal correction to Enthalpy=                  0.056304
 Thermal correction to Gibbs Free Energy=         0.022582
 Sum of electronic and zero-point Energies=           -191.676815
 Sum of electronic and thermal Energies=              -191.672057
 Sum of electronic and thermal Enthalpies=            -191.671113
 Sum of electronic and thermal Free Energies=         -191.704835

                     E (Thermal)             CV                S
                      KCal/Mol        Cal/Mol-Kelvin    Cal/Mol-Kelvin
 Total                   34.739             16.387             70.974
 Electronic               0.000              0.000              2.183
 Translational            0.889              2.981             38.342
 Rotational               0.889              2.981             24.183
 Vibrational             32.961             10.426              6.266
 Vibration     1          0.625              1.880              2.440
 Vibration     2          0.722              1.589              1.198
 Vibration     3          0.820              1.334              0.759
 Vibration     4          0.899              1.152              0.556

 Optimization completed.
    -- Stationary point found.
 Normal termination of Gaussian 09 at Sun Jun 19 10:53:47 2016.
