 Gaussian 09, Revision E.01,
 Gaussian 09:  EM64L-G09RevE.01 30-Nov-2015

 ---------------------------------------------
 #p b3lyp/6-311++G(3df,2p) freq symmetry=Loose
 ---------------------------------------------

 ---------
 b3lyp opt
 ---------
 Symbolic Z-matrix:
 Charge =  2 Multiplicity = 4

                         Standard orientation:
 ---------------------------------------------------------------------
 Center     Atomic      Atomic             Coordinates (Angstroms)
 Number     Number       Type             X           Y           Z
 ---------------------------------------------------------------------
      1          6           0        0.031949   -1.525097    0.000000
      2          6           0       -0.000000    0.493067   -0.000000
      3          6           0       -1.023169   -0.572608   -0.000000
      4          1           0       -2.114848   -0.611743   -0.000000
      5          6           0        1.053943   -0.537299    0.000000
      6          1           0        2.146670   -0.533394    0.000000
      7          6           0        0.031174    1.871932   -0.000000
      8          1           0       -0.595205    2.765162   -0.000000
 ---------------------------------------------------------------------

 SCF Done:  E(UB3LYP) =  -191.228099626     A.U. after   14 cycles

 The electronic state is 4-A".
 Alpha  occ. eigenvalues --  -10.76570 -10.76464 -10.76218 -10.75407 -10.73564
 Alpha  occ. eigenvalues --   -1.44091  -1.25916  -1.17082  -1.07763  -1.02010
 Alpha  occ. eigenvalues --   -0.96714  -0.94293  -0.90720  -0.89581  -0.77945
 Alpha  occ. eigenvalues --   -0.76656  -0.73474
 Alpha virt. eigenvalues --   -0.62215  -0.55274  -0.40662  -0.33874  -0.32098
 Alpha virt. eigenvalues --   -0.31497  -0.30948  -0.28530  -0.26082  -0.25638
 Alpha virt. eigenvalues --   -0.23414  -0.22013  -0.20929  -0.20728  -0.20267

  Beta  occ. eigenvalues --  -10.76319 -10.76295 -10.74930 -10.73915 -10.71143
  Beta  occ. eigenvalues --   -1.42021  -1.20466  -1.16238  -1.02874  -1.01629
  Beta  occ. eigenvalues --   -0.94061  -0.91810  -0.88603  -0.87376
  Beta virt. eigenvalues --   -0.64493  -0.61931  -0.58449  -0.54936  -0.47847
  Beta virt. eigenvalues --   -0.36970  -0.32791  -0.31329  -0.30853  -0.29597
  Beta virt. eigenvalues --   -0.27849  -0.25651  -0.24873  -0.22446  -0.20574

 Mulliken charges and spin densities:
               1          2
     1  C    0.338762   1.273243
     2  C    0.611064   0.285244
     3  C    0.066694   0.070602
     4  H    0.373644   0.001620
     5  C    0.025889   0.047208
     6  H    0.373454   0.002386
     7  C   -0.139908   1.320537
     8  H    0.350402  -0.000841
 Sum of Mulliken charges =   2.00000   3.00000

 Dipole moment (field-independent basis, Debye):
    X=             -0.5387    Y=              1.0042    Z=             -0.0000  Tot=              1.1396
 Quadrupole moment (field-independent basis, Debye-Ang):
   XX=             -9.2032   YY=             -3.9510   ZZ=            -23.4951
   XY=             -2.0615   XZ=              0.0000   YZ=             -0.0000

  Exact polarizability:  42.021  -0.884  61.139   0.000   0.000  23.822
 Approx polarizability:  70.773   0.057 103.452   0.000  -0.000  36.575

                      1                      2                      3
                     A"                     A'                     A"
 Frequencies --     92.0494               358.9942               364.7885
 Red. masses --      2.7520                 2.5163                 2.4895
 Frc consts  --      0.0137                 0.1911                 0.1952
 IR Inten    --      5.9949                 4.3319                25.0138

                      4                      5                      6
                     A'                     A'                     A"
 Frequencies --    676.9518               727.4961               729.9233
 Red. masses --      1.4332                 5.1288                 1.3015
 Frc consts  --      0.3870                 1.5993                 0.4086
 IR Inten    --     44.4199                 3.2454                 8.4506

                      7                      8                      9
                     A'                     A"                     A'
 Frequencies --    906.1854               948.5897              1016.5086
 Red. masses --      2.6950                 2.0549                 5.7385
 Frc consts  --      1.3039                 1.0894                 3.4936
 IR Inten    --      0.5375                 8.4745                 6.7265

                     10                     11                     12
                     A"                     A'                     A'
 Frequencies --   1061.7128              1132.6058              1155.4042
 Red. masses --      1.3340                 2.3401                 1.4202
 Frc consts  --      0.8860                 1.7687                 1.1170
 IR Inten    --      0.0004                16.1917                26.3853

                     13                     14                     15
                     A'                     A'                     A'
 Frequencies --   1238.9557              1320.9882              1510.0155
 Red. masses --      5.7992                 2.9746                 7.7947
 Frc consts  --      5.2448                 3.0583                10.4716
 IR Inten    --    120.3063                91.7555                 7.3191

                     16                     17                     18
                     A'                     A'                     A'
 Frequencies --   3133.7309              3136.3670              3145.9437
 Red. masses --      1.1067                 1.1063                 1.1032
 Frc consts  --      6.4034                 6.4115                 6.4328
 IR Inten    --    133.1405               112.1844               225.5223

 - Thermochemistry -
 -------------------
 Temperature   298.150 Kelvin.  Pressure   1.00000 Atm.
 Atom     1 has atomic number  6 and mass  12.00000

 Molecular mass:    63.02348 amu.
 Principal axes and moments of inertia in atomic units:
                           1         2         3
     Eigenvalues --   126.39886 316.50446 442.90332
           X           -0.02149   0.99977   0.00000
           Y            0.99977   0.02149   0.00000
           Z           -0.00000   0.00000   1.00000
 This molecule is an asymmetric top.
 Rotational symmetry number  1.
 Rotational temperatures (Kelvin)      0.68524     0.27366     0.19556
 Rotational constants (GHZ):          14.27814     5.70210     4.07480
 Zero-point vibrational energy     135520.2 (Joules/Mol)
                                   32.39011 (Kcal/Mol)
 Warning -- explicit consideration of   3 degrees of freedom as
           vibrations may cause significant error
 Vibrational temperatures:    132.44   516.51   524.85   973.98  1046.70
          (Kelvin)           1050.20  1303.80  1364.81  1462.53  1527.57
                             1629.57  1662.37  1782.58  1900.61  2172.57
                             4508.73  4512.53  4526.31

 Zero-point correction=                           0.051617 (Hartree/Particle)
 Thermal correction to Energy=                    0.056454
 Thermal correction to Enthalpy=                  0.057398
 Thermal correction to Gibbs Free Energy=         0.022810
 Sum of electronic and zero-point Energies=           -191.176483
 Sum of electronic and thermal Energies=              -191.171646
 Sum of electronic and thermal Enthalpies=            -191.170701
 Sum of electronic and thermal Free Energies=         -191.205289

                     E (Thermal)             CV                S
                      KCal/Mol        Cal/Mol-Kelvin    Cal/Mol-Kelvin
 Total                   35.425             15.926             72.797
 Electronic               0.000              0.000              2.755
 Translational            0.889              2.981             38.342
 Rotational               0.889              2.981             24.386
 Vibrational             33.648              9.964              7.314
 Vibration     1          0.602              1.955              3.616
 Vibration     2          0.734              1.557              1.126
 Vibration     3          0.738              1.545              1.102

 Optimization completed.
    -- Stationary point found.
 Normal termination of Gaussian 09 at Tue Jul 19 15:45:20 2016.
