 Gaussian 09, Revision E.01,
 Gaussian 09:  EM64L-G09RevE.01 30-Nov-2015

 ---------------------------------------------
 #p b3lyp/6-311++G(3df,2p) freq symmetry=Loose
 ---------------------------------------------

 ---------
 b3lyp opt
 ---------
 Symbolic Z-matrix:
 Charge =  0 Multiplicity = 2

                         Standard orientation:
 ---------------------------------------------------------------------
 Center     Atomic      Atomic             Coordinates (Angstroms)
 Number     Number       Type             X           Y           Z
 ---------------------------------------------------------------------
      1          6           0        0.955274    0.000333   -0.009175
      2          6           0       -0.270808   -0.000556   -0.004276
      3          6           0       -1.597623   -0.000895   -0.000547
      4          6           0       -2.877354    0.000919    0.004223
      5          6           0        2.397639    0.000511   -0.000595
      6          1           0        2.801994   -0.878973   -0.505344
      7          1           0        2.803347    0.900172   -0.466955
      8          1           0        2.751891   -0.023068    1.034516
 ---------------------------------------------------------------------

 SCF Done:  E(UB3LYP) =  -192.171109771     A.U. after   21 cycles

 The electronic state is 2-A.
 Alpha  occ. eigenvalues --  -10.24883 -10.23399 -10.23374 -10.21181 -10.21040
 Alpha  occ. eigenvalues --   -0.85478  -0.80404  -0.74795  -0.64226  -0.51767
 Alpha  occ. eigenvalues --   -0.48392  -0.48092  -0.38851  -0.37548  -0.29309
 Alpha  occ. eigenvalues --   -0.28783  -0.26770
 Alpha virt. eigenvalues --   -0.06134  -0.04727  -0.02710   0.01677   0.01771
 Alpha virt. eigenvalues --    0.02182   0.05421   0.06733   0.07032   0.07174
 Alpha virt. eigenvalues --    0.07478   0.07991   0.09092   0.09401   0.09564

  Beta  occ. eigenvalues --  -10.24315 -10.23467 -10.23424 -10.20698 -10.20553
  Beta  occ. eigenvalues --   -0.84424  -0.79419  -0.73135  -0.63298  -0.51333
  Beta  occ. eigenvalues --   -0.47950  -0.47489  -0.37310  -0.35807  -0.28300
  Beta  occ. eigenvalues --   -0.26039
  Beta virt. eigenvalues --   -0.19070  -0.04353  -0.02811  -0.02655   0.01775
  Beta virt. eigenvalues --    0.01780   0.02245   0.05547   0.06988   0.07081
  Beta virt. eigenvalues --    0.07515   0.07556   0.08017   0.09425   0.09642

 Mulliken charges and spin densities:
               1          2
     1  C    0.558785   0.214381
     2  C   -0.628753   0.127630
     3  C    0.910001   0.383407
     4  C   -0.805817   0.248185
     5  C   -0.539825  -0.013627
     6  H    0.168028   0.007228
     7  H    0.167889   0.006378
     8  H    0.169693   0.026418
 Sum of Mulliken charges =  -0.00000   1.00000

 Dipole moment (field-independent basis, Debye):
    X=              6.5483    Y=             -0.0046    Z=              0.0509  Tot=              6.5485
 Quadrupole moment (field-independent basis, Debye-Ang):
   XX=            -37.0029   YY=            -30.3729   ZZ=            -28.5982
   XY=             -0.0029   XZ=              0.2072   YZ=             -0.0048

  Exact polarizability: 129.033  -0.018  41.133   0.169   0.073  42.690
 Approx polarizability: 233.155  -0.034  56.565  -0.041  -0.002  57.381

                      1                      2                      3
                      A                      A                      A
 Frequencies --     70.8554               133.4334               221.1399
 Red. masses --      8.0655                 3.7241                 4.4092
 Frc consts  --      0.0239                 0.0391                 0.1270
 IR Inten    --     23.1997                 0.3600                23.4058

                      4                      5                      6
                      A                      A                      A
 Frequencies --    257.5930               470.6697               502.6437
 Red. masses --      3.8286                 5.8361                 4.1219
 Frc consts  --      0.1497                 0.7617                 0.6136
 IR Inten    --     18.0845                 3.5198                15.5247

                      7                      8                      9
                      A                      A                      A
 Frequencies --    565.8759               687.6140              1012.9041
 Red. masses --      2.4237                 5.3695                 1.4546
 Frc consts  --      0.4573                 1.4958                 0.8793
 IR Inten    --     24.3088                 2.0358                 4.2723

                     10                     11                     12
                      A                      A                      A
 Frequencies --   1175.0368              1401.8435              1411.0628
 Red. masses --      6.6691                 1.2222                 1.0267
 Frc consts  --      5.4253                 1.4151                 1.2045
 IR Inten    --      1.6930                 1.9808                18.9416

                     13                     14                     15
                      A                      A                      A
 Frequencies --   1469.6417              1925.9780              2205.0372
 Red. masses --      1.0563                11.9079                11.8112
 Frc consts  --      1.3442                26.0248                33.8358
 IR Inten    --     16.2905               235.3217                 7.0002

                     16                     17                     18
                      A                      A                      A
 Frequencies --   3009.9929              3063.5943              3074.5741
 Red. masses --      1.0349                 1.0960                 1.0960
 Frc consts  --      5.5246                 6.0605                 6.1044
 IR Inten    --      0.8373                 8.3788                 0.1946

 - Thermochemistry -
 -------------------
 Temperature   298.150 Kelvin.  Pressure   1.00000 Atm.
 Atom     1 has atomic number  6 and mass  12.00000

 Molecular mass:    63.02348 amu.
 Principal axes and moments of inertia in atomic units:
                           1         2         3
     Eigenvalues --    11.25919 838.21704 838.35565
           X            1.00000  -0.00001   0.00056
           Y            0.00001   1.00000  -0.00061
           Z           -0.00056   0.00061   1.00000
 This molecule is an asymmetric top.
 Rotational symmetry number  1.
 Rotational temperatures (Kelvin)      7.69272     0.10333     0.10331
 Rotational constants (GHZ):         160.29049     2.15307     2.15272
 Zero-point vibrational energy     135533.8 (Joules/Mol)
                                   32.39337 (Kcal/Mol)
 Warning -- explicit consideration of   7 degrees of freedom as
           vibrations may cause significant error
 Vibrational temperatures:    101.94   191.98   318.17   370.62   677.19
          (Kelvin)            723.19   814.17   989.32  1457.34  1690.61
                             2016.94  2030.20  2114.48  2771.05  3172.55
                             4330.70  4407.82  4423.62

 Zero-point correction=                           0.051622 (Hartree/Particle)
 Thermal correction to Energy=                    0.057765
 Thermal correction to Enthalpy=                  0.058709
 Thermal correction to Gibbs Free Energy=         0.022426
 Sum of electronic and zero-point Energies=           -192.119488
 Sum of electronic and thermal Energies=              -192.113345
 Sum of electronic and thermal Enthalpies=            -192.112401
 Sum of electronic and thermal Free Energies=         -192.148684

                     E (Thermal)             CV                S
                      KCal/Mol        Cal/Mol-Kelvin    Cal/Mol-Kelvin
 Total                   36.248             18.823             76.364
 Electronic               0.000              0.000              1.377
 Translational            0.889              2.981             38.342
 Rotational               0.889              2.981             23.585
 Vibrational             34.470             12.861             13.059
 Vibration     1          0.598              1.968              4.129
 Vibration     2          0.613              1.920              2.896
 Vibration     3          0.648              1.809              1.950
 Vibration     4          0.667              1.750              1.678
 Vibration     5          0.828              1.315              0.736
 Vibration     6          0.858              1.244              0.652
 Vibration     7          0.922              1.105              0.512

 Normal termination of Gaussian 09 at Sun Jun 19 07:16:17 2016.
