 Gaussian 09, Revision E.01,
 Gaussian 09:  EM64L-G09RevE.01 30-Nov-2015

 ---------------------------------------------
 #p b3lyp/6-311++G(3df,2p) freq symmetry=Loose
 ---------------------------------------------

 ---------
 b3lyp opt
 ---------
 Symbolic Z-matrix:
 Charge =  2 Multiplicity = 4

                         Standard orientation:
 ---------------------------------------------------------------------
 Center     Atomic      Atomic             Coordinates (Angstroms)
 Number     Number       Type             X           Y           Z
 ---------------------------------------------------------------------
      1          6           0       -1.343678    0.314005    0.000000
      2          1           0       -2.205561    1.081189    0.000000
      3          6           0        1.123871   -0.042834   -0.000000
      4          6           0       -2.208773   -0.630966    0.000000
      5          6           0        2.232558   -0.658736   -0.000000
      6          1           0        3.179783   -1.191081   -0.000000
      7          6           0       -0.000000    0.734096    0.000000
      8          1           0        0.201911    1.816504    0.000000
 ---------------------------------------------------------------------

 SCF Done:  E(UB3LYP) =  -191.186016403     A.U. after   17 cycles

 The electronic state is 4-A".
 Alpha  occ. eigenvalues --  -10.80443 -10.72417 -10.72274 -10.70070 -10.69034
 Alpha  occ. eigenvalues --   -1.32815  -1.28658  -1.20706  -1.05290  -0.97939
 Alpha  occ. eigenvalues --   -0.95847  -0.91255  -0.86395  -0.84722  -0.79478
 Alpha  occ. eigenvalues --   -0.79367  -0.68425
 Alpha virt. eigenvalues --   -0.57514  -0.47510  -0.46472  -0.35355  -0.33801
 Alpha virt. eigenvalues --   -0.30813  -0.28950  -0.26790  -0.24349  -0.24343
 Alpha virt. eigenvalues --   -0.22872  -0.21479  -0.20455  -0.19889  -0.19577

  Beta  occ. eigenvalues --  -10.77640 -10.71952 -10.70833 -10.70055 -10.68120
  Beta  occ. eigenvalues --   -1.30549  -1.24867  -1.16775  -1.03223  -0.96375
  Beta  occ. eigenvalues --   -0.94412  -0.87770  -0.81511  -0.75720
  Beta virt. eigenvalues --   -0.66253  -0.64683  -0.56314  -0.53178  -0.42518
  Beta virt. eigenvalues --   -0.41572  -0.33190  -0.31712  -0.29829  -0.27636
  Beta virt. eigenvalues --   -0.25913  -0.24052  -0.23752  -0.22088  -0.20731

 Mulliken charges and spin densities:
               1          2
     1  C    0.302517  -0.218397
     2  H    0.272057  -0.008690
     3  C    0.169120   0.409452
     4  C    0.246258   1.349608
     5  C    0.535242   0.851014
     6  H    0.441879  -0.025475
     7  C   -0.227194   0.621408
     8  H    0.260120   0.021079
 Sum of Mulliken charges =   2.00000   3.00000

 Dipole moment (field-independent basis, Debye):
    X=             -0.1961    Y=             -0.6285    Z=             -0.0000  Tot=              0.6584
 Quadrupole moment (field-independent basis, Debye-Ang):
   XX=             21.0960   YY=            -13.1024   ZZ=            -26.5160
   XY=             -6.2225   XZ=             -0.0000   YZ=              0.0000

  Exact polarizability:  80.893  -6.399  40.966  -0.000   0.000  27.196
 Approx polarizability: 130.142  -7.661  74.241  -0.000   0.000  35.460

                      1                      2                      3
                     A'                     A"                     A'
 Frequencies --    139.1771               234.2606               245.9026
 Red. masses --      6.8108                 1.9601                 4.0061
 Frc consts  --      0.0777                 0.0634                 0.1427
 IR Inten    --      9.9055                18.3074                 1.3641

                      4                      5                      6
                     A"                     A"                     A'
 Frequencies --    372.9703               491.4826               520.4202
 Red. masses --      3.2777                 1.8604                 3.9280
 Frc consts  --      0.2686                 0.2648                 0.6268
 IR Inten    --      9.9673                33.2125                13.1098

                      7                      8                      9
                     A"                     A"                     A'
 Frequencies --    556.3312               682.2152               730.9425
 Red. masses --      1.2175                 1.5792                 1.4279
 Frc consts  --      0.2220                 0.4330                 0.4495
 IR Inten    --     46.2822                17.2882                 8.6896

                     10                     11                     12
                     A'                     A'                     A'
 Frequencies --    850.8010               939.7984              1101.9139
 Red. masses --      2.7136                 1.7600                 1.5913
 Frc consts  --      1.1573                 0.9158                 1.1384
 IR Inten    --      2.2187                11.8353                 3.4479

                     13                     14                     15
                     A'                     A'                     A'
 Frequencies --   1349.7443              1634.0620              1835.5344
 Red. masses --      2.2950                 8.3219                 7.0287
 Frc consts  --      2.4634                13.0921                13.9524
 IR Inten    --     18.1278                10.5959                38.9255

                     16                     17                     18
                     A'                     A'                     A'
 Frequencies --   2599.8794              2981.6747              3215.0289
 Red. masses --      1.0745                 1.0804                 1.1375
 Frc consts  --      4.2791                 5.6590                 6.9274
 IR Inten    --    279.0407               245.2058               419.0577

 - Thermochemistry -
 -------------------
 Temperature   298.150 Kelvin.  Pressure   1.00000 Atm.
 Atom     1 has atomic number  6 and mass  12.00000

 Molecular mass:    63.02348 amu.
 Principal axes and moments of inertia in atomic units:
                           1         2         3
     Eigenvalues --    80.33560 611.86284 692.19844
           X            0.99647   0.08392   0.00000
           Y           -0.08392   0.99647   0.00000
           Z            0.00000  -0.00000   1.00000
 This molecule is an asymmetric top.
 Rotational symmetry number  1.
 Rotational temperatures (Kelvin)      1.07815     0.14156     0.12513
 Rotational constants (GHZ):          22.46502     2.94958     2.60726
 Zero-point vibrational energy     122510.4 (Joules/Mol)
                                   29.28069 (Kcal/Mol)
 Warning -- explicit consideration of   7 degrees of freedom as
           vibrations may cause significant error
 Vibrational temperatures:    200.24   337.05   353.80   536.62   707.13
          (Kelvin)            748.77   800.44   981.55  1051.66  1224.11
                             1352.16  1585.41  1941.98  2351.05  2640.92
                             3740.64  4289.96  4625.70

 Zero-point correction=                           0.046662 (Hartree/Particle)
 Thermal correction to Energy=                    0.052490
 Thermal correction to Enthalpy=                  0.053434
 Thermal correction to Gibbs Free Energy=         0.017124
 Sum of electronic and zero-point Energies=           -191.139355
 Sum of electronic and thermal Energies=              -191.133526
 Sum of electronic and thermal Enthalpies=            -191.132582
 Sum of electronic and thermal Free Energies=         -191.168892

                     E (Thermal)             CV                S
                      KCal/Mol        Cal/Mol-Kelvin    Cal/Mol-Kelvin
 Total                   32.938             19.688             76.422
 Electronic               0.000              0.000              2.755
 Translational            0.889              2.981             38.342
 Rotational               0.889              2.981             25.035
 Vibrational             31.161             13.727             10.290
 Vibration     1          0.615              1.914              2.815
 Vibration     2          0.654              1.788              1.846
 Vibration     3          0.660              1.770              1.760
 Vibration     4          0.744              1.528              1.068
 Vibration     5          0.847              1.269              0.680
 Vibration     6          0.875              1.205              0.609
 Vibration     7          0.912              1.126              0.531

 Optimization completed.
    -- Stationary point found.
 Normal termination of Gaussian 09 at Tue Jul 19 14:30:51 2016.
