 Gaussian 09, Revision E.01,
 Gaussian 09:  EM64L-G09RevE.01 30-Nov-2015

 ---------------------------------------------
 #p b3lyp/6-311++G(3df,2p) freq symmetry=Loose
 ---------------------------------------------

 ---------
 b3lyp opt
 ---------
 Symbolic Z-matrix:
 Charge =  0 Multiplicity = 2

                         Standard orientation:
 ---------------------------------------------------------------------
 Center     Atomic      Atomic             Coordinates (Angstroms)
 Number     Number       Type             X           Y           Z
 ---------------------------------------------------------------------
      1          6           0       -2.262450   -0.349206   -0.000000
      2          1           0       -3.170795   -0.929493   -0.000000
      3          6           0       -0.959193   -0.552232   -0.000000
      4          1           0       -0.560013   -1.567400   -0.000000
      5          6           0        0.000000    0.527708   -0.000000
      6          1           0       -0.410028    1.535215   -0.000000
      7          6           0        1.324925    0.348820    0.000000
      8          6           0        2.586857    0.185190    0.000000
 ---------------------------------------------------------------------

 SCF Done:  E(UB3LYP) =  -192.126319254     A.U. after   19 cycles

 The electronic state is 2-A'.
 Alpha  occ. eigenvalues --  -10.26640 -10.26088 -10.23591 -10.19874 -10.17513
 Alpha  occ. eigenvalues --   -0.87093  -0.79229  -0.70779  -0.61590  -0.56521
 Alpha  occ. eigenvalues --   -0.50256  -0.46937  -0.39259  -0.30977  -0.30013
 Alpha  occ. eigenvalues --   -0.27860  -0.27426
 Alpha virt. eigenvalues --   -0.15294  -0.02793  -0.01590  -0.00141   0.01131
 Alpha virt. eigenvalues --    0.02924   0.04286   0.05704   0.06286   0.06469
 Alpha virt. eigenvalues --    0.06997   0.08694   0.08947   0.09637   0.10081

  Beta  occ. eigenvalues --  -10.26477 -10.24462 -10.23728 -10.19933 -10.17572
  Beta  occ. eigenvalues --   -0.86337  -0.78188  -0.70196  -0.59940  -0.55829
  Beta  occ. eigenvalues --   -0.49267  -0.45831  -0.38984  -0.30439  -0.28002
  Beta  occ. eigenvalues --   -0.27565
  Beta virt. eigenvalues --   -0.14666  -0.13691  -0.02238  -0.01357   0.00076
  Beta virt. eigenvalues --    0.01225   0.02932   0.04424   0.05884   0.06224
  Beta virt. eigenvalues --    0.06914   0.07290   0.08757   0.09081   0.10007

 Mulliken charges and spin densities:
               1          2
     1  C   -0.289886   1.054510
     2  H    0.239171   0.017659
     3  C   -0.035751  -0.126788
     4  H    0.172112   0.075106
     5  C   -0.367910   0.075588
     6  H    0.164387  -0.003873
     7  C    0.726310  -0.037238
     8  C   -0.608432  -0.054964
 Sum of Mulliken charges =  -0.00000   1.00000

 Dipole moment (field-independent basis, Debye):
    X=             -5.9592    Y=             -0.6124    Z=             -0.0000  Tot=              5.9906
 Quadrupole moment (field-independent basis, Debye-Ang):
   XX=            -39.2233   YY=            -27.5618   ZZ=            -30.6951
   XY=              1.7307   XZ=             -0.0000   YZ=              0.0000

  Exact polarizability: 124.460   6.709  48.179   0.000  -0.000  39.886
 Approx polarizability: 236.773   4.906  67.582   0.000   0.000  58.407

                      1                      2                      3
                     A"                     A'                     A"
 Frequencies --    126.1585               158.9142               270.4196
 Red. masses --      4.2268                 5.9450                 4.8823
 Frc consts  --      0.0396                 0.0885                 0.2104
 IR Inten    --      6.6691                 6.4982                 4.2326

                      4                      5                      6
                     A'                     A'                     A"
 Frequencies --    373.6442               543.6886               670.9684
 Red. masses --      3.3484                 6.8395                 1.1476
 Frc consts  --      0.2754                 1.1912                 0.3044
 IR Inten    --      9.6111                 3.9806                63.3226

                      7                      8                      9
                     A'                     A"                     A"
 Frequencies --    784.9487               883.5604               940.2502
 Red. masses --      1.3599                 1.2847                 1.8296
 Frc consts  --      0.4937                 0.5909                 0.9530
 IR Inten    --     18.9005                 2.3512                 0.1426

                     10                     11                     12
                     A'                     A'                     A'
 Frequencies --   1098.1211              1189.5222              1240.1473
 Red. masses --      4.5319                 1.9921                 1.2032
 Frc consts  --      3.2198                 1.6608                 1.0903
 IR Inten    --     12.2334                33.5047                 0.8940

                     13                     14                     15
                     A'                     A'                     A'
 Frequencies --   1401.1502              1602.7122              2033.1596
 Red. masses --      2.1468                 5.8786                11.5847
 Frc consts  --      2.4832                 8.8968                28.2147
 IR Inten    --      2.2599                98.3655               748.4246

                     16                     17                     18
                     A'                     A'                     A'
 Frequencies --   3067.5058              3112.9103              3247.0308
 Red. masses --      1.0837                 1.0881                 1.1031
 Frc consts  --      6.0080                 6.2125                 6.8526
 IR Inten    --      0.7714                 2.0864                 5.7515

 - Thermochemistry -
 -------------------
 Temperature   298.150 Kelvin.  Pressure   1.00000 Atm.
 Atom     1 has atomic number  6 and mass  12.00000

 Molecular mass:    63.02348 amu.
 Principal axes and moments of inertia in atomic units:
                           1         2         3
     Eigenvalues --    38.40142 676.61832 715.01975
           X            0.98509  -0.17205   0.00000
           Y            0.17205   0.98509   0.00000
           Z           -0.00000   0.00000   1.00000
 This molecule is an asymmetric top.
 Rotational symmetry number  1.
 Rotational temperatures (Kelvin)      2.25548     0.12801     0.12113
 Rotational constants (GHZ):          46.99673     2.66730     2.52404
 Zero-point vibrational energy     136044.2 (Joules/Mol)
                                   32.51534 (Kcal/Mol)
 Warning -- explicit consideration of   5 degrees of freedom as
           vibrations may cause significant error
 Vibrational temperatures:    181.51   228.64   389.07   537.59   782.25
          (Kelvin)            965.37  1129.36  1271.24  1352.81  1579.95
                             1711.46  1784.29  2015.94  2305.94  2925.26
                             4413.45  4478.78  4671.75

 Zero-point correction=                           0.051816 (Hartree/Particle)
 Thermal correction to Energy=                    0.057330
 Thermal correction to Enthalpy=                  0.058275
 Thermal correction to Gibbs Free Energy=         0.023147
 Sum of electronic and zero-point Energies=           -192.074503
 Sum of electronic and thermal Energies=              -192.068989
 Sum of electronic and thermal Enthalpies=            -192.068045
 Sum of electronic and thermal Free Energies=         -192.103173

                     E (Thermal)             CV                S
                      KCal/Mol        Cal/Mol-Kelvin    Cal/Mol-Kelvin
 Total                   35.975             17.562             73.933
 Electronic               0.000              0.000              1.377
 Translational            0.889              2.981             38.342
 Rotational               0.889              2.981             24.433
 Vibrational             34.198             11.601              9.780
 Vibration     1          0.611              1.927              3.004
 Vibration     2          0.621              1.893              2.563
 Vibration     3          0.674              1.728              1.594
 Vibration     4          0.745              1.526              1.065
 Vibration     5          0.899              1.154              0.557

 Optimization completed.
    -- Stationary point found.
 Normal termination of Gaussian 09 at Sun Jun 19 07:57:47 2016.
