 Gaussian 09, Revision E.01,
 Gaussian 09:  EM64L-G09RevE.01 30-Nov-2015

 ---------------------------------------------
 #p b3lyp/6-311++G(3df,2p) freq symmetry=Loose
 ---------------------------------------------

 ---------
 b3lyp opt
 ---------
 Symbolic Z-matrix:
 Charge =  2 Multiplicity = 4

                         Standard orientation:
 ---------------------------------------------------------------------
 Center     Atomic      Atomic             Coordinates (Angstroms)
 Number     Number       Type             X           Y           Z
 ---------------------------------------------------------------------
      1          6           0        0.000000   -0.000000   -0.985736
      2          6           0       -0.000000    0.000000    0.292830
      3          6           0       -0.000000    0.000000    1.577328
      4          6           0       -0.000000    0.000000    2.850170
      5          6           0        0.000000   -0.000000   -2.357228
      6          1           0       -0.000000    1.044133   -2.754729
      7          1           0        0.904246   -0.522067   -2.754729
      8          1           0       -0.904246   -0.522067   -2.754729
 ---------------------------------------------------------------------

 SCF Done:  E(UB3LYP) =  -191.245610456     A.U. after   17 cycles

 The electronic state is 4-A1.
 Alpha  occ. eigenvalues --  -10.80761 -10.77448 -10.73495 -10.72792 -10.63072
 Alpha  occ. eigenvalues --   -1.33783  -1.29381  -1.21406  -1.13495  -0.93829
 Alpha  occ. eigenvalues --   -0.89941  -0.89941  -0.89486  -0.84846  -0.84846
 Alpha  occ. eigenvalues --   -0.76016  -0.76016
 Alpha virt. eigenvalues --   -0.54814  -0.54814  -0.34955  -0.34955  -0.33017
 Alpha virt. eigenvalues --   -0.28692  -0.26880  -0.25319  -0.25318  -0.23156
 Alpha virt. eigenvalues --   -0.23156  -0.21758  -0.20551  -0.20550  -0.20245

  Beta  occ. eigenvalues --  -10.76844 -10.76566 -10.73346 -10.72236 -10.63001
  Beta  occ. eigenvalues --   -1.31099  -1.25602  -1.18726  -1.11389  -0.92681
  Beta  occ. eigenvalues --   -0.87216  -0.87216  -0.81439  -0.81439
  Beta virt. eigenvalues --   -0.64861  -0.64861  -0.63534  -0.48400  -0.48400
  Beta virt. eigenvalues --   -0.32688  -0.30843  -0.30843  -0.28236  -0.25028
  Beta virt. eigenvalues --   -0.24840  -0.24836  -0.22590  -0.22590  -0.20638

 Mulliken charges and spin densities:
               1          2
     1  C    0.539693   0.155695
     2  C   -0.381233   0.543915
     3  C    0.837031   0.295054
     4  C    0.401690   1.772882
     5  C   -0.236030   0.070261
     6  H    0.279614   0.054063
     7  H    0.279618   0.054065
     8  H    0.279618   0.054065
 Sum of Mulliken charges =   2.00000   3.00000

 Dipole moment (field-independent basis, Debye):
    X=             -0.0000    Y=              0.0000    Z=              0.1856  Tot=              0.1856
 Quadrupole moment (field-independent basis, Debye-Ang):
   XX=            -22.3344   YY=            -22.3344   ZZ=             30.8268
   XY=             -0.0000   XZ=             -0.0000   YZ=             -0.0000

  Exact polarizability:  27.258  -0.000  27.258   0.000  -0.000 126.679
 Approx polarizability:  38.539   0.000  38.539   0.000  -0.000 271.110

                      1                      2                      3
                      E                      E                      E
 Frequencies --    146.4188               146.6068               363.2352
 Red. masses --      5.0108                 5.0190                 3.5770
 Frc consts  --      0.0633                 0.0636                 0.2781
 IR Inten    --      9.5541                 9.5544                 0.2566

                      4                      5                      6
                      E                      E                      E
 Frequencies --    363.4802               537.1939               537.2501
 Red. masses --      3.5778                 6.4155                 6.4108
 Frc consts  --      0.2785                 1.0908                 1.0902
 IR Inten    --      0.2594                 2.1322                 2.1357

                      7                      8                      9
                     A1                      E                      E
 Frequencies --    716.2911               852.0399               852.1359
 Red. masses --      5.1335                 1.7762                 1.7755
 Frc consts  --      1.5518                 0.7597                 0.7596
 IR Inten    --      8.0588                37.5259                37.5670

                     10                     11                     12
                      E                      E                     A1
 Frequencies --   1193.6465              1193.7705              1244.2590
 Red. masses --      1.0391                 1.0390                 1.4197
 Frc consts  --      0.8723                 0.8724                 1.2950
 IR Inten    --     37.6361                37.5567                89.1426

                     13                     14                     15
                     A1                     A1                     A1
 Frequencies --   1332.2486              1807.8965              2184.2516
 Red. masses --      4.1863                11.8871                11.9936
 Frc consts  --      4.3778                22.8914                33.7137
 IR Inten    --    106.8950               739.8161               174.6061

                     16                     17                     18
                     A1                      E                      E
 Frequencies --   2797.1417              2829.1485              2829.1580
 Red. masses --      1.0324                 1.0907                 1.0906
 Frc consts  --      4.7589                 5.1434                 5.1434
 IR Inten    --   1115.0864               173.3902               173.3993

 - Thermochemistry -
 -------------------
 Temperature   298.150 Kelvin.  Pressure   1.00000 Atm.
 Atom     1 has atomic number  6 and mass  12.00000

 Molecular mass:    63.02348 amu.
 Principal axes and moments of inertia in atomic units:
                           1         2         3
     Eigenvalues --    11.77108 822.16503 822.16503
           X            0.00000   0.44721   0.89443
           Y            0.00000   0.89443  -0.44721
           Z            1.00000  -0.00000   0.00000
 This molecule is a prolate symmetric top.
 Rotational symmetry number  3.
 Rotational temperatures (Kelvin)      7.35819     0.10535     0.10535
 Rotational constants (GHZ):         153.31998     2.19511     2.19511
 Zero-point vibrational energy     131147.6 (Joules/Mol)
                                   31.34504 (Kcal/Mol)
 Warning -- explicit consideration of   6 degrees of freedom as
           vibrations may cause significant error
 Vibrational temperatures:    210.66   210.93   522.61   522.97   772.90
          (Kelvin)            772.98  1030.58  1225.89  1226.03  1717.39
                             1717.57  1790.21  1916.81  2601.16  3142.65
                             4024.46  4070.51  4070.52

 Zero-point correction=                           0.049951 (Hartree/Particle)
 Thermal correction to Energy=                    0.055468
 Thermal correction to Enthalpy=                  0.056412
 Thermal correction to Gibbs Free Energy=         0.022170
 Sum of electronic and zero-point Energies=           -191.195659
 Sum of electronic and thermal Energies=              -191.190143
 Sum of electronic and thermal Enthalpies=            -191.189198
 Sum of electronic and thermal Free Energies=         -191.223441

                     E (Thermal)             CV                S
                      KCal/Mol        Cal/Mol-Kelvin    Cal/Mol-Kelvin
 Total                   34.807             17.902             72.069
 Electronic               0.000              0.000              2.755
 Translational            0.889              2.981             38.342
 Rotational               0.889              2.981             21.408
 Vibrational             33.029             11.940              9.564
 Vibration     1          0.617              1.907              2.718
 Vibration     2          0.617              1.906              2.716
 Vibration     3          0.737              1.548              1.108
 Vibration     4          0.737              1.547              1.107
 Vibration     5          0.892              1.168              0.571
 Vibration     6          0.892              1.168              0.571

 Optimization completed.
    -- Stationary point found.
 Normal termination of Gaussian 09 at Tue Jul 19 13:25:47 2016.
