 Gaussian 09, Revision E.01,
 Gaussian 09:  EM64L-G09RevE.01 30-Nov-2015

 ---------------------------------------------
 #p b3lyp/6-311++G(3df,2p) freq symmetry=Loose
 ---------------------------------------------

 ---------
 b3lyp opt
 ---------
 Symbolic Z-matrix:
 Charge =  3 Multiplicity = 3

                         Standard orientation:
 ---------------------------------------------------------------------
 Center     Atomic      Atomic             Coordinates (Angstroms)
 Number     Number       Type             X           Y           Z
 ---------------------------------------------------------------------
      1          6           0       -1.000840   -0.005997    0.000251
      2          6           0        0.307182   -0.010206    0.000016
      3          6           0        1.592156   -0.008744    0.000011
      4          6           0        2.886180    0.000236   -0.000018
      5          6           0       -2.329753    0.103968   -0.000159
      6          1           0       -2.839817    1.096396   -0.001177
      7          1           0       -2.942971   -0.787564   -0.577928
      8          1           0       -2.946762   -0.784369    0.578498
 ---------------------------------------------------------------------

 SCF Done:  E(UB3LYP) =  -190.411337109     A.U. after   20 cycles

 The electronic state is 3-A.
 Alpha  occ. eigenvalues --  -11.06846 -10.99540 -10.98007 -10.96429 -10.92620
 Alpha  occ. eigenvalues --   -1.55457  -1.51863  -1.44813  -1.36220  -1.23763
 Alpha  occ. eigenvalues --   -1.14592  -1.10928  -1.08159  -1.07623  -1.02214
 Alpha  occ. eigenvalues --   -0.98658
 Alpha virt. eigenvalues --   -0.87796  -0.78227  -0.74352  -0.58701  -0.57006
 Alpha virt. eigenvalues --   -0.54766  -0.48920  -0.47649  -0.47610  -0.42655
 Alpha virt. eigenvalues --   -0.41720  -0.40615  -0.39579  -0.38145  -0.36574

  Beta  occ. eigenvalues --  -11.03097 -10.98684 -10.98206 -10.96008 -10.93007
  Beta  occ. eigenvalues --   -1.54159  -1.49624  -1.42820  -1.34779  -1.23796
  Beta  occ. eigenvalues --   -1.13596  -1.07987  -1.04192  -1.01215
  Beta virt. eigenvalues --   -0.86876  -0.85984  -0.84652  -0.71627  -0.71154
  Beta virt. eigenvalues --   -0.56065  -0.55424  -0.53061  -0.48033  -0.48003
  Beta virt. eigenvalues --   -0.47240  -0.42176  -0.41487  -0.40407  -0.39579

 Mulliken charges and spin densities:
               1          2
     1  C    0.610590   0.158033
     2  C   -0.327304   0.215571
     3  C    1.043294   0.291696
     4  C    0.644305   1.582588
     5  C   -0.012457  -0.226288
     6  H    0.375330   0.030731
     7  H    0.333000  -0.026142
     8  H    0.333241  -0.026188
 Sum of Mulliken charges =   3.00000   2.00000

 Dipole moment (field-independent basis, Debye):
    X=             -2.9134    Y=             -1.3036    Z=              0.0002  Tot=              3.1917
 Quadrupole moment (field-independent basis, Debye-Ang):
   XX=             66.9095   YY=            -17.9389   ZZ=            -20.9477
   XY=              4.2383   XZ=             -0.0055   YZ=              0.0011

  Exact polarizability: 130.620   2.243  25.100  -0.001   0.002  23.238
 Approx polarizability: 335.227   5.960  35.312  -0.002   0.006  32.880

                      1                      2                      3
                      A                      A                      A
 Frequencies --    155.8690               158.6054               329.9120
 Red. masses --      4.8011                 4.4330                 3.3918
 Frc consts  --      0.0687                 0.0657                 0.2175
 IR Inten    --     36.9583                36.2403                 4.1988

                      4                      5                      6
                      A                      A                      A
 Frequencies --    351.7283               488.0342               549.1668
 Red. masses --      3.4838                 1.5610                 6.2291
 Frc consts  --      0.2539                 0.2191                 1.1068
 IR Inten    --     11.5284                 9.0228                10.0877

                      7                      8                      9
                      A                      A                      A
 Frequencies --    608.8200               668.0216               717.0447
 Red. masses --      1.2766                 4.6062                 3.4787
 Frc consts  --      0.2788                 1.2111                 1.0538
 IR Inten    --    781.0916                 2.7499                52.4176

                     10                     11                     12
                      A                      A                      A
 Frequencies --    819.3099               854.6122              1259.2482
 Red. masses --      1.3078                 1.7194                 1.5851
 Frc consts  --      0.5172                 0.7399                 1.4809
 IR Inten    --    120.7853               318.4283                70.7887

                     13                     14                     15
                      A                      A                      A
 Frequencies --   1377.9044              1708.8970              1909.6991
 Red. masses --      2.6843                10.1016                 1.0308
 Frc consts  --      3.0027                17.3809                 2.2149
 IR Inten    --     70.2119               122.8000               301.1266

                     16                     17                     18
                      A                      A                      A
 Frequencies --   2029.8265              2245.4169              2844.5646
 Red. masses --      9.1267                 1.1339                 1.0868
 Frc consts  --     22.1556                 3.3685                 5.1811
 IR Inten    --    330.8720              1243.1238               596.7360

 - Thermochemistry -
 -------------------
 Temperature   298.150 Kelvin.  Pressure   1.00000 Atm.
 Atom     1 has atomic number  6 and mass  12.00000

 Molecular mass:    63.02348 amu.
 Principal axes and moments of inertia in atomic units:
                           1         2         3
     Eigenvalues --    11.60115 834.79916 841.58726
           X            0.99998   0.00680  -0.00000
           Y           -0.00680   0.99998   0.00006
           Z            0.00000  -0.00006   1.00000
 This molecule is an asymmetric top.
 Rotational symmetry number  1.
 Rotational temperatures (Kelvin)      7.46597     0.10375     0.10292
 Rotational constants (GHZ):         155.56578     2.16189     2.14445
 Zero-point vibrational energy     114103.9 (Joules/Mol)
                                   27.27148 (Kcal/Mol)
 Warning -- explicit consideration of   7 degrees of freedom as
           vibrations may cause significant error
 Vibrational temperatures:    224.26   228.20   474.67   506.06   702.17
          (Kelvin)            790.13   875.96   961.13  1031.67  1178.80
                             1229.59  1811.77  1982.49  2458.72  2747.63
                             2920.46  3230.65  4092.69

 Zero-point correction=                           0.043460 (Hartree/Particle)
 Thermal correction to Energy=                    0.049270
 Thermal correction to Enthalpy=                  0.050214
 Thermal correction to Gibbs Free Energy=         0.014842
 Sum of electronic and zero-point Energies=           -190.367877
 Sum of electronic and thermal Energies=              -190.362067
 Sum of electronic and thermal Enthalpies=            -190.361123
 Sum of electronic and thermal Free Energies=         -190.396495

                     E (Thermal)             CV                S
                      KCal/Mol        Cal/Mol-Kelvin    Cal/Mol-Kelvin
 Total                   30.918             19.594             74.447
 Electronic               0.000              0.000              2.183
 Translational            0.889              2.981             38.342
 Rotational               0.889              2.981             23.615
 Vibrational             29.140             13.632             10.307
 Vibration     1          0.620              1.896              2.599
 Vibration     2          0.621              1.893              2.566
 Vibration     3          0.713              1.616              1.261
 Vibration     4          0.728              1.572              1.158
 Vibration     5          0.844              1.277              0.689
 Vibration     6          0.904              1.142              0.546
 Vibration     7          0.968              1.013              0.435

 Normal termination of Gaussian 09 at Sun Jun 19 14:12:37 2016.
