 Gaussian 09, Revision E.01,
 Gaussian 09:  EM64L-G09RevE.01 30-Nov-2015

 ---------------------------------------------
 #p b3lyp/6-311++G(3df,2p) freq symmetry=Loose
 ---------------------------------------------

 ---------
 b3lyp opt
 ---------
 Symbolic Z-matrix:
 Charge =  1 Multiplicity = 1

                         Standard orientation:
 ---------------------------------------------------------------------
 Center     Atomic      Atomic             Coordinates (Angstroms)
 Number     Number       Type             X           Y           Z
 ---------------------------------------------------------------------
      1          6           0       -0.704696   -0.484171    0.607035
      2          6           0        1.224629    0.125473    0.146908
      3          1           0        2.230640    0.127202    0.536987
      4          6           0        0.131359    0.914437   -0.014479
      5          1           0       -0.743028   -0.755030    1.654504
      6          6           0       -1.166103    0.472648   -0.351467
      7          6           0        0.246157   -0.736776   -0.502168
      8          1           0        0.124315   -1.121834   -1.506459
 ---------------------------------------------------------------------

 SCF Done:  E(RB3LYP) =  -191.795113537     A.U. after   13 cycles

 The electronic state is 1-A.
 Alpha  occ. eigenvalues --  -10.52815 -10.52429 -10.52367 -10.50468 -10.48732
 Alpha  occ. eigenvalues --   -1.28735  -1.02556  -0.91619  -0.87165  -0.79439
 Alpha  occ. eigenvalues --   -0.74891  -0.70434  -0.65954  -0.63404  -0.56537
 Alpha  occ. eigenvalues --   -0.49650
 Alpha virt. eigenvalues --   -0.32256  -0.28980  -0.25017  -0.22532  -0.16406
 Alpha virt. eigenvalues --   -0.15158  -0.13373  -0.12212  -0.11161  -0.08428
 Alpha virt. eigenvalues --   -0.07624  -0.06951  -0.06639  -0.06442  -0.05127

 Mulliken charges:
               1
     1  C    0.188185
     2  C    0.006582
     3  H    0.325125
     4  C    0.187387
     5  H    0.307001
     6  C   -0.230526
     7  C   -0.091268
     8  H    0.307514
 Sum of Mulliken charges =   1.00000

 Dipole moment (field-independent basis, Debye):
    X=              2.1729    Y=             -1.6020    Z=              1.4910  Tot=              3.0840
 Quadrupole moment (field-independent basis, Debye-Ang):
   XX=            -21.0315   YY=            -23.8441   ZZ=            -21.5956
   XY=              1.3886   XZ=             -1.7362   YZ=              0.9212

  Exact polarizability:  54.871  -1.199  41.173   2.270  -0.129  36.383
 Approx polarizability: 122.259  -6.124  88.847   7.727  -0.310  59.217

                      1                      2                      3
                      A                      A                      A
 Frequencies --    299.6790               473.6893               517.2884
 Red. masses --      3.5601                 7.9427                 7.3647
 Frc consts  --      0.1884                 1.0500                 1.1611
 IR Inten    --     40.6361                 7.2508                18.5621

                      4                      5                      6
                      A                      A                      A
 Frequencies --    657.9826               733.2874               831.1883
 Red. masses --      2.8240                 1.9411                 2.8742
 Frc consts  --      0.7203                 0.6149                 1.1699
 IR Inten    --     27.6079                44.1286                11.0077

                      7                      8                      9
                      A                      A                      A
 Frequencies --    849.9507               905.3672               997.7038
 Red. masses --      1.4706                 1.2446                 1.8799
 Frc consts  --      0.6259                 0.6011                 1.1025
 IR Inten    --     22.3917                13.1262                 6.8846

                     10                     11                     12
                      A                      A                      A
 Frequencies --   1051.2711              1058.1286              1105.5368
 Red. masses --      4.0440                 1.2151                 1.4704
 Frc consts  --      2.6332                 0.8016                 1.0589
 IR Inten    --      7.3436                 2.6471                13.0530

                     13                     14                     15
                      A                      A                      A
 Frequencies --   1190.1602              1281.9416              1504.7600
 Red. masses --      1.7396                 6.2879                 7.2119
 Frc consts  --      1.4518                 6.0882                 9.6213
 IR Inten    --     18.5894                 5.3461                 9.7692

                     16                     17                     18
                      A                      A                      A
 Frequencies --   3205.3093              3218.5032              3255.8025
 Red. masses --      1.0927                 1.1079                 1.1120
 Frc consts  --      6.6147                 6.7620                 6.9450
 IR Inten    --     90.0103                29.0749               110.1338

 - Thermochemistry -
 -------------------
 Temperature   298.150 Kelvin.  Pressure   1.00000 Atm.
 Atom     1 has atomic number  6 and mass  12.00000

 Molecular mass:    63.02348 amu.
 Principal axes and moments of inertia in atomic units:
                           1         2         3
     Eigenvalues --   137.64051 218.79683 252.90903
           X            0.99956   0.02927  -0.00516
           Y           -0.02898   0.99830   0.05053
           Z            0.00663  -0.05036   0.99871
 This molecule is an asymmetric top.
 Rotational symmetry number  1.
 Rotational temperatures (Kelvin)      0.62928     0.39586     0.34247
 Rotational constants (GHZ):          13.11199     8.24848     7.13593
 Zero-point vibrational energy     138393.3 (Joules/Mol)
                                   33.07679 (Kcal/Mol)
 Warning -- explicit consideration of   3 degrees of freedom as
           vibrations may cause significant error
 Vibrational temperatures:    431.17   681.53   744.26   946.69  1055.04
          (Kelvin)           1195.89  1222.89  1302.62  1435.47  1512.54
                             1522.41  1590.62  1712.37  1844.43  2165.01
                             4611.72  4630.70  4684.37

 Zero-point correction=                           0.052711 (Hartree/Particle)
 Thermal correction to Energy=                    0.056994
 Thermal correction to Enthalpy=                  0.057939
 Thermal correction to Gibbs Free Energy=         0.026504
 Sum of electronic and zero-point Energies=           -191.742402
 Sum of electronic and thermal Energies=              -191.738119
 Sum of electronic and thermal Enthalpies=            -191.737175
 Sum of electronic and thermal Free Energies=         -191.768610

                     E (Thermal)             CV                S
                      KCal/Mol        Cal/Mol-Kelvin    Cal/Mol-Kelvin
 Total                   35.765             15.240             66.160
 Electronic               0.000              0.000              0.000
 Translational            0.889              2.981             38.342
 Rotational               0.889              2.981             23.547
 Vibrational             33.987              9.278              4.271
 Vibration     1          0.692              1.674              1.419
 Vibration     2          0.830              1.308              0.727
 Vibration     3          0.872              1.212              0.616

 Optimization completed.
    -- Stationary point found.
 Normal termination of Gaussian 09 at Sun Jun 19 09:56:14 2016.
