 Gaussian 09, Revision E.01,
 Gaussian 09:  EM64L-G09RevE.01 30-Nov-2015

 ---------------------------------------------
 #p b3lyp/6-311++G(3df,2p) freq symmetry=Loose
 ---------------------------------------------

 ---------
 b3lyp opt
 ---------
 Symbolic Z-matrix:
 Charge =  2 Multiplicity = 4

                         Standard orientation:
 ---------------------------------------------------------------------
 Center     Atomic      Atomic             Coordinates (Angstroms)
 Number     Number       Type             X           Y           Z
 ---------------------------------------------------------------------
      1          6           0       -2.317054   -0.241199   -0.000000
      2          1           0       -3.279303   -0.763371   -0.000000
      3          6           0       -0.941163   -0.540326   -0.000000
      4          1           0       -0.619346   -1.587160   -0.000000
      5          6           0        0.000000    0.519813   -0.000000
      6          1           0       -0.327933    1.562116   -0.000000
      7          6           0        1.363004    0.266491    0.000000
      8          6           0        2.599643    0.126624    0.000000
 ---------------------------------------------------------------------

 SCF Done:  E(UB3LYP) =  -191.179896367     A.U. after   18 cycles

 The electronic state is 4-A".
 Alpha  occ. eigenvalues --  -10.77566 -10.74833 -10.72116 -10.71168 -10.70811
 Alpha  occ. eigenvalues --   -1.32359  -1.27478  -1.18739  -1.05356  -0.99672
 Alpha  occ. eigenvalues --   -0.93450  -0.89868  -0.86513  -0.84678  -0.79023
 Alpha  occ. eigenvalues --   -0.77584  -0.73251
 Alpha virt. eigenvalues --   -0.61872  -0.48735  -0.44921  -0.37769  -0.31776
 Alpha virt. eigenvalues --   -0.30300  -0.27897  -0.27206  -0.25278  -0.25080
 Alpha virt. eigenvalues --   -0.21300  -0.21211  -0.20412  -0.19884  -0.19763

  Beta  occ. eigenvalues --  -10.74591 -10.72745 -10.72402 -10.70666 -10.70275
  Beta  occ. eigenvalues --   -1.30996  -1.23185  -1.15662  -1.02781  -0.98765
  Beta  occ. eigenvalues --   -0.91952  -0.88426  -0.81448  -0.75212
  Beta virt. eigenvalues --   -0.67631  -0.62704  -0.57414  -0.54528  -0.43331
  Beta virt. eigenvalues --   -0.41750  -0.33661  -0.31182  -0.29966  -0.26853
  Beta virt. eigenvalues --   -0.26792  -0.24787  -0.24712  -0.20847  -0.20290

 Mulliken charges and spin densities:
               1          2
     1  C    0.092059   1.166133
     2  H    0.362752   0.009073
     3  C    0.144245   0.399364
     4  H    0.268803   0.039552
     5  C   -0.151061  -0.249795
     6  H    0.256991  -0.004817
     7  C    0.645796   0.200897
     8  C    0.380415   1.439593
 Sum of Mulliken charges =   2.00000   3.00000

 Dipole moment (field-independent basis, Debye):
    X=             -1.3389    Y=             -0.7824    Z=             -0.0000  Tot=              1.5508
 Quadrupole moment (field-independent basis, Debye-Ang):
   XX=             20.7873   YY=            -18.4839   ZZ=            -23.5871
   XY=              6.2057   XZ=              0.0000   YZ=              0.0000

  Exact polarizability: 103.527   9.532  37.001  -0.000   0.000  25.213
 Approx polarizability: 182.630  12.975  50.138   0.000   0.000  36.715

                      1                      2                      3
                     A"                     A'                     A'
 Frequencies --    125.8939               146.5868               351.1707
 Red. masses --      4.0823                 6.4397                 3.5582
 Frc consts  --      0.0381                 0.0815                 0.2585
 IR Inten    --      3.0446                 1.5170                 1.8386

                      4                      5                      6
                     A"                     A'                     A"
 Frequencies --    359.1151               499.2867               593.4117
 Red. masses --      3.7710                 6.6585                 1.3570
 Frc consts  --      0.2865                 0.9780                 0.2815
 IR Inten    --      0.0599                 2.0900                38.8025

                      7                      8                      9
                     A'                     A"                     A"
 Frequencies --    772.0713               882.9588               960.4945
 Red. masses --      1.3140                 1.2678                 1.6855
 Frc consts  --      0.4615                 0.5824                 0.9162
 IR Inten    --     40.8407                23.1093                 1.2583

                     10                     11                     12
                     A'                     A'                     A'
 Frequencies --   1011.6392              1139.0139              1228.4949
 Red. masses --      4.6278                 5.7420                 1.6559
 Frc consts  --      2.7904                 4.3891                 1.4724
 IR Inten    --     90.6878                74.5320                52.2876

                     13                     14                     15
                     A'                     A'                     A'
 Frequencies --   1294.4724              1442.1561              2069.2838
 Red. masses --      1.4079                 2.0249                11.8498
 Frc consts  --      1.3900                 2.4813                29.8953
 IR Inten    --    146.6615                39.3512               113.7794

                     16                     17                     18
                     A'                     A'                     A'
 Frequencies --   3061.5031              3098.9556              3113.4606
 Red. masses --      1.0899                 1.0921                 1.1015
 Frc consts  --      6.0187                 6.1791                 6.2910
 IR Inten    --     58.8058                86.8210               191.4104

 - Thermochemistry -
 -------------------
 Temperature   298.150 Kelvin.  Pressure   1.00000 Atm.
 Atom     1 has atomic number  6 and mass  12.00000

 Molecular mass:    63.02348 amu.
 Principal axes and moments of inertia in atomic units:
                           1         2         3
     Eigenvalues --    38.65191 688.28703 726.93893
           X            0.99105  -0.13347   0.00000
           Y            0.13347   0.99105   0.00000
           Z           -0.00000   0.00000   1.00000
 This molecule is an asymmetric top.
 Rotational symmetry number  1.
 Rotational temperatures (Kelvin)      2.24087     0.12584     0.11915
 Rotational constants (GHZ):          46.69216     2.62208     2.48266
 Zero-point vibrational energy     132486.2 (Joules/Mol)
                                   31.66497 (Kcal/Mol)
 Warning -- explicit consideration of   6 degrees of freedom as
           vibrations may cause significant error
 Vibrational temperatures:    181.13   210.91   505.26   516.69   718.36
          (Kelvin)            853.79  1110.84  1270.38  1381.94  1455.52
                             1638.78  1767.53  1862.45  2074.94  2977.23
                             4404.81  4458.70  4479.57

 Zero-point correction=                           0.050461 (Hartree/Particle)
 Thermal correction to Energy=                    0.056006
 Thermal correction to Enthalpy=                  0.056950
 Thermal correction to Gibbs Free Energy=         0.021118
 Sum of electronic and zero-point Energies=           -191.129435
 Sum of electronic and thermal Energies=              -191.123890
 Sum of electronic and thermal Enthalpies=            -191.122946
 Sum of electronic and thermal Free Energies=         -191.158778

                     E (Thermal)             CV                S
                      KCal/Mol        Cal/Mol-Kelvin    Cal/Mol-Kelvin
 Total                   35.144             17.918             75.415
 Electronic               0.000              0.000              2.755
 Translational            0.889              2.981             38.342
 Rotational               0.889              2.981             24.473
 Vibrational             33.367             11.956              9.845
 Vibration     1          0.611              1.927              3.008
 Vibration     2          0.617              1.906              2.716
 Vibration     3          0.728              1.573              1.161
 Vibration     4          0.734              1.557              1.126
 Vibration     5          0.855              1.252              0.660
 Vibration     6          0.951              1.046              0.461

 Optimization completed.
    -- Stationary point found.
 Normal termination of Gaussian 09 at Sun Jun 19 13:17:26 2016.
