 Gaussian 09, Revision E.01,
 Gaussian 09:  EM64L-G09RevE.01 30-Nov-2015

 ---------------------------------------------
 #p b3lyp/6-311++G(3df,2p) freq symmetry=Loose
 ---------------------------------------------

 ---------
 b3lyp opt
 ---------
 Symbolic Z-matrix:
 Charge =  1 Multiplicity = 3

                         Standard orientation:
 ---------------------------------------------------------------------
 Center     Atomic      Atomic             Coordinates (Angstroms)
 Number     Number       Type             X           Y           Z
 ---------------------------------------------------------------------
      1          6           0       -2.260912   -0.211484   -0.000000
      2          1           0       -3.231185   -0.690568   -0.000000
      3          6           0       -0.959854   -0.536408   -0.000000
      4          1           0       -0.643192   -1.579306   -0.000000
      5          6           0        0.000000    0.489722    0.000000
      6          1           0       -0.338716    1.523024   -0.000000
      7          6           0        1.359274    0.266785    0.000000
      8          6           0        2.563675    0.115860    0.000000
 ---------------------------------------------------------------------

 SCF Done:  E(UB3LYP) =  -191.777591806     A.U. after   20 cycles

 The electronic state is 3-A'.
 Alpha  occ. eigenvalues --  -10.49652 -10.49325 -10.47812 -10.43363 -10.42823
 Alpha  occ. eigenvalues --   -1.08292  -1.01963  -0.94536  -0.81779  -0.77032
 Alpha  occ. eigenvalues --   -0.70247  -0.66898  -0.62681  -0.60151  -0.53453
 Alpha  occ. eigenvalues --   -0.53246  -0.49330
 Alpha virt. eigenvalues --   -0.38203  -0.22379  -0.20467  -0.14394  -0.13375
 Alpha virt. eigenvalues --   -0.13313  -0.11763  -0.09359  -0.09058  -0.07757
 Alpha virt. eigenvalues --   -0.06353  -0.05878  -0.05367  -0.03920  -0.03734

  Beta  occ. eigenvalues --  -10.49249 -10.47283 -10.46225 -10.43459 -10.42742
  Beta  occ. eigenvalues --   -1.07810  -1.00065  -0.92253  -0.80030  -0.76277
  Beta  occ. eigenvalues --   -0.69127  -0.65681  -0.60116  -0.51804  -0.51727
  Beta virt. eigenvalues --   -0.40685  -0.36218  -0.32219  -0.21179  -0.18227
  Beta virt. eigenvalues --   -0.14090  -0.12992  -0.11974  -0.11392  -0.09254
  Beta virt. eigenvalues --   -0.08702  -0.07562  -0.05763  -0.05023  -0.04924

 Mulliken charges and spin densities:
               1          2
     1  C   -0.104470   0.964851
     2  H    0.304765   0.018230
     3  C   -0.035750  -0.075075
     4  H    0.207529   0.062484
     5  C   -0.188223  -0.033781
     6  H    0.218516  -0.009341
     7  C    0.508076  -0.135795
     8  C    0.089559   1.208426
 Sum of Mulliken charges =   1.00000   2.00000

 Dipole moment (field-independent basis, Debye):
    X=             -1.4257    Y=             -0.3638    Z=             -0.0000  Tot=              1.4714
 Quadrupole moment (field-independent basis, Debye-Ang):
   XX=             -2.8457   YY=            -22.8530   ZZ=            -27.3801
   XY=              3.2999   XZ=              0.0000   YZ=              0.0000

  Exact polarizability: 108.843   7.764  43.988   0.000  -0.000  31.031
 Approx polarizability: 229.616  10.146  56.892   0.000   0.000  43.782

                      1                      2                      3
                     A'                     A"                     A"
 Frequencies --     83.2161               136.6239               305.4483
 Red. masses --      7.5917                 4.0201                 4.6123
 Frc consts  --      0.0310                 0.0442                 0.2535
 IR Inten    --      1.5471                 2.3071                 0.0117

                      4                      5                      6
                     A'                     A'                     A"
 Frequencies --    331.0424               500.0003               689.5701
 Red. masses --      3.3912                 5.8488                 1.2515
 Frc consts  --      0.2190                 0.8615                 0.3506
 IR Inten    --      5.8445                 0.9670                56.8383

                      7                      8                      9
                     A'                     A"                     A"
 Frequencies --    785.3323               930.3852               963.8715
 Red. masses --      1.3391                 1.4628                 1.4828
 Frc consts  --      0.4866                 0.7460                 0.8117
 IR Inten    --     27.2947                 6.8509                 5.9277

                     10                     11                     12
                     A'                     A'                     A'
 Frequencies --   1073.7588              1250.6138              1253.5514
 Red. masses --      3.7740                 1.6902                 1.2329
 Frc consts  --      2.5637                 1.5575                 1.1415
 IR Inten    --     22.3246                75.6198                21.2261

                     13                     14                     15
                     A'                     A'                     A'
 Frequencies --   1400.4977              1571.8614              2183.0703
 Red. masses --      3.2353                 4.4985                11.8754
 Frc consts  --      3.7388                 6.5486                33.3451
 IR Inten    --      8.4939               504.3997               378.3371

                     16                     17                     18
                     A'                     A'                     A'
 Frequencies --   3091.0913              3142.9119              3225.8133
 Red. masses --      1.0873                 1.0893                 1.1038
 Frc consts  --      6.1209                 6.3397                 6.7675
 IR Inten    --     11.3191                24.7547                46.1209

 - Thermochemistry -
 -------------------
 Temperature   298.150 Kelvin.  Pressure   1.00000 Atm.
 Atom     1 has atomic number  6 and mass  12.00000

 Molecular mass:    63.02348 amu.
 Principal axes and moments of inertia in atomic units:
                           1         2         3
     Eigenvalues --    36.73224 668.27001 705.00226
           X            0.99171  -0.12849   0.00000
           Y            0.12849   0.99171   0.00000
           Z           -0.00000   0.00000   1.00000
 This molecule is an asymmetric top.
 Rotational symmetry number  1.
 Rotational temperatures (Kelvin)      2.35798     0.12961     0.12286
 Rotational constants (GHZ):          49.13234     2.70062     2.55991
 Zero-point vibrational energy     137084.0 (Joules/Mol)
                                   32.76387 (Kcal/Mol)
 Warning -- explicit consideration of   5 degrees of freedom as
           vibrations may cause significant error
 Vibrational temperatures:    119.73   196.57   439.47   476.30   719.39
          (Kelvin)            992.14  1129.92  1338.62  1386.79  1544.90
                             1799.35  1803.58  2015.00  2261.56  3140.95
                             4447.39  4521.94  4641.22

 Zero-point correction=                           0.052213 (Hartree/Particle)
 Thermal correction to Energy=                    0.057856
 Thermal correction to Enthalpy=                  0.058800
 Thermal correction to Gibbs Free Energy=         0.022792
 Sum of electronic and zero-point Energies=           -191.725379
 Sum of electronic and thermal Energies=              -191.719736
 Sum of electronic and thermal Enthalpies=            -191.718792
 Sum of electronic and thermal Free Energies=         -191.754800

                     E (Thermal)             CV                S
                      KCal/Mol        Cal/Mol-Kelvin    Cal/Mol-Kelvin
 Total                   36.305             17.589             75.786
 Electronic               0.000              0.000              2.183
 Translational            0.889              2.981             38.342
 Rotational               0.889              2.981             24.363
 Vibrational             34.528             11.627             10.898
 Vibration     1          0.600              1.961              3.814
 Vibration     2          0.614              1.917              2.851
 Vibration     3          0.696              1.663              1.387
 Vibration     4          0.713              1.614              1.255
 Vibration     5          0.855              1.250              0.658

 Optimization completed.
    -- Stationary point found.
 Normal termination of Gaussian 09 at Sun Jun 19 11:04:31 2016.
