 Gaussian 09, Revision E.01,
 Gaussian 09:  EM64L-G09RevE.01 30-Nov-2015

 ---------------------------------------------
 #p b3lyp/6-311++G(3df,2p) freq symmetry=Loose
 ---------------------------------------------

 ---------
 b3lyp opt
 ---------
 Symbolic Z-matrix:
 Charge =  1 Multiplicity = 3

                         Standard orientation:
 ---------------------------------------------------------------------
 Center     Atomic      Atomic             Coordinates (Angstroms)
 Number     Number       Type             X           Y           Z
 ---------------------------------------------------------------------
      1          6           0        1.343109    0.786722   -0.112890
      2          6           0        1.535938   -0.455294   -0.355910
      3          6           0        0.330649   -0.155329    0.527635
      4          1           0        0.271214   -0.259614    1.606720
      5          6           0       -1.094894   -0.615832   -0.119806
      6          1           0       -1.260041   -1.659033   -0.344730
      7          6           0       -1.625030    0.504832   -0.134260
      8          1           0       -1.949810    1.528051   -0.090601
 ---------------------------------------------------------------------

 SCF Done:  E(UB3LYP) =  -191.713410801     A.U. after   19 cycles

 The electronic state is 3-A.
 Alpha  occ. eigenvalues --  -10.50680 -10.49499 -10.47866 -10.47696 -10.45855
 Alpha  occ. eigenvalues --   -1.15824  -1.06316  -0.86673  -0.82052  -0.75800
 Alpha  occ. eigenvalues --   -0.71450  -0.69544  -0.66502  -0.57585  -0.55059
 Alpha  occ. eigenvalues --   -0.52547  -0.49343
 Alpha virt. eigenvalues --   -0.33749  -0.25245  -0.21548  -0.14916  -0.14523
 Alpha virt. eigenvalues --   -0.13986  -0.12002  -0.09914  -0.09387  -0.08201
 Alpha virt. eigenvalues --   -0.07581  -0.06663  -0.05694  -0.05023  -0.03965

  Beta  occ. eigenvalues --  -10.50132 -10.49318 -10.46225 -10.46058 -10.45913
  Beta  occ. eigenvalues --   -1.13890  -1.05626  -0.85297  -0.81019  -0.75060
  Beta  occ. eigenvalues --   -0.69455  -0.64261  -0.63720  -0.55583  -0.50744
  Beta virt. eigenvalues --   -0.39199  -0.36878  -0.30905  -0.24540  -0.18951
  Beta virt. eigenvalues --   -0.14586  -0.14269  -0.13141  -0.11495  -0.09647
  Beta virt. eigenvalues --   -0.08768  -0.07620  -0.06770  -0.05455  -0.05121

 Mulliken charges and spin densities:
               1          2
     1  C    0.120494   0.850665
     2  C    0.035601   0.869344
     3  C   -0.173530   0.179893
     4  H    0.225952  -0.008619
     5  C   -0.005600  -0.080970
     6  H    0.289769   0.022962
     7  C    0.140407   0.167385
     8  H    0.366908  -0.000660
 Sum of Mulliken charges =   1.00000   2.00000

 Dipole moment (field-independent basis, Debye):
    X=             -2.6927    Y=              0.2178    Z=              0.5565  Tot=              2.7582
 Quadrupole moment (field-independent basis, Debye-Ang):
   XX=            -16.1112   YY=            -19.4852   ZZ=            -25.5698
   XY=             -2.1275   XZ=              1.0635   YZ=              0.2643

  Exact polarizability:  73.255  -1.840  45.927   0.797   0.983  38.364
 Approx polarizability: 130.712 -14.518  91.525  -0.606   2.414  55.527

                      1                      2                      3
                      A                      A                      A
 Frequencies --     84.8849               145.3226               288.7827
 Red. masses --      4.0013                 3.2756                 5.8820
 Frc consts  --      0.0170                 0.0408                 0.2890
 IR Inten    --      3.3027                 0.7848                 4.0519

                      4                      5                      6
                      A                      A                      A
 Frequencies --    372.4434               422.4315               675.1707
 Red. masses --      5.9703                 5.1696                 1.9778
 Frc consts  --      0.4879                 0.5435                 0.5312
 IR Inten    --     45.2576                17.7068                25.6856

                      7                      8                      9
                      A                      A                      A
 Frequencies --    685.3852               749.3660               836.0746
 Red. masses --      3.1753                 1.3969                 1.5563
 Frc consts  --      0.8788                 0.4622                 0.6410
 IR Inten    --     26.6713                52.0651                28.0399

                     10                     11                     12
                      A                      A                      A
 Frequencies --    858.4904               916.2739              1031.4163
 Red. masses --      1.3084                 2.1419                 1.3475
 Frc consts  --      0.5682                 1.0595                 0.8446
 IR Inten    --     40.9727                21.7267                10.2784

                     13                     14                     15
                      A                      A                      A
 Frequencies --   1255.9298              1763.4861              1849.8399
 Red. masses --      1.0796                11.0092                 4.5556
 Frc consts  --      1.0033                20.1721                 9.1848
 IR Inten    --      6.0803                22.6241                 7.1020

                     16                     17                     18
                      A                      A                      A
 Frequencies --   3130.1238              3224.1845              3347.5375
 Red. masses --      1.0869                 1.0982                 1.1627
 Frc consts  --      6.2743                 6.7263                 7.6764
 IR Inten    --     23.3526               168.2043               127.5242

 - Thermochemistry -
 -------------------
 Temperature   298.150 Kelvin.  Pressure   1.00000 Atm.
 Atom     1 has atomic number  6 and mass  12.00000

 Molecular mass:    63.02348 amu.
 Principal axes and moments of inertia in atomic units:
                           1         2         3
     Eigenvalues --   111.04450 395.79981 448.98998
           X            0.99988  -0.01171   0.01041
           Y            0.01171   0.99993  -0.00004
           Z           -0.01041   0.00017   0.99995
 This molecule is an asymmetric top.
 Rotational symmetry number  1.
 Rotational temperatures (Kelvin)      0.77999     0.21883     0.19291
 Rotational constants (GHZ):          16.25241     4.55973     4.01956
 Zero-point vibrational energy     129418.9 (Joules/Mol)
                                   30.93185 (Kcal/Mol)
 Warning -- explicit consideration of   5 degrees of freedom as
           vibrations may cause significant error
 Vibrational temperatures:    122.13   209.09   415.49   535.86   607.78
          (Kelvin)            971.42   986.12  1078.17  1202.92  1235.17
                             1318.31  1483.98  1807.00  2537.26  2661.50
                             4503.54  4638.88  4816.35

 Zero-point correction=                           0.049293 (Hartree/Particle)
 Thermal correction to Energy=                    0.055168
 Thermal correction to Enthalpy=                  0.056112
 Thermal correction to Gibbs Free Energy=         0.019779
 Sum of electronic and zero-point Energies=           -191.664118
 Sum of electronic and thermal Energies=              -191.658243
 Sum of electronic and thermal Enthalpies=            -191.657299
 Sum of electronic and thermal Free Energies=         -191.693632

                     E (Thermal)             CV                S
                      KCal/Mol        Cal/Mol-Kelvin    Cal/Mol-Kelvin
 Total                   34.618             19.142             76.471
 Electronic               0.000              0.000              2.183
 Translational            0.889              2.981             38.342
 Rotational               0.889              2.981             24.493
 Vibrational             32.841             13.181             11.452
 Vibration     1          0.601              1.960              3.775
 Vibration     2          0.617              1.908              2.733
 Vibration     3          0.685              1.695              1.481
 Vibration     4          0.744              1.529              1.070
 Vibration     5          0.785              1.421              0.884

 Normal termination of Gaussian 09 at Sun Jun 19 10:22:31 2016.
