 Gaussian 09, Revision E.01,
 Gaussian 09:  EM64L-G09RevE.01 30-Nov-2015

 ---------------------------------------------
 #p b3lyp/6-311++G(3df,2p) freq symmetry=Loose
 ---------------------------------------------

 ---------
 b3lyp opt
 ---------
 Symbolic Z-matrix:
 Charge =  3 Multiplicity = 1

                         Standard orientation:
 ---------------------------------------------------------------------
 Center     Atomic      Atomic             Coordinates (Angstroms)
 Number     Number       Type             X           Y           Z
 ---------------------------------------------------------------------
      1          6           0        0.321199   -0.877293   -0.351611
      2          6           0        1.389482    0.000170    0.000196
      3          1           0        2.514734    0.000156   -0.001798
      4          6           0        0.321807    0.876312    0.352059
      5          6           0       -0.958558   -0.751091    0.155674
      6          1           0       -1.604924   -1.383757    0.829634
      7          6           0       -0.958133    0.751625   -0.156164
      8          1           0       -1.604594    1.385263   -0.828759
 ---------------------------------------------------------------------

 SCF Done:  E(RB3LYP) =  -190.415980149     A.U. after   12 cycles

 The electronic state is 1-A.
 Alpha  occ. eigenvalues --  -11.09245 -11.09241 -11.08616 -11.07086 -11.07046
 Alpha  occ. eigenvalues --   -1.76288  -1.55177  -1.48826  -1.30618  -1.30537
 Alpha  occ. eigenvalues --   -1.23814  -1.23482  -1.22013  -1.15855  -1.05738
 Alpha virt. eigenvalues --   -0.92494  -0.87991  -0.84888  -0.81558  -0.74064
 Alpha virt. eigenvalues --   -0.57903  -0.56555  -0.55151  -0.51036  -0.49640
 Alpha virt. eigenvalues --   -0.48250  -0.46046  -0.43817  -0.42369  -0.40890

 Mulliken charges:
               1
     1  C    0.481082
     2  C    0.272977
     3  H    0.445600
     4  C    0.480809
     5  C    0.279671
     6  H    0.378980
     7  C    0.281415
     8  H    0.379465
 Sum of Mulliken charges =   3.00000

 Dipole moment (field-independent basis, Debye):
    X=             -0.3052    Y=              0.0026    Z=              0.0003  Tot=              0.3052
 Quadrupole moment (field-independent basis, Debye-Ang):
   XX=              6.5740   YY=             -7.7177   ZZ=            -18.9596
   XY=             -0.0043   XZ=             -0.0057   YZ=             -2.8383

  Exact polarizability:  47.537  -0.001  39.552  -0.003   2.124  23.924
 Approx polarizability:  99.147  -0.009 100.989   0.000  17.723  43.638

                      1                      2                      3
                      A                      A                      A
 Frequencies --    227.8110               448.1482               507.2983
 Red. masses --      2.6992                 3.2950                 4.1060
 Frc consts  --      0.0825                 0.3899                 0.6226
 IR Inten    --     23.2129                 3.7558                28.8471

                      4                      5                      6
                      A                      A                      A
 Frequencies --    519.2050               750.0967               834.5264
 Red. masses --      7.0006                 5.5115                 1.6317
 Frc consts  --      1.1119                 1.8271                 0.6695
 IR Inten    --      1.5051                 0.6839                 4.2689

                      7                      8                      9
                      A                      A                      A
 Frequencies --    863.2572               869.9308               903.9474
 Red. masses --      1.6209                 2.1313                 1.8113
 Frc consts  --      0.7117                 0.9503                 0.8720
 IR Inten    --      2.0607                33.9765                54.9756

                     10                     11                     12
                      A                      A                      A
 Frequencies --   1007.3386              1050.2533              1077.3250
 Red. masses --      1.1666                 1.1808                 1.3952
 Frc consts  --      0.6974                 0.7674                 0.9541
 IR Inten    --      7.6506                17.3948                50.7936

                     13                     14                     15
                      A                      A                      A
 Frequencies --   1149.2687              1336.7886              1377.8172
 Red. masses --      5.8141                 6.3911                 6.2020
 Frc consts  --      4.5246                 6.7290                 6.9369
 IR Inten    --      1.4288                97.2126               460.6304

                     16                     17                     18
                      A                      A                      A
 Frequencies --   2761.1155              2780.5423              2828.6860
 Red. masses --      1.1029                 1.1140                 1.1217
 Frc consts  --      4.9538                 5.0744                 5.2880
 IR Inten    --    641.3447               762.5938               201.0658

 - Thermochemistry -
 -------------------
 Temperature   298.150 Kelvin.  Pressure   1.00000 Atm.
 Atom     1 has atomic number  6 and mass  12.00000

 Molecular mass:    63.02348 amu.
 Principal axes and moments of inertia in atomic units:
                           1         2         3
     Eigenvalues --   145.71275 228.62270 340.24363
           X            1.00000  -0.00009  -0.00011
           Y            0.00008   0.99733  -0.07308
           Z            0.00012   0.07308   0.99733
 This molecule is an asymmetric top.
 Rotational symmetry number  1.
 Rotational temperatures (Kelvin)      0.59441     0.37885     0.25456
 Rotational constants (GHZ):          12.38561     7.89397     5.30426
 Zero-point vibrational energy     127362.6 (Joules/Mol)
                                   30.44038 (Kcal/Mol)
 Warning -- explicit consideration of   4 degrees of freedom as
           vibrations may cause significant error
 Vibrational temperatures:    327.77   644.78   729.89   747.02  1079.22
          (Kelvin)           1200.70  1242.03  1251.63  1300.58  1449.33
                             1511.08  1550.03  1653.54  1923.34  1982.37
                             3972.62  4000.58  4069.84

 Zero-point correction=                           0.048510 (Hartree/Particle)
 Thermal correction to Energy=                    0.053026
 Thermal correction to Enthalpy=                  0.053970
 Thermal correction to Gibbs Free Energy=         0.021921
 Sum of electronic and zero-point Energies=           -190.367470
 Sum of electronic and thermal Energies=              -190.362954
 Sum of electronic and thermal Enthalpies=            -190.362010
 Sum of electronic and thermal Free Energies=         -190.394059

                     E (Thermal)             CV                S
                      KCal/Mol        Cal/Mol-Kelvin    Cal/Mol-Kelvin
 Total                   33.274             15.969             67.453
 Electronic               0.000              0.000              0.000
 Translational            0.889              2.981             38.342
 Rotational               0.889              2.981             23.942
 Vibrational             31.497             10.008              5.169
 Vibration     1          0.651              1.799              1.896
 Vibration     2          0.807              1.365              0.801
 Vibration     3          0.862              1.234              0.640
 Vibration     4          0.874              1.207              0.612

 Normal termination of Gaussian 09 at Sun Jun 19 14:00:17 2016.
