 Gaussian 09, Revision E.01,
 Gaussian 09:  EM64L-G09RevE.01 30-Nov-2015

 ---------------------------------------------
 #p b3lyp/6-311++G(3df,2p) freq symmetry=Loose
 ---------------------------------------------

 ---------
 b3lyp opt
 ---------
 Symbolic Z-matrix:
 Charge =  1 Multiplicity = 3

                         Standard orientation:
 ---------------------------------------------------------------------
 Center     Atomic      Atomic             Coordinates (Angstroms)
 Number     Number       Type             X           Y           Z
 ---------------------------------------------------------------------
      1          6           0       -0.000000    0.354163   -0.000000
      2          6           0       -0.941557    1.310275   -0.000000
      3          1           0       -1.962739   -0.419047    0.917764
      4          6           0       -1.533971   -0.005210    0.000000
      5          1           0       -1.962739   -0.419047   -0.917764
      6          6           0        1.293112   -0.137535    0.000000
      7          1           0        2.167985    0.523056   -0.000000
      8          6           0        1.475331   -1.469187    0.000000
 ---------------------------------------------------------------------

 SCF Done:  E(UB3LYP) =  -191.737240402     A.U. after   19 cycles

 The electronic state is 3-A".
 Alpha  occ. eigenvalues --  -10.52697 -10.51207 -10.50979 -10.46293 -10.45538
 Alpha  occ. eigenvalues --   -1.17736  -1.07148  -0.89312  -0.84032  -0.76755
 Alpha  occ. eigenvalues --   -0.72280  -0.68198  -0.64591  -0.60195  -0.55130
 Alpha  occ. eigenvalues --   -0.51325  -0.51180
 Alpha virt. eigenvalues --   -0.35821  -0.31949  -0.19199  -0.17158  -0.14873
 Alpha virt. eigenvalues --   -0.13336  -0.11920  -0.10916  -0.09064  -0.07604
 Alpha virt. eigenvalues --   -0.06882  -0.06485  -0.04927  -0.04496  -0.04087

  Beta  occ. eigenvalues --  -10.52231 -10.50652 -10.49033 -10.45979 -10.45520
  Beta  occ. eigenvalues --   -1.15243  -1.06054  -0.87693  -0.81951  -0.75835
  Beta  occ. eigenvalues --   -0.69709  -0.62757  -0.62523  -0.57620  -0.54153
  Beta virt. eigenvalues --   -0.41594  -0.37647  -0.34837  -0.26985  -0.16687
  Beta virt. eigenvalues --   -0.16153  -0.14155  -0.12964  -0.11709  -0.10545
  Beta virt. eigenvalues --   -0.08723  -0.07403  -0.06498  -0.05831  -0.04369

 Mulliken charges and spin densities:
               1          2
     1  C    0.469115   0.355435
     2  C    0.255467   1.034600
     3  H    0.240063   0.062966
     4  C   -0.339683   0.115414
     5  H    0.240063   0.062966
     6  C    0.214679   0.053194
     7  H    0.235996   0.016200
     8  C   -0.315700   0.299224
 Sum of Mulliken charges =   1.00000   2.00000

 Dipole moment (field-independent basis, Debye):
    X=             -0.1156    Y=              0.5584    Z=              0.0000  Tot=              0.5703
 Quadrupole moment (field-independent basis, Debye-Ang):
   XX=            -12.4395   YY=            -26.5759   ZZ=            -25.6743
   XY=              1.2416   XZ=             -0.0000   YZ=             -0.0000

  Exact polarizability:  72.530 -14.810  55.759  -0.000  -0.000  32.990
 Approx polarizability: 117.448 -33.273 104.828  -0.000  -0.000  48.546

                      1                      2                      3
                     A'                     A"                     A"
 Frequencies --     77.8434               175.9106               339.1628
 Red. masses --      7.4589                 4.5901                 2.7481
 Frc consts  --      0.0266                 0.0837                 0.1863
 IR Inten    --      9.9706                10.7771                 6.7914

                      4                      5                      6
                     A'                     A'                     A"
 Frequencies --    364.9922               608.6510               726.6210
 Red. masses --      4.7464                 5.7020                 1.3707
 Frc consts  --      0.3725                 1.2445                 0.4264
 IR Inten    --      5.6314                15.1121                20.0552

                      7                      8                      9
                     A"                     A"                     A'
 Frequencies --    852.4110               885.5673               988.1799
 Red. masses --      1.3535                 1.2108                 3.5916
 Frc consts  --      0.5795                 0.5595                 2.0664
 IR Inten    --      0.3166                 1.5376                27.7067

                     10                     11                     12
                     A'                     A'                     A'
 Frequencies --   1022.0070              1054.3393              1125.3387
 Red. masses --      1.2857                 1.6070                 6.4240
 Frc consts  --      0.7912                 1.0525                 4.7932
 IR Inten    --     71.0434                23.7059                26.2362

                     13                     14                     15
                     A'                     A'                     A'
 Frequencies --   1373.1210              1487.2351              1725.0062
 Red. masses --      1.0926                 6.9873                11.6911
 Frc consts  --      1.2138                 9.1058                20.4969
 IR Inten    --     41.3342               211.5133                26.0677

                     16                     17                     18
                     A'                     A'                     A"
 Frequencies --   2996.2092              3046.1016              3068.6175
 Red. masses --      1.0470                 1.0848                 1.1091
 Frc consts  --      5.5378                 5.9307                 6.1535
 IR Inten    --    108.0023                91.8107                28.2290

 - Thermochemistry -
 -------------------
 Temperature   298.150 Kelvin.  Pressure   1.00000 Atm.
 Atom     1 has atomic number  6 and mass  12.00000

 Molecular mass:    63.02348 amu.
 Principal axes and moments of inertia in atomic units:
                           1         2         3
     Eigenvalues --   100.05878 434.79326 522.72639
           X            0.87149   0.49041   0.00000
           Y           -0.49041   0.87149   0.00000
           Z           -0.00000  -0.00000   1.00000
 This molecule is an asymmetric top.
 Rotational symmetry number  1.
 Rotational temperatures (Kelvin)      0.86563     0.19921     0.16570
 Rotational constants (GHZ):          18.03681     4.15080     3.45255
 Zero-point vibrational energy     131094.7 (Joules/Mol)
                                   31.33237 (Kcal/Mol)
 Warning -- explicit consideration of   5 degrees of freedom as
           vibrations may cause significant error
 Vibrational temperatures:    112.00   253.10   487.98   525.14   875.71
          (Kelvin)           1045.44  1226.43  1274.13  1421.77  1470.44
                             1516.96  1619.11  1975.61  2139.80  2481.90
                             4310.87  4382.66  4415.05

 Zero-point correction=                           0.049931 (Hartree/Particle)
 Thermal correction to Energy=                    0.055379
 Thermal correction to Enthalpy=                  0.056323
 Thermal correction to Gibbs Free Energy=         0.020607
 Sum of electronic and zero-point Energies=           -191.687309
 Sum of electronic and thermal Energies=              -191.681861
 Sum of electronic and thermal Enthalpies=            -191.680917
 Sum of electronic and thermal Free Energies=         -191.716634

                     E (Thermal)             CV                S
                      KCal/Mol        Cal/Mol-Kelvin    Cal/Mol-Kelvin
 Total                   34.751             17.373             75.172
 Electronic               0.000              0.000              2.183
 Translational            0.889              2.981             38.342
 Rotational               0.889              2.981             24.634
 Vibrational             32.973             11.411             10.012
 Vibration     1          0.599              1.964              3.945
 Vibration     2          0.628              1.872              2.371
 Vibration     3          0.719              1.597              1.216
 Vibration     4          0.738              1.544              1.101
 Vibration     5          0.968              1.013              0.435

 Optimization completed.
    -- Stationary point found.
 Normal termination of Gaussian 09 at Tue Jul 19 19:00:53 2016.
