 Gaussian 09, Revision E.01,
 Gaussian 09:  EM64L-G09RevE.01 30-Nov-2015

 ---------------------------------------------
 #p b3lyp/6-311++G(3df,2p) freq symmetry=Loose
 ---------------------------------------------

 ---------
 b3lyp opt
 ---------
 Symbolic Z-matrix:
 Charge =  0 Multiplicity = 2

                         Standard orientation:
 ---------------------------------------------------------------------
 Center     Atomic      Atomic             Coordinates (Angstroms)
 Number     Number       Type             X           Y           Z
 ---------------------------------------------------------------------
      1          6           0       -1.582798    0.051615   -0.445291
      2          6           0        0.626327   -0.047424    0.027638
      3          6           0       -0.558871    0.830885    0.158318
      4          1           0       -0.682268    1.634917    0.875893
      5          6           0       -0.608127   -0.819600    0.135019
      6          1           0       -0.803517   -1.632413    0.826600
      7          6           0        1.909566   -0.103120   -0.116646
      8          1           0        2.769194    0.523356   -0.256725
 ---------------------------------------------------------------------

 SCF Done:  E(UB3LYP) =  -192.110618800     A.U. after   18 cycles

 The electronic state is 2-A.
 Alpha  occ. eigenvalues --  -10.25760 -10.25665 -10.23383 -10.21211 -10.20457
 Alpha  occ. eigenvalues --   -0.96996  -0.77710  -0.65625  -0.63146  -0.56410
 Alpha  occ. eigenvalues --   -0.51653  -0.42716  -0.40371  -0.37222  -0.30198
 Alpha  occ. eigenvalues --   -0.25781  -0.24112
 Alpha virt. eigenvalues --   -0.06064  -0.04053  -0.01258   0.00227   0.01928
 Alpha virt. eigenvalues --    0.02412   0.04839   0.05572   0.05906   0.07340
 Alpha virt. eigenvalues --    0.08121   0.08325   0.10789   0.10907   0.11098

  Beta  occ. eigenvalues --  -10.25512 -10.25482 -10.23574 -10.20513 -10.19724
  Beta  occ. eigenvalues --   -0.96745  -0.75874  -0.65155  -0.61847  -0.56261
  Beta  occ. eigenvalues --   -0.50509  -0.41071  -0.40025  -0.36770  -0.29571
  Beta  occ. eigenvalues --   -0.23831
  Beta virt. eigenvalues --   -0.11250  -0.05912  -0.03653  -0.01140   0.00478
  Beta virt. eigenvalues --    0.02206   0.02593   0.04926   0.05715   0.06545
  Beta virt. eigenvalues --    0.07387   0.08372   0.08526   0.10941   0.11118

 Mulliken charges and spin densities:
               1          2
     1  C   -0.596308  -0.041089
     2  C    0.195529  -0.178443
     3  C    0.069900   0.123337
     4  H    0.190560   0.001798
     5  C    0.088968   0.079970
     6  H    0.189175   0.005536
     7  C   -0.359689   0.995313
     8  H    0.221865   0.013578
 Sum of Mulliken charges =  -0.00000   1.00000

 Dipole moment (field-independent basis, Debye):
    X=              2.0656    Y=              0.4638    Z=              1.8724  Tot=              2.8263
 Quadrupole moment (field-independent basis, Debye-Ang):
   XX=            -35.6615   YY=            -26.2061   ZZ=            -30.4837
   XY=              2.2027   XZ=             -3.8139   YZ=              0.0255

  Exact polarizability:  85.850  -0.954  50.406   0.490  -0.006  41.020
 Approx polarizability: 139.357  -2.493  83.859   2.994   0.116  60.947

                      1                      2                      3
                      A                      A                      A
 Frequencies --    265.4575               336.6416               570.6601
 Red. masses --      6.2179                 2.5673                 1.9884
 Frc consts  --      0.2582                 0.1714                 0.3815
 IR Inten    --     26.4467                 3.2824                33.5376

                      4                      5                      6
                      A                      A                      A
 Frequencies --    573.2246               673.5967               699.9786
 Red. masses --      1.8296                 2.5735                 2.8702
 Frc consts  --      0.3542                 0.6880                 0.8286
 IR Inten    --     43.0170                29.5507                17.8410

                      7                      8                      9
                      A                      A                      A
 Frequencies --    777.1405               890.7626               954.3206
 Red. masses --      2.5325                 1.7955                 1.9652
 Frc consts  --      0.9012                 0.8394                 1.0545
 IR Inten    --      9.8878                11.5870                 0.6578

                     10                     11                     12
                      A                      A                      A
 Frequencies --   1001.3895              1082.7895              1136.3723
 Red. masses --      1.9491                 1.2800                 2.3694
 Frc consts  --      1.1516                 0.8842                 1.8028
 IR Inten    --      7.5999                 1.2712                 2.6540

                     13                     14                     15
                      A                      A                      A
 Frequencies --   1156.2863              1355.4698              1740.8241
 Red. masses --      2.0068                 4.5664                 8.1241
 Frc consts  --      1.5808                 4.9431                14.5056
 IR Inten    --     12.5436                24.0621                40.4565

                     16                     17                     18
                      A                      A                      A
 Frequencies --   3148.1518              3155.1300              3297.6550
 Red. masses --      1.0889                 1.0947                 1.1062
 Frc consts  --      6.3582                 6.4208                 7.0874
 IR Inten    --      1.1212                 0.8172                13.6944

 - Thermochemistry -
 -------------------
 Temperature   298.150 Kelvin.  Pressure   1.00000 Atm.
 Atom     1 has atomic number  6 and mass  12.00000

 Molecular mass:    63.02348 amu.
 Principal axes and moments of inertia in atomic units:
                           1         2         3
     Eigenvalues --    95.24939 357.60465 420.53020
           X            0.99953   0.02226  -0.02126
           Y           -0.02236   0.99974  -0.00421
           Z            0.02116   0.00468   0.99977
 This molecule is an asymmetric top.
 Rotational symmetry number  1.
 Rotational temperatures (Kelvin)      0.90934     0.24221     0.20596
 Rotational constants (GHZ):          18.94754     5.04675     4.29159
 Zero-point vibrational energy     136469.1 (Joules/Mol)
                                   32.61690 (Kcal/Mol)
 Warning -- explicit consideration of   4 degrees of freedom as
           vibrations may cause significant error
 Vibrational temperatures:    381.93   484.35   821.05   824.74   969.15
          (Kelvin)           1007.11  1118.13  1281.61  1373.05  1440.77
                             1557.89  1634.98  1663.64  1950.22  2504.65
                             4529.48  4539.52  4744.58

 Zero-point correction=                           0.051978 (Hartree/Particle)
 Thermal correction to Energy=                    0.056542
 Thermal correction to Enthalpy=                  0.057486
 Thermal correction to Gibbs Free Energy=         0.024622
 Sum of electronic and zero-point Energies=           -192.058640
 Sum of electronic and thermal Energies=              -192.054077
 Sum of electronic and thermal Enthalpies=            -192.053133
 Sum of electronic and thermal Free Energies=         -192.085997

                     E (Thermal)             CV                S
                      KCal/Mol        Cal/Mol-Kelvin    Cal/Mol-Kelvin
 Total                   35.480             16.137             69.167
 Electronic               0.000              0.000              1.377
 Translational            0.889              2.981             38.342
 Rotational               0.889              2.981             24.175
 Vibrational             33.703             10.175              5.273
 Vibration     1          0.671              1.736              1.626
 Vibration     2          0.717              1.602              1.228
 Vibration     3          0.927              1.095              0.503
 Vibration     4          0.929              1.089              0.498

 Optimization completed.
    -- Stationary point found.
 Normal termination of Gaussian 09 at Sun Jun 19 07:47:05 2016.
