 Gaussian 09, Revision E.01,
 Gaussian 09:  EM64L-G09RevE.01 30-Nov-2015

 ---------------------------------------------
 #p b3lyp/6-311++G(3df,2p) freq symmetry=Loose
 ---------------------------------------------

 ---------
 b3lyp opt
 ---------
 Symbolic Z-matrix:
 Charge =  1 Multiplicity = 3

                         Standard orientation:
 ---------------------------------------------------------------------
 Center     Atomic      Atomic             Coordinates (Angstroms)
 Number     Number       Type             X           Y           Z
 ---------------------------------------------------------------------
      1          6           0        1.279273    0.357789    0.000000
      2          6           0        0.580567   -0.820505   -0.000000
      3          6           0        0.000000    0.616531    0.000000
      4          6           0        0.237389   -2.130932   -0.000000
      5          6           0       -1.288652    1.263251   -0.000000
      6          1           0       -1.857405    0.968920    0.887272
      7          1           0       -1.136656    2.345358    0.000000
      8          1           0       -1.857405    0.968920   -0.887272
 ---------------------------------------------------------------------

 SCF Done:  E(UB3LYP) =  -191.764302804     A.U. after   18 cycles

 The electronic state is 3-A".
 Alpha  occ. eigenvalues --  -10.55066 -10.52870 -10.51397 -10.51310 -10.42815
 Alpha  occ. eigenvalues --   -1.22125  -1.02476  -1.00464  -0.78694  -0.75320
 Alpha  occ. eigenvalues --   -0.71000  -0.69309  -0.65144  -0.64010  -0.55665
 Alpha  occ. eigenvalues --   -0.54849  -0.51555
 Alpha virt. eigenvalues --   -0.35268  -0.29093  -0.22252  -0.17530  -0.12259
 Alpha virt. eigenvalues --   -0.11651  -0.11226  -0.10755  -0.09459  -0.08368
 Alpha virt. eigenvalues --   -0.08366  -0.06725  -0.06679  -0.05812  -0.04839

  Beta  occ. eigenvalues --  -10.54721 -10.51346 -10.50939 -10.50133 -10.42832
  Beta  occ. eigenvalues --   -1.20774  -1.01301  -0.96879  -0.77514  -0.73059
  Beta  occ. eigenvalues --   -0.69257  -0.67388  -0.63167  -0.61938  -0.53234
  Beta virt. eigenvalues --   -0.41919  -0.40072  -0.31273  -0.25833  -0.17452
  Beta virt. eigenvalues --   -0.17218  -0.11918  -0.11461  -0.10934  -0.10019
  Beta virt. eigenvalues --   -0.08975  -0.07983  -0.07982  -0.06319  -0.06168

 Mulliken charges and spin densities:
               1          2
     1  C    0.114636   0.736010
     2  C    0.707797   0.306334
     3  C    0.233638   0.146842
     4  C   -0.361758   0.748113
     5  C   -0.342424   0.034117
     6  H    0.220087   0.012012
     7  H    0.207937   0.004561
     8  H    0.220087   0.012012
 Sum of Mulliken charges =   1.00000   2.00000

 Dipole moment (field-independent basis, Debye):
    X=             -0.9988    Y=              2.2863    Z=             -0.0000  Tot=              2.4950
 Quadrupole moment (field-independent basis, Debye-Ang):
   XX=            -19.2763   YY=            -21.7848   ZZ=            -25.6400
   XY=             -4.6039   XZ=              0.0000   YZ=             -0.0000

  Exact polarizability:  54.477  -2.686  74.340  -0.000  -0.000  33.959
 Approx polarizability:  87.844   3.141 130.666   0.000   0.000  48.610

                      1                      2                      3
                     A"                     A'                     A"
 Frequencies --     86.2668               154.2868               313.7275
 Red. masses --      1.0795                 5.8369                 9.5714
 Frc consts  --      0.0047                 0.0819                 0.5550
 IR Inten    --      0.6176                 6.6246                 6.9257

                      4                      5                      6
                     A'                     A"                     A'
 Frequencies --    369.2928               395.0644               410.7075
 Red. masses --      6.8572                 3.4507                 4.6778
 Frc consts  --      0.5510                 0.3173                 0.4649
 IR Inten    --     55.3528                 4.4086                51.0461

                      7                      8                      9
                     A'                     A'                     A"
 Frequencies --    864.4911               976.4126              1012.4699
 Red. masses --      4.9506                 3.2585                 1.5160
 Frc consts  --      2.1799                 1.8304                 0.9156
 IR Inten    --     25.3849                89.0843                 4.5101

                     10                     11                     12
                     A'                     A'                     A"
 Frequencies --   1021.4760              1383.0710              1414.7139
 Red. masses --      2.1228                 1.1916                 1.0376
 Frc consts  --      1.3050                 1.3430                 1.2236
 IR Inten    --      6.0963                37.8946                24.7360

                     13                     14                     15
                     A'                     A'                     A'
 Frequencies --   1423.8101              1560.2605              1807.5940
 Red. masses --      1.0494                11.5307                11.5840
 Frc consts  --      1.2534                16.5387                22.3002
 IR Inten    --      9.3478                44.0602               113.7623

                     16                     17                     18
                     A'                     A"                     A'
 Frequencies --   3007.4165              3074.4020              3094.4914
 Red. masses --      1.0322                 1.0995                 1.1024
 Frc consts  --      5.5007                 6.1233                 6.2199
 IR Inten    --     86.1371                22.0337                18.8332

 - Thermochemistry -
 -------------------
 Temperature   298.150 Kelvin.  Pressure   1.00000 Atm.
 Atom     1 has atomic number  6 and mass  12.00000

 Molecular mass:    63.02348 amu.
 Principal axes and moments of inertia in atomic units:
                           1         2         3
     Eigenvalues --   131.46709 405.31650 525.45028
           X           -0.47011   0.88261   0.00000
           Y            0.88261   0.47011   0.00000
           Z           -0.00000   0.00000   1.00000
 This molecule is an asymmetric top.
 Rotational symmetry number  1.
 Rotational temperatures (Kelvin)      0.65883     0.21369     0.16484
 Rotational constants (GHZ):          13.72770     4.45267     3.43466
 Zero-point vibrational energy     133802.0 (Joules/Mol)
                                   31.97946 (Kcal/Mol)
 Warning -- explicit consideration of   6 degrees of freedom as
           vibrations may cause significant error
 Vibrational temperatures:    124.12   221.98   451.38   531.33   568.41
          (Kelvin)            590.92  1243.81  1404.84  1456.72  1469.67
                             1989.93  2035.46  2048.54  2244.86  2600.72
                             4327.00  4423.37  4452.28

 Zero-point correction=                           0.050963 (Hartree/Particle)
 Thermal correction to Energy=                    0.056747
 Thermal correction to Enthalpy=                  0.057691
 Thermal correction to Gibbs Free Energy=         0.021315
 Sum of electronic and zero-point Energies=           -191.713340
 Sum of electronic and thermal Energies=              -191.707556
 Sum of electronic and thermal Enthalpies=            -191.706611
 Sum of electronic and thermal Free Energies=         -191.742988

                     E (Thermal)             CV                S
                      KCal/Mol        Cal/Mol-Kelvin    Cal/Mol-Kelvin
 Total                   35.609             17.997             76.561
 Electronic               0.000              0.000              2.183
 Translational            0.889              2.981             38.342
 Rotational               0.889              2.981             24.841
 Vibrational             33.832             12.035             11.195
 Vibration     1          0.601              1.959              3.743
 Vibration     2          0.620              1.898              2.619
 Vibration     3          0.702              1.647              1.343
 Vibration     4          0.742              1.535              1.083
 Vibration     5          0.762              1.481              0.981
 Vibration     6          0.775              1.447              0.924

 Optimization completed.
    -- Stationary point found.
 Normal termination of Gaussian 09 at Tue Jul 19 19:08:48 2016.
