 Gaussian 09, Revision E.01,
 Gaussian 09:  EM64L-G09RevE.01 30-Nov-2015

 ---------------------------------------------
 #p b3lyp/6-311++G(3df,2p) freq symmetry=Loose
 ---------------------------------------------

 ---------
 b3lyp opt
 ---------
 Symbolic Z-matrix:
 Charge =  2 Multiplicity = 2

                         Standard orientation:
 ---------------------------------------------------------------------
 Center     Atomic      Atomic             Coordinates (Angstroms)
 Number     Number       Type             X           Y           Z
 ---------------------------------------------------------------------
      1          6           0        0.003651    1.964816    0.000000
      2          1           0        0.952897    2.506172    0.000000
      3          1           0       -0.942511    2.511556   -0.000000
      4          6           0        0.000000    0.563022   -0.000000
      5          6           0        0.824234   -0.593536    0.000000
      6          6           0       -0.003151   -1.712198   -0.000000
      7          1           0       -0.004500   -2.803874   -0.000000
      8          6           0       -0.825715   -0.591079   -0.000000
 ---------------------------------------------------------------------

 SCF Done:  E(UB3LYP) =  -191.291094324     A.U. after   14 cycles

 The electronic state is 2-A".
 Alpha  occ. eigenvalues --  -10.78930 -10.78523 -10.78512 -10.77558 -10.74286
 Alpha  occ. eigenvalues --   -1.50990  -1.29489  -1.17852  -1.07523  -1.01314
 Alpha  occ. eigenvalues --   -0.96524  -0.95840  -0.94413  -0.88606  -0.79040
 Alpha  occ. eigenvalues --   -0.78670
 Alpha virt. eigenvalues --   -0.59026  -0.57486  -0.53787  -0.40787  -0.33823
 Alpha virt. eigenvalues --   -0.31605  -0.31352  -0.29824  -0.26912  -0.26637
 Alpha virt. eigenvalues --   -0.26137  -0.23346  -0.23005  -0.20882  -0.20429

  Beta  occ. eigenvalues --  -10.78582 -10.78565 -10.78354 -10.77043 -10.73683
  Beta  occ. eigenvalues --   -1.50351  -1.27014  -1.16461  -1.07337  -1.00543
  Beta  occ. eigenvalues --   -0.96010  -0.95205  -0.91667  -0.88294  -0.78738
  Beta virt. eigenvalues --   -0.68443  -0.57551  -0.53990  -0.53509  -0.37368
  Beta virt. eigenvalues --   -0.32915  -0.31509  -0.31002  -0.29475  -0.26790
  Beta virt. eigenvalues --   -0.26313  -0.25450  -0.23320  -0.22593  -0.20197

 Mulliken charges and spin densities:
               1          2
     1  C   -0.640603   0.336593
     2  H    0.321712  -0.011234
     3  H    0.321506  -0.011218
     4  C    0.149223   0.364746
     5  C    0.977674   0.006357
     6  C   -0.502098   0.316266
     7  H    0.389202  -0.007628
     8  C    0.983386   0.006118
 Sum of Mulliken charges =   2.00000   1.00000

 Dipole moment (field-independent basis, Debye):
    X=             -0.0000    Y=              0.9018    Z=             -0.0000  Tot=              0.9018
 Quadrupole moment (field-independent basis, Debye-Ang):
   XX=            -21.0836   YY=             11.3999   ZZ=            -23.3463
   XY=              0.0579   XZ=             -0.0000   YZ=              0.0000

  Exact polarizability:  38.773   0.062  71.545   0.000  -0.000  23.115
 Approx polarizability:  95.576   0.053 114.465   0.000   0.000  35.957

                      1                      2                      3
                     A"                     A"                     A'
 Frequencies --    245.8639               306.7742               350.8622
 Red. masses --      3.5388                 1.1092                 2.7723
 Frc consts  --      0.1260                 0.0615                 0.2011
 IR Inten    --     14.0497                 0.0001                10.8103

                      4                      5                      6
                     A"                     A'                     A'
 Frequencies --    568.3983               701.2492               715.7108
 Red. masses --      5.3586                 6.8794                 4.1328
 Frc consts  --      1.0200                 1.9932                 1.2473
 IR Inten    --      0.0418                19.4454                35.4695

                      7                      8                      9
                     A"                     A'                     A'
 Frequencies --    798.9666               945.4409              1025.5754
 Red. masses --      1.3742                 6.8668                 1.5282
 Frc consts  --      0.5168                 3.6164                 0.9470
 IR Inten    --     17.9125                27.6828                 6.8800

                     10                     11                     12
                     A'                     A"                     A'
 Frequencies --   1054.7658              1071.7243              1134.8885
 Red. masses --      1.6757                 1.3415                 3.4865
 Frc consts  --      1.0984                 0.9079                 2.6457
 IR Inten    --      3.5292                17.5914                 6.0129

                     13                     14                     15
                     A'                     A'                     A'
 Frequencies --   1422.6545              1435.7491              1638.7719
 Red. masses --      3.3234                 1.3503                10.6707
 Frc consts  --      3.9631                 1.6400                16.8841
 IR Inten    --    211.4894                 2.8620                 0.1399

                     16                     17                     18
                     A'                     A'                     A'
 Frequencies --   3055.3022              3155.9524              3172.2251
 Red. masses --      1.0533                 1.1225                 1.1268
 Frc consts  --      5.7931                 6.5869                 6.6809
 IR Inten    --    193.2491               269.6417               115.6386

 - Thermochemistry -
 -------------------
 Temperature   298.150 Kelvin.  Pressure   1.00000 Atm.
 Atom     1 has atomic number  6 and mass  12.00000

 Molecular mass:    63.02348 amu.
 Principal axes and moments of inertia in atomic units:
                           1         2         3
     Eigenvalues --    64.79481 408.04280 472.83761
           X            0.00178   1.00000   0.00000
           Y            1.00000  -0.00178   0.00000
           Z           -0.00000  -0.00000   1.00000
 This molecule is an asymmetric top.
 Rotational symmetry number  1.
 Rotational temperatures (Kelvin)      1.33674     0.21227     0.18318
 Rotational constants (GHZ):          27.85317     4.42292     3.81683
 Zero-point vibrational energy     136379.5 (Joules/Mol)
                                   32.59549 (Kcal/Mol)
 Warning -- explicit consideration of   4 degrees of freedom as
           vibrations may cause significant error
 Vibrational temperatures:    353.74   441.38   504.81   817.80  1008.94
          (Kelvin)           1029.75  1149.53  1360.28  1475.57  1517.57
                             1541.97  1632.85  2046.88  2065.72  2357.82
                             4395.89  4540.71  4564.12

 Zero-point correction=                           0.051944 (Hartree/Particle)
 Thermal correction to Energy=                    0.056691
 Thermal correction to Enthalpy=                  0.057635
 Thermal correction to Gibbs Free Energy=         0.024467
 Sum of electronic and zero-point Energies=           -191.239150
 Sum of electronic and thermal Energies=              -191.234403
 Sum of electronic and thermal Enthalpies=            -191.233459
 Sum of electronic and thermal Free Energies=         -191.266627

                     E (Thermal)             CV                S
                      KCal/Mol        Cal/Mol-Kelvin    Cal/Mol-Kelvin
 Total                   35.574             16.250             69.807
 Electronic               0.000              0.000              1.377
 Translational            0.889              2.981             38.342
 Rotational               0.889              2.981             24.040
 Vibrational             33.797             10.288              6.048
 Vibration     1          0.660              1.770              1.760
 Vibration     2          0.697              1.661              1.380
 Vibration     3          0.728              1.573              1.162
 Vibration     4          0.924              1.100              0.507

 Normal termination of Gaussian 09 at Sun Jun 19 11:48:33 2016.
