 Gaussian 09, Revision E.01,
 Gaussian 09:  EM64L-G09RevE.01 30-Nov-2015

 ---------------------------------------------
 #p b3lyp/6-311++G(3df,2p) freq symmetry=Loose
 ---------------------------------------------

 ---------
 b3lyp opt
 ---------
 Symbolic Z-matrix:
 Charge =  1 Multiplicity = 1

                         Standard orientation:
 ---------------------------------------------------------------------
 Center     Atomic      Atomic             Coordinates (Angstroms)
 Number     Number       Type             X           Y           Z
 ---------------------------------------------------------------------
      1          6           0       -0.915638    1.838994    0.000000
      2          6           0       -0.277148    0.686388    0.000000
      3          6           0        0.272630   -0.335826    0.908421
      4          1           0        0.827822   -0.183012    1.830727
      5          6           0        0.272630   -1.389619    0.000000
      6          1           0        0.593731   -2.418645    0.000000
      7          6           0        0.272630   -0.335826   -0.908421
      8          1           0        0.827822   -0.183012   -1.830727
 ---------------------------------------------------------------------

 SCF Done:  E(RB3LYP) =  -191.831255293     A.U. after   12 cycles

 The electronic state is 1-A'.
 Alpha  occ. eigenvalues --  -10.53094 -10.53093 -10.47684 -10.46817 -10.43707
 Alpha  occ. eigenvalues --   -1.21220  -0.99487  -0.92005  -0.86730  -0.80485
 Alpha  occ. eigenvalues --   -0.71212  -0.69130  -0.65382  -0.63614  -0.50880
 Alpha  occ. eigenvalues --   -0.49570
 Alpha virt. eigenvalues --   -0.35035  -0.32496  -0.29755  -0.18450  -0.14811
 Alpha virt. eigenvalues --   -0.13542  -0.13529  -0.11965  -0.10626  -0.09054
 Alpha virt. eigenvalues --   -0.08930  -0.06803  -0.05373  -0.04757  -0.04265

 Mulliken charges:
               1
     1  C   -0.458456
     2  C    0.536683
     3  C    0.189938
     4  H    0.272531
     5  C   -0.276582
     6  H    0.273416
     7  C    0.189938
     8  H    0.272531
 Sum of Mulliken charges =   1.00000

 Dipole moment (field-independent basis, Debye):
    X=              2.5595    Y=             -3.4270    Z=              0.0000  Tot=              4.2773
 Quadrupole moment (field-independent basis, Debye-Ang):
   XX=            -26.5092   YY=            -22.8564   ZZ=            -17.3294
   XY=             -0.8673   XZ=             -0.0000   YZ=             -0.0000

  Exact polarizability:  35.553 -12.205  63.845   0.000  -0.000  44.629
 Approx polarizability:  54.641 -24.034 119.602   0.000  -0.000  78.494

                      1                      2                      3
                     A"                     A'                     A'
 Frequencies --    216.7851               226.0055               364.5267
 Red. masses --      6.1821                 4.3889                 2.3937
 Frc consts  --      0.1712                 0.1321                 0.1874
 IR Inten    --      9.8124                 4.2930                14.8571

                      4                      5                      6
                     A'                     A"                     A'
 Frequencies --    723.1769               817.7397               837.5414
 Red. masses --      3.2565                 9.1288                 1.9558
 Frc consts  --      1.0034                 3.5966                 0.8083
 IR Inten    --      3.4127                 1.7748                33.9333

                      7                      8                      9
                     A'                     A'                     A"
 Frequencies --    944.8871               992.1537               996.6352
 Red. masses --      1.9232                 1.6467                 1.3594
 Frc consts  --      1.0117                 0.9550                 0.7955
 IR Inten    --      9.0213                 7.0371                 0.1082

                     10                     11                     12
                     A"                     A'                     A"
 Frequencies --   1041.3680              1177.4269              1178.7558
 Red. masses --      1.2024                 1.7408                 1.3090
 Frc consts  --      0.7683                 1.4219                 1.0716
 IR Inten    --      1.0494                31.4501                 0.3626

                     13                     14                     15
                     A"                     A'                     A'
 Frequencies --   1338.9119              1466.4473              1748.1994
 Red. masses --      3.2355                 4.3639                11.3303
 Frc consts  --      3.4174                 5.5291                20.4021
 IR Inten    --     56.6007                 0.4556               274.9512

                     16                     17                     18
                     A'                     A"                     A'
 Frequencies --   3164.2969              3165.6312              3261.2881
 Red. masses --      1.0965                 1.0973                 1.1114
 Frc consts  --      6.4686                 6.4788                 6.9644
 IR Inten    --     19.1162                63.9136                69.3158

 - Thermochemistry -
 -------------------
 Temperature   298.150 Kelvin.  Pressure   1.00000 Atm.
 Atom     1 has atomic number  6 and mass  12.00000

 Molecular mass:    63.02348 amu.
 Principal axes and moments of inertia in atomic units:
                           1         2         3
     Eigenvalues --   104.30635 333.08497 418.48108
           X           -0.37946   0.00000   0.92521
           Y            0.92521   0.00000   0.37946
           Z           -0.00000   1.00000  -0.00000
 This molecule is an asymmetric top.
 Rotational symmetry number  1.
 Rotational temperatures (Kelvin)      0.83038     0.26004     0.20697
 Rotational constants (GHZ):          17.30231     5.41826     4.31260
 Zero-point vibrational energy     141528.9 (Joules/Mol)
                                   33.82621 (Kcal/Mol)
 Warning -- explicit consideration of   3 degrees of freedom as
           vibrations may cause significant error
 Vibrational temperatures:    311.91   325.17   524.47  1040.49  1176.54
          (Kelvin)           1205.03  1359.48  1427.49  1433.93  1498.29
                             1694.05  1695.96  1926.39  2109.89  2515.27
                             4552.71  4554.63  4692.26

 Zero-point correction=                           0.053905 (Hartree/Particle)
 Thermal correction to Energy=                    0.058591
 Thermal correction to Enthalpy=                  0.059535
 Thermal correction to Gibbs Free Energy=         0.026893
 Sum of electronic and zero-point Energies=           -191.777350
 Sum of electronic and thermal Energies=              -191.772665
 Sum of electronic and thermal Enthalpies=            -191.771720
 Sum of electronic and thermal Free Energies=         -191.804363

                     E (Thermal)             CV                S
                      KCal/Mol        Cal/Mol-Kelvin    Cal/Mol-Kelvin
 Total                   36.766             15.349             68.701
 Electronic               0.000              0.000              0.000
 Translational            0.889              2.981             38.342
 Rotational               0.889              2.981             24.190
 Vibrational             34.989              9.387              6.170
 Vibration     1          0.646              1.815              1.986
 Vibration     2          0.650              1.801              1.910
 Vibration     3          0.738              1.545              1.103

 Optimization completed.
    -- Stationary point found.
 Normal termination of Gaussian 09 at Tue Jul 19 15:51:28 2016.
