 Gaussian 09, Revision E.01,
 Gaussian 09:  EM64L-G09RevE.01 30-Nov-2015

 ---------------------------------------------
 #p b3lyp/6-311++G(3df,2p) freq symmetry=Loose
 ---------------------------------------------

 ---------
 b3lyp opt
 ---------
 Symbolic Z-matrix:
 Charge =  0 Multiplicity = 2

                         Standard orientation:
 ---------------------------------------------------------------------
 Center     Atomic      Atomic             Coordinates (Angstroms)
 Number     Number       Type             X           Y           Z
 ---------------------------------------------------------------------
      1          6           0        2.223241   -0.401201   -0.396712
      2          6           0       -1.286053    0.056214    0.095016
      3          6           0       -2.346238   -0.541462   -0.154481
      4          6           0        0.003717    0.715253   -0.028691
      5          1           0        0.002249    1.597987    0.620657
      6          1           0        0.119955    1.096450   -1.045874
      7          6           0        1.184233   -0.166553    0.337860
      8          1           0        1.204392   -0.667947    1.307272
 ---------------------------------------------------------------------

 SCF Done:  E(UB3LYP) =  -192.059665307     A.U. after   26 cycles

 The electronic state is 2-A.
 Alpha  occ. eigenvalues --  -10.25946 -10.24670 -10.23475 -10.22904 -10.20483
 Alpha  occ. eigenvalues --   -0.86674  -0.79926  -0.73510  -0.56182  -0.53627
 Alpha  occ. eigenvalues --   -0.49736  -0.45857  -0.36684  -0.32369  -0.32079
 Alpha  occ. eigenvalues --   -0.30879  -0.30431
 Alpha virt. eigenvalues --   -0.12416  -0.02629  -0.01722  -0.00600   0.00636
 Alpha virt. eigenvalues --    0.01168   0.02701   0.04029   0.05966   0.06620
 Alpha virt. eigenvalues --    0.06944   0.07033   0.07304   0.09761   0.10473

  Beta  occ. eigenvalues --  -10.25936 -10.24659 -10.22458 -10.22186 -10.20490
  Beta  occ. eigenvalues --   -0.86235  -0.78433  -0.72003  -0.56091  -0.52828
  Beta  occ. eigenvalues --   -0.49369  -0.45477  -0.32033  -0.31144  -0.30384
  Beta  occ. eigenvalues --   -0.29749
  Beta virt. eigenvalues --   -0.20493  -0.12368  -0.01913  -0.00887   0.00186
  Beta virt. eigenvalues --    0.01079   0.02108   0.03083   0.04391   0.06332
  Beta virt. eigenvalues --    0.06682   0.06993   0.07173   0.07648   0.09847

 Mulliken charges and spin densities:
               1          2
     1  C   -0.651738   0.004770
     2  C    0.472664   0.257402
     3  C   -0.436253   0.720174
     4  C   -0.288874  -0.018343
     5  H    0.187960   0.022482
     6  H    0.195852   0.015845
     7  C    0.346005  -0.001945
     8  H    0.174384  -0.000386
 Sum of Mulliken charges =  -0.00000   1.00000

 Dipole moment (field-independent basis, Debye):
    X=             -0.0361    Y=              1.8919    Z=              1.8854  Tot=              2.6712
 Quadrupole moment (field-independent basis, Debye-Ang):
   XX=            -42.0948   YY=            -29.7055   ZZ=            -28.6748
   XY=             -0.5170   XZ=              1.3473   YZ=             -2.2755

  Exact polarizability: 110.370  11.678  61.905   3.813   3.274  46.350
 Approx polarizability: 137.704  18.892  79.496   3.049   6.622  72.943

                      1                      2                      3
                      A                      A                      A
 Frequencies --    100.5253               139.6096               183.2952
 Red. masses --      5.4544                 4.5641                 4.7721
 Frc consts  --      0.0325                 0.0524                 0.0945
 IR Inten    --      9.8756                26.4859                 4.1597

                      4                      5                      6
                      A                      A                      A
 Frequencies --    338.7483               384.7867               645.5222
 Red. masses --      3.6842                 3.8536                 1.5924
 Frc consts  --      0.2491                 0.3362                 0.3910
 IR Inten    --      1.3214                41.2374                 9.6805

                      7                      8                      9
                      A                      A                      A
 Frequencies --    808.0878               841.9461               969.5819
 Red. masses --      1.5112                 4.3884                 4.0271
 Frc consts  --      0.5814                 1.8328                 2.2305
 IR Inten    --     14.0356                37.4150               140.2936

                     10                     11                     12
                      A                      A                      A
 Frequencies --   1038.0461              1207.8299              1261.6130
 Red. masses --      1.4786                 1.1134                 1.3992
 Frc consts  --      0.9387                 0.9570                 1.3121
 IR Inten    --     10.6237                68.9227               785.9460

                     13                     14                     15
                      A                      A                      A
 Frequencies --   1389.6827              1496.5190              1741.0833
 Red. masses --      1.5074                 2.2756                 8.8333
 Frc consts  --      1.7152                 3.0027                15.7766
 IR Inten    --    587.2788               892.0788               160.9121

                     16                     17                     18
                      A                      A                      A
 Frequencies --   3000.8767              3050.1477              3095.2236
 Red. masses --      1.0661                 1.0893                 1.0847
 Frc consts  --      5.6566                 5.9709                 6.1229
 IR Inten    --     13.3132                 9.2742                23.9861

 - Thermochemistry -
 -------------------
 Temperature   298.150 Kelvin.  Pressure   1.00000 Atm.
 Atom     1 has atomic number  6 and mass  12.00000

 Molecular mass:    63.02348 amu.
 Principal axes and moments of inertia in atomic units:
                           1         2         3
     Eigenvalues --    82.05548 607.99868 641.88701
           X            0.99995  -0.00315   0.00966
           Y            0.00416   0.99438  -0.10575
           Z           -0.00928   0.10578   0.99435
 This molecule is an asymmetric top.
 Rotational symmetry number  1.
 Rotational temperatures (Kelvin)      1.05555     0.14246     0.13494
 Rotational constants (GHZ):          21.99416     2.96833     2.81162
 Zero-point vibrational energy     129753.7 (Joules/Mol)
                                   31.01188 (Kcal/Mol)
 Warning -- explicit consideration of   5 degrees of freedom as
           vibrations may cause significant error
 Vibrational temperatures:    144.63   200.87   263.72   487.38   553.62
          (Kelvin)            928.76  1162.66  1211.37  1395.01  1493.51
                             1737.80  1815.18  1999.44  2153.15  2505.03
                             4317.59  4388.48  4453.33

 Zero-point correction=                           0.049421 (Hartree/Particle)
 Thermal correction to Energy=                    0.055331
 Thermal correction to Enthalpy=                  0.056275
 Thermal correction to Gibbs Free Energy=         0.019915
 Sum of electronic and zero-point Energies=           -192.010245
 Sum of electronic and thermal Energies=              -192.004334
 Sum of electronic and thermal Enthalpies=            -192.003390
 Sum of electronic and thermal Free Energies=         -192.039751

                     E (Thermal)             CV                S
                      KCal/Mol        Cal/Mol-Kelvin    Cal/Mol-Kelvin
 Total                   34.721             18.280             76.527
 Electronic               0.000              0.000              1.377
 Translational            0.889              2.981             38.342
 Rotational               0.889              2.981             24.974
 Vibrational             32.943             12.319             11.833
 Vibration     1          0.604              1.949              3.444
 Vibration     2          0.615              1.914              2.809
 Vibration     3          0.631              1.863              2.295
 Vibration     4          0.719              1.598              1.218
 Vibration     5          0.754              1.503              1.020

 Optimization completed.
    -- Stationary point found.
 Normal termination of Gaussian 09 at Sun Jun 19 07:32:50 2016.
