 Gaussian 09, Revision E.01,
 Gaussian 09:  EM64L-G09RevE.01 30-Nov-2015

 ---------------------------------------------
 #p b3lyp/6-311++G(3df,2p) freq symmetry=Loose
 ---------------------------------------------

 ---------
 b3lyp opt
 ---------
 Symbolic Z-matrix:
 Charge =  2 Multiplicity = 2

                         Standard orientation:
 ---------------------------------------------------------------------
 Center     Atomic      Atomic             Coordinates (Angstroms)
 Number     Number       Type             X           Y           Z
 ---------------------------------------------------------------------
      1          6           0        2.369121   -0.186958    0.001165
      2          1           0        3.424567   -0.451503    0.008453
      3          6           0        1.161078    0.120399   -0.014649
      4          6           0       -0.153014    0.528136   -0.004164
      5          1           0       -0.360694    1.602889    0.038616
      6          6           0       -1.204789   -0.415494    0.036659
      7          1           0       -1.080325   -1.510862   -0.040386
      8          6           0       -2.502987    0.013830   -0.020127
 ---------------------------------------------------------------------

 SCF Done:  E(UB3LYP) =  -191.240835868     A.U. after   37 cycles

 The electronic state is 2-A.
 Alpha  occ. eigenvalues --  -10.79553 -10.74053 -10.73717 -10.71359 -10.69426
 Alpha  occ. eigenvalues --   -1.33587  -1.27925  -1.19287  -1.03042  -1.01226
 Alpha  occ. eigenvalues --   -0.97924  -0.91258  -0.84965  -0.79669  -0.79396
 Alpha  occ. eigenvalues --   -0.76838
 Alpha virt. eigenvalues --   -0.61320  -0.58431  -0.47051  -0.45804  -0.37777
 Alpha virt. eigenvalues --   -0.31924  -0.31270  -0.29621  -0.26743  -0.25564
 Alpha virt. eigenvalues --   -0.25164  -0.22726  -0.21442  -0.20670  -0.20262

  Beta  occ. eigenvalues --  -10.79042 -10.74268 -10.73120 -10.70885 -10.69089
  Beta  occ. eigenvalues --   -1.32829  -1.25692  -1.18226  -1.02150  -1.00784
  Beta  occ. eigenvalues --   -0.97484  -0.90655  -0.83661  -0.76914  -0.75591
  Beta virt. eigenvalues --   -0.68843  -0.60096  -0.57761  -0.44701  -0.43595
  Beta virt. eigenvalues --   -0.36603  -0.31631  -0.31149  -0.28902  -0.26523
  Beta virt. eigenvalues --   -0.25462  -0.25054  -0.22440  -0.21144  -0.20287

 Mulliken charges and spin densities:
               1          2
     1  C    0.324011   0.303361
     2  H    0.434999  -0.010414
     3  C    0.268352   0.313101
     4  C    0.137921  -0.086934
     5  H    0.269831   0.007790
     6  C    0.131051   0.218423
     7  H    0.258979  -0.002245
     8  C    0.174856   0.256919
 Sum of Mulliken charges =   2.00000   1.00000

 Dipole moment (field-independent basis, Debye):
    X=              1.9463    Y=             -0.7049    Z=              0.2215  Tot=              2.0819
 Quadrupole moment (field-independent basis, Debye-Ang):
   XX=             17.6972   YY=            -17.3895   ZZ=            -24.8051
   XY=             -0.7044   XZ=             -0.7523   YZ=             -0.2963

  Exact polarizability: 202.184   4.698  35.562  -8.350  -0.749  26.906
 Approx polarizability: 391.672  -3.444  53.908  -2.615  -0.969  38.091

                      1                      2                      3
                      A                      A                      A
 Frequencies --    134.5160               141.5873               236.7496
 Red. masses --      4.7667                 5.8925                 5.0426
 Frc consts  --      0.0508                 0.0696                 0.1665
 IR Inten    --      9.1109                29.5936                18.7549

                      4                      5                      6
                      A                      A                      A
 Frequencies --    338.9905               499.5834               713.5363
 Red. masses --      3.7176                 5.1025                 1.2776
 Frc consts  --      0.2517                 0.7503                 0.3833
 IR Inten    --     22.6356                36.0555                41.8751

                      7                      8                      9
                      A                      A                      A
 Frequencies --    747.5663               827.9322               896.0944
 Red. masses --      1.4650                 1.3742                 1.8580
 Frc consts  --      0.4824                 0.5550                 0.8790
 IR Inten    --    455.0513                12.0948                51.9082

                     10                     11                     12
                      A                      A                      A
 Frequencies --    932.5301              1037.8368              1082.1207
 Red. masses --      1.5687                 3.2151                 3.4428
 Frc consts  --      0.8038                 2.0403                 2.3753
 IR Inten    --      9.6246               455.2847               325.8990

                     13                     14                     15
                      A                      A                      A
 Frequencies --   1290.3664              1370.8930              2002.5003
 Red. masses --      1.9022                 1.7050                 6.2593
 Frc consts  --      1.8661                 1.8879                14.7885
 IR Inten    --    245.8226                79.0429               940.1922

                     16                     17                     18
                      A                      A                      A
 Frequencies --   2965.3314              3055.6245              3215.7411
 Red. masses --      1.0843                 1.0892                 1.1621
 Frc consts  --      5.6177                 5.9921                 7.0802
 IR Inten    --    209.7621               210.1509               331.2107

 - Thermochemistry -
 -------------------
 Temperature   298.150 Kelvin.  Pressure   1.00000 Atm.
 Atom     1 has atomic number  6 and mass  12.00000

 Molecular mass:    63.02348 amu.
 Principal axes and moments of inertia in atomic units:
                           1         2         3
     Eigenvalues --    39.75808 676.72042 716.29436
           X            1.00000  -0.00280   0.00013
           Y            0.00280   0.99994   0.01048
           Z           -0.00016  -0.01048   0.99995
 This molecule is an asymmetric top.
 Rotational symmetry number  1.
 Rotational temperatures (Kelvin)      2.17852     0.12799     0.12092
 Rotational constants (GHZ):          45.39306     2.66689     2.51955
 Zero-point vibrational energy     128535.8 (Joules/Mol)
                                   30.72078 (Kcal/Mol)
 Warning -- explicit consideration of   5 degrees of freedom as
           vibrations may cause significant error
 Vibrational temperatures:    193.54   203.71   340.63   487.73   718.79
          (Kelvin)           1026.62  1075.58  1191.21  1289.28  1341.70
                             1493.21  1556.93  1856.55  1972.41  2881.15
                             4266.45  4396.36  4626.73

 Zero-point correction=                           0.048957 (Hartree/Particle)
 Thermal correction to Energy=                    0.054676
 Thermal correction to Enthalpy=                  0.055620
 Thermal correction to Gibbs Free Energy=         0.020105
 Sum of electronic and zero-point Energies=           -191.191879
 Sum of electronic and thermal Energies=              -191.186160
 Sum of electronic and thermal Enthalpies=            -191.185216
 Sum of electronic and thermal Free Energies=         -191.220731

                     E (Thermal)             CV                S
                      KCal/Mol        Cal/Mol-Kelvin    Cal/Mol-Kelvin
 Total                   34.310             18.453             74.748
 Electronic               0.000              0.000              1.377
 Translational            0.889              2.981             38.342
 Rotational               0.889              2.981             24.470
 Vibrational             32.532             12.492             10.559
 Vibration     1          0.613              1.919              2.880
 Vibration     2          0.615              1.912              2.782
 Vibration     3          0.656              1.784              1.827
 Vibration     4          0.719              1.598              1.217
 Vibration     5          0.855              1.251              0.659

 Normal termination of Gaussian 09 at Sun Jun 19 12:22:26 2016.
