 Gaussian 09, Revision E.01,
 Gaussian 09:  EM64L-G09RevE.01 30-Nov-2015

 ---------------------------------------------
 #p b3lyp/6-311++G(3df,2p) freq symmetry=Loose
 ---------------------------------------------

 ---------
 b3lyp opt
 ---------
 Symbolic Z-matrix:
 Charge =  0 Multiplicity = 2

                         Standard orientation:
 ---------------------------------------------------------------------
 Center     Atomic      Atomic             Coordinates (Angstroms)
 Number     Number       Type             X           Y           Z
 ---------------------------------------------------------------------
      1          6           0        0.021282    1.159017    0.000000
      2          6           0        0.021282   -0.087991    0.829417
      3          6           0       -0.795977   -1.057495    0.000000
      4          6           0        0.021282   -0.087991   -0.829417
      5          1           0       -0.327411    2.172443    0.000000
      6          1           0       -1.873409   -0.932897    0.000000
      7          1           0       -0.459794   -2.090057   -0.000000
      8          6           0        1.175566    0.216213   -0.000000
 ---------------------------------------------------------------------

 SCF Done:  E(UB3LYP) =  -192.074673075     A.U. after   15 cycles

 The electronic state is 2-A'.
 Alpha  occ. eigenvalues --  -10.23536 -10.23520 -10.23316 -10.23240 -10.22960
 Alpha  occ. eigenvalues --   -1.04078  -0.76501  -0.61932  -0.59069  -0.55536
 Alpha  occ. eigenvalues --   -0.49670  -0.43048  -0.40944  -0.32813  -0.31132
 Alpha  occ. eigenvalues --   -0.28710  -0.26824
 Alpha virt. eigenvalues --   -0.05685  -0.00268   0.00930   0.02247   0.02534
 Alpha virt. eigenvalues --    0.04768   0.05470   0.07043   0.07809   0.08853
 Alpha virt. eigenvalues --    0.08874   0.09678   0.09928   0.11523   0.11893

  Beta  occ. eigenvalues --  -10.23331 -10.23313 -10.23279 -10.22708 -10.21950
  Beta  occ. eigenvalues --   -1.03531  -0.76267  -0.61003  -0.58350  -0.54267
  Beta  occ. eigenvalues --   -0.49299  -0.40711  -0.40672  -0.30859  -0.29816
  Beta  occ. eigenvalues --   -0.27888
  Beta virt. eigenvalues --   -0.14220  -0.04817  -0.00223   0.00978   0.02395
  Beta virt. eigenvalues --    0.02617   0.05057   0.05563   0.07067   0.07935
  Beta virt. eigenvalues --    0.08897   0.09326   0.10163   0.10379   0.11788

 Mulliken charges and spin densities:
               1          2
     1  C    0.250884   0.232340
     2  C    0.015935   0.028626
     3  C   -0.601076  -0.033566
     4  C    0.015935   0.028626
     5  H    0.303888   0.002280
     6  H    0.178875   0.006647
     7  H    0.167695   0.017738
     8  C   -0.332136   0.717309
 Sum of Mulliken charges =  -0.00000   1.00000

 Dipole moment (field-independent basis, Debye):
    X=             -1.7126    Y=             -0.3558    Z=             -0.0000  Tot=              1.7492
 Quadrupole moment (field-independent basis, Debye-Ang):
   XX=            -29.7799   YY=            -24.8452   ZZ=            -32.6426
   XY=              0.3140   XZ=             -0.0000   YZ=              0.0000

  Exact polarizability:  49.753   4.058  51.350  -0.000  -0.000  48.503
 Approx polarizability:  78.134   4.256  76.176   0.000   0.000 104.078

                      1                      2                      3
                     A'                     A"                     A"
 Frequencies --    426.0046               592.7202               707.8520
 Red. masses --      2.1830                 6.9769                 3.7377
 Frc consts  --      0.2334                 1.4441                 1.1034
 IR Inten    --      7.7066                83.3443                 0.0505

                      4                      5                      6
                     A'                     A'                     A"
 Frequencies --    794.2497               852.5257               871.9550
 Red. masses --      1.2023                 7.4094                 1.2676
 Frc consts  --      0.4469                 3.1729                 0.5678
 IR Inten    --     11.0826                 3.6247                20.8797

                      7                      8                      9
                     A'                     A"                     A'
 Frequencies --    900.0870               992.5177              1018.6875
 Red. masses --     10.1270                 3.2770                 1.7105
 Frc consts  --      4.8339                 1.9020                 1.0458
 IR Inten    --      9.7433                26.5050                 5.2286

                     10                     11                     12
                     A"                     A'                     A'
 Frequencies --   1067.5385              1108.6698              1121.9334
 Red. masses --      1.3700                 6.1999                 5.1857
 Frc consts  --      0.9199                 4.4900                 3.8458
 IR Inten    --      1.6370                 0.5097                10.2870

                     13                     14                     15
                     A"                     A'                     A'
 Frequencies --   1161.5810              1404.5427              1481.1473
 Red. masses --      1.4205                 9.3398                 1.1676
 Frc consts  --      1.1292                10.8557                 1.5091
 IR Inten    --      0.0469                 1.6205                 1.4653

                     16                     17                     18
                     A'                     A'                     A'
 Frequencies --   3099.4412              3180.9168              3298.3927
 Red. masses --      1.0550                 1.1151                 1.1021
 Frc consts  --      5.9715                 6.6478                 7.0642
 IR Inten    --     12.2639                 5.0256                 6.2932

 - Thermochemistry -
 -------------------
 Temperature   298.150 Kelvin.  Pressure   1.00000 Atm.
 Atom     1 has atomic number  6 and mass  12.00000

 Molecular mass:    63.02348 amu.
 Principal axes and moments of inertia in atomic units:
                           1         2         3
     Eigenvalues --   121.65191 240.03295 243.76566
           X            0.55997   0.82851   0.00000
           Y            0.82851  -0.55997   0.00000
           Z           -0.00000   0.00000   1.00000
 This molecule is an asymmetric top.
 Rotational symmetry number  1.
 Rotational temperatures (Kelvin)      0.71198     0.36084     0.35532
 Rotational constants (GHZ):          14.83529     7.51872     7.40359
 Zero-point vibrational energy     144034.9 (Joules/Mol)
                                   34.42518 (Kcal/Mol)
 Warning -- explicit consideration of   2 degrees of freedom as
           vibrations may cause significant error
 Vibrational temperatures:    612.92   852.79  1018.44  1142.75  1226.59
          (Kelvin)           1254.55  1295.02  1428.01  1465.66  1535.95
                             1595.13  1614.21  1671.25  2020.82  2131.04
                             4459.40  4576.62  4745.65

 Zero-point correction=                           0.054860 (Hartree/Particle)
 Thermal correction to Energy=                    0.058689
 Thermal correction to Enthalpy=                  0.059633
 Thermal correction to Gibbs Free Energy=         0.028295
 Sum of electronic and zero-point Energies=           -192.019813
 Sum of electronic and thermal Energies=              -192.015984
 Sum of electronic and thermal Enthalpies=            -192.015040
 Sum of electronic and thermal Free Energies=         -192.046378

                     E (Thermal)             CV                S
                      KCal/Mol        Cal/Mol-Kelvin    Cal/Mol-Kelvin
 Total                   36.828             13.506             65.957
 Electronic               0.000              0.000              1.377
 Translational            0.889              2.981             38.342
 Rotational               0.889              2.981             23.480
 Vibrational             35.051              7.545              2.758
 Vibration     1          0.788              1.414              0.872
 Vibration     2          0.950              1.047              0.462

 Optimization completed.
    -- Stationary point found.
 Normal termination of Gaussian 09 at Tue Jul 19 13:05:33 2016.
