 Gaussian 09, Revision E.01,
 Gaussian 09:  EM64L-G09RevE.01 30-Nov-2015

 ------------------------------------------------------
 #p b3lyp/6-311++G(3df,2p) freq IOp(2/17=3) IOp(2/18=3)
 ------------------------------------------------------

 ---------
 b3lyp opt
 ---------
 Symbolic Z-matrix:
 Charge =  3 Multiplicity = 1

                         Standard orientation:
 ---------------------------------------------------------------------
 Center     Atomic      Atomic             Coordinates (Angstroms)
 Number     Number       Type             X           Y           Z
 ---------------------------------------------------------------------
      1          6           0       -0.347127    0.224326    0.000000
      2          6           0       -0.000000    1.662231    0.000000
      3          6           0       -1.809355   -0.101438    0.000000
      4          1           0       -2.577747    0.696623    0.000000
      5          1           0       -2.151405   -1.154194    0.000000
      6          6           0        0.665725   -0.745882    0.000000
      7          6           0        2.210182   -0.655301    0.000000
      8          1           0        0.412599   -1.846047    0.000000
 ---------------------------------------------------------------------

 SCF Done:  E(RB3LYP) =  -190.289695626     A.U. after   14 cycles

 The electronic state is 1-A'.
 Alpha  occ. eigenvalues --  -11.11748 -11.08212 -10.99881 -10.99512 -10.97481
 Alpha  occ. eigenvalues --   -1.58271  -1.47617  -1.38930  -1.33349  -1.19113
 Alpha  occ. eigenvalues --   -1.17610  -1.12223  -1.07757  -1.03478  -1.01282
 Alpha virt. eigenvalues --   -0.91910  -0.84887  -0.84335  -0.83498  -0.78694
 Alpha virt. eigenvalues --   -0.64558  -0.56980  -0.51952  -0.49372  -0.48097
 Alpha virt. eigenvalues --   -0.46700  -0.44117  -0.42185  -0.41231  -0.40472

 Mulliken charges:
               1
     1  C    1.281082
     2  C    0.310679
     3  C   -0.152538
     4  H    0.339449
     5  H    0.333197
     6  C   -0.068404
     7  C    0.649487
     8  H    0.307048
 Sum of Mulliken charges =   3.00000

 Dipole moment (field-independent basis, Debye):
    X=             -0.9660    Y=             -1.7978    Z=              0.0000  Tot=              2.0409
 Quadrupole moment (field-independent basis, Debye-Ang):
   XX=             15.5809   YY=             -5.6462   ZZ=            -21.4698
   XY=             -6.3203   XZ=              0.0000   YZ=              0.0000

  Exact polarizability:  64.527  -9.227  47.811   0.000  -0.000  26.424
 Approx polarizability: 117.689 -26.314  90.571  -0.000  -0.000  41.692

                      1                      2                      3
                     A'                     A"                     A"
 Frequencies --    166.1238               174.5880               218.1469
 Red. masses --     10.8774                 1.8923                 1.5238
 Frc consts  --      0.1769                 0.0340                 0.0427
 IR Inten    --     17.8455                 0.8255                 1.4882

                      4                      5                      6
                     A'                     A'                     A"
 Frequencies --    272.3596               394.3477               408.0360
 Red. masses --      4.1463                 5.5652                 3.6356
 Frc consts  --      0.1812                 0.5099                 0.3566
 IR Inten    --      9.2359                 7.3650                 7.8032

                      7                      8                      9
                     A'                     A"                     A'
 Frequencies --    720.8310               761.8294               781.2924
 Red. masses --      4.7256                 1.4231                 5.1644
 Frc consts  --      1.4467                 0.4866                 1.8574
 IR Inten    --    348.2191                 0.0243               237.5337

                     10                     11                     12
                     A'                     A'                     A"
 Frequencies --    941.6476              1061.6511              1179.3251
 Red. masses --      1.5344                 1.9630                 1.3784
 Frc consts  --      0.8016                 1.3035                 1.1295
 IR Inten    --    114.4543               209.3798                17.8622

                     13                     14                     15
                     A'                     A'                     A'
 Frequencies --   1263.5503              1383.9968              1435.5840
 Red. masses --      2.0024                 9.2854                 1.0977
 Frc consts  --      1.8836                10.4790                 1.3328
 IR Inten    --    175.0521               121.6564                25.0670

                     16                     17                     18
                     A'                     A'                     A'
 Frequencies --   2738.1294              2921.4016              3036.7867
 Red. masses --      1.0837                 1.0528                 1.1314
 Frc consts  --      4.7869                 5.2940                 6.1476
 IR Inten    --    258.5602               227.0177               187.9356

 - Thermochemistry -
 -------------------
 Temperature   298.150 Kelvin.  Pressure   1.00000 Atm.
 Atom     1 has atomic number  6 and mass  12.00000

 Molecular mass:    63.02348 amu.
 Principal axes and moments of inertia in atomic units:
                           1         2         3
     Eigenvalues --   157.06182 438.61427 595.67609
           X            0.95515   0.29613   0.00000
           Y           -0.29613   0.95515   0.00000
           Z           -0.00000   0.00000   1.00000
 This molecule is an asymmetric top.
 Rotational symmetry number  1.
 Rotational temperatures (Kelvin)      0.55146     0.19747     0.14540
 Rotational constants (GHZ):          11.49064     4.11464     3.02974
 Zero-point vibrational energy     118787.0 (Joules/Mol)
                                   28.39076 (Kcal/Mol)
 Warning -- explicit consideration of   6 degrees of freedom as
           vibrations may cause significant error
 Vibrational temperatures:    239.01   251.19   313.86   391.86   567.38
          (Kelvin)            587.07  1037.11  1096.10  1124.10  1354.82
                             1527.48  1696.78  1817.96  1991.26  2065.48
                             3939.55  4203.24  4369.25

 Zero-point correction=                           0.045244 (Hartree/Particle)
 Thermal correction to Energy=                    0.051298
 Thermal correction to Enthalpy=                  0.052242
 Thermal correction to Gibbs Free Energy=         0.016632
 Sum of electronic and zero-point Energies=           -190.244452
 Sum of electronic and thermal Energies=              -190.238398
 Sum of electronic and thermal Enthalpies=            -190.237453
 Sum of electronic and thermal Free Energies=         -190.273064

                     E (Thermal)             CV                S
                      KCal/Mol        Cal/Mol-Kelvin    Cal/Mol-Kelvin
 Total                   32.190             19.732             74.949
 Electronic               0.000              0.000              0.000
 Translational            0.889              2.981             38.342
 Rotational               0.889              2.981             25.221
 Vibrational             30.413             13.770             11.386
 Vibration     1          0.624              1.884              2.479
 Vibration     2          0.627              1.874              2.386
 Vibration     3          0.646              1.813              1.974
 Vibration     4          0.675              1.724              1.581
 Vibration     5          0.761              1.482              0.984
 Vibration     6          0.773              1.453              0.934

 Optimization completed.
    -- Stationary point found.
 Normal termination of Gaussian 09 at Thu Jan 31 05:57:26 2019.
