 Gaussian 09, Revision E.01,
 Gaussian 09:  EM64L-G09RevE.01 30-Nov-2015

 ---------------------------------------------
 #p b3lyp/6-311++G(3df,2p) freq symmetry=Loose
 ---------------------------------------------

 ---------
 b3lyp opt
 ---------
 Symbolic Z-matrix:
 Charge =  2 Multiplicity = 3

                         Standard orientation:
 ---------------------------------------------------------------------
 Center     Atomic      Atomic             Coordinates (Angstroms)
 Number     Number       Type             X           Y           Z
 ---------------------------------------------------------------------
      1          6           0        0.000000    0.000000    0.000000
      2          1           0        0.000000    0.741251    0.987390
      3          1           0        0.741251   -0.000000   -0.987390
      4          1           0       -0.000000   -0.741251    0.987390
      5          1           0       -0.741251    0.000000   -0.987390
 ---------------------------------------------------------------------

 SCF Done:  E(UB3LYP) =  -39.2424899655     A.U. after    8 cycles

 The electronic state is 3-A1.
 Alpha  occ. eigenvalues --  -10.98607  -1.42573  -1.19639  -1.05459  -1.05459
 Alpha virt. eigenvalues --   -0.57459  -0.54948  -0.54948  -0.44243  -0.36023
 Alpha virt. eigenvalues --   -0.33142  -0.33142  -0.30618  -0.25015  -0.21766
 Alpha virt. eigenvalues --   -0.19601  -0.19597  -0.19597  -0.09981  -0.09981

  Beta  occ. eigenvalues --  -10.96385  -1.33325  -1.15016
  Beta virt. eigenvalues --   -0.87622  -0.87622  -0.52790  -0.48725  -0.48725
  Beta virt. eigenvalues --   -0.42212  -0.34898  -0.31503  -0.31503  -0.28565
  Beta virt. eigenvalues --   -0.22098  -0.20870  -0.19155  -0.18669  -0.18669

 Mulliken charges and spin densities:
               1          2
     1  C    0.290149   1.342222
     2  H    0.427463   0.164444
     3  H    0.427463   0.164444
     4  H    0.427463   0.164444
     5  H    0.427463   0.164444
 Sum of Mulliken charges =   2.00000   2.00000

 Dipole moment (field-independent basis, Debye):
    X=              0.0000    Y=              0.0000    Z=             -0.0000  Tot=              0.0000
 Quadrupole moment (field-independent basis, Debye-Ang):
   XX=             -3.0545   YY=             -3.0545   ZZ=              3.3945
   XY=             -0.0000   XZ=             -0.0000   YZ=             -0.0000

  Exact polarizability:  10.008  -0.000  10.008  -0.000   0.000  13.291
 Approx polarizability:  12.962  -0.000  12.962  -0.000  -0.000  16.397

                      1                      2                      3
                      E                      E                     B2
 Frequencies --    626.7315               626.7315               920.0357
 Red. masses --      1.2807                 1.2807                 1.0635
 Frc consts  --      0.2964                 0.2964                 0.5304
 IR Inten    --    450.1931               450.1931                29.6643

                      4                      5                      6
                     B1                     A1                      E
 Frequencies --   1054.2257              1217.5292              1535.3734
 Red. masses --      1.0078                 1.0078                 1.0256
 Frc consts  --      0.6599                 0.8802                 1.4244
 IR Inten    --      0.0000                 0.0000               579.7466

                      7                      8                      9
                      E                     A1                     B2
 Frequencies --   1535.3734              2179.5613              2372.6668
 Red. masses --      1.0256                 1.0078                 1.2260
 Frc consts  --      1.4244                 2.8208                 4.0665
 IR Inten    --    579.7466                 0.0000               918.5987

 - Thermochemistry -
 -------------------
 Temperature   298.150 Kelvin.  Pressure   1.00000 Atm.
 Atom     1 has atomic number  6 and mass  12.00000

 Molecular mass:    16.03130 amu.
 Principal axes and moments of inertia in atomic units:
                           1         2         3
     Eigenvalues --     7.90994  17.99023  17.99023
           X            0.00000   0.95507  -0.29637
           Y            0.00000   0.29637   0.95507
           Z            1.00000  -0.00000  -0.00000
 This molecule is a prolate symmetric top.
 Rotational symmetry number  4.
 Rotational temperatures (Kelvin)     10.94999     4.81449     4.81449
 Rotational constants (GHZ):         228.16103   100.31786   100.31786
 Zero-point vibrational energy      72184.0 (Joules/Mol)
                                   17.25240 (Kcal/Mol)
 Vibrational temperatures:    901.73   901.73  1323.72  1516.79  1751.75
          (Kelvin)           2209.06  2209.06  3135.90  3413.73

 Zero-point correction=                           0.027493 (Hartree/Particle)
 Thermal correction to Energy=                    0.030722
 Thermal correction to Enthalpy=                  0.031666
 Thermal correction to Gibbs Free Energy=         0.007736
 Sum of electronic and zero-point Energies=            -39.214997
 Sum of electronic and thermal Energies=               -39.211768
 Sum of electronic and thermal Enthalpies=             -39.210824
 Sum of electronic and thermal Free Energies=          -39.234754

                     E (Thermal)             CV                S
                      KCal/Mol        Cal/Mol-Kelvin    Cal/Mol-Kelvin
 Total                   19.278              9.042             50.366
 Electronic               0.000              0.000              2.183
 Translational            0.889              2.981             34.261
 Rotational               0.889              2.981             12.846
 Vibrational             17.501              3.081              1.075

 Optimization completed.
    -- Stationary point found.
 Normal termination of Gaussian 09 at Mon Jun 20 13:15:21 2016.
