 Gaussian 09, Revision E.01,
 Gaussian 09:  EM64L-G09RevE.01 30-Nov-2015

 ------------------------------
 #p b3lyp/6-311++G(3df,2p) freq
 ------------------------------

 ---------
 b3lyp opt
 ---------
 Symbolic Z-matrix:
 Charge =  0 Multiplicity = 1

                         Standard orientation:
 ---------------------------------------------------------------------
 Center     Atomic      Atomic             Coordinates (Angstroms)
 Number     Number       Type             X           Y           Z
 ---------------------------------------------------------------------
      1          6           0        0.000000    0.000000    0.000000
      2          1           0        0.628232    0.628232    0.628232
      3          1           0       -0.628232   -0.628232    0.628232
      4          1           0       -0.628232    0.628232   -0.628232
      5          1           0        0.628232   -0.628232   -0.628232
 ---------------------------------------------------------------------

 SCF Done:  E(RB3LYP) =  -40.5367978719     A.U. after    7 cycles

 The electronic state is 1-A1.
 Alpha  occ. eigenvalues --  -10.15064  -0.69720  -0.39577  -0.39577  -0.39577
 Alpha virt. eigenvalues --   -0.00544   0.03943   0.03943   0.03943   0.08946
 Alpha virt. eigenvalues --    0.08946   0.08946   0.12279   0.18960   0.18960
 Alpha virt. eigenvalues --    0.18960   0.27237   0.27795   0.27795   0.34221

 Mulliken charges:
               1
     1  C   -0.538555
     2  H    0.134639
     3  H    0.134639
     4  H    0.134639
     5  H    0.134639
 Sum of Mulliken charges =  -0.00000

 Dipole moment (field-independent basis, Debye):
    X=              0.0000    Y=              0.0000    Z=             -0.0000  Tot=              0.0000
 Quadrupole moment (field-independent basis, Debye-Ang):
   XX=             -8.4913   YY=             -8.4913   ZZ=             -8.4913
   XY=              0.0000   XZ=              0.0000   YZ=              0.0000

  Exact polarizability:  16.560   0.000  16.560   0.000   0.000  16.560
 Approx polarizability:  20.671   0.000  20.671  -0.000   0.000  20.671

                      1                      2                      3
                     T2                     T2                     T2
 Frequencies --   1342.5649              1342.5649              1342.5649
 Red. masses --      1.1800                 1.1800                 1.1800
 Frc consts  --      1.2532                 1.2532                 1.2532
 IR Inten    --     12.1424                12.1424                12.1424

                      4                      5                      6
                      E                      E                     A1
 Frequencies --   1560.5794              1560.5794              3026.4572
 Red. masses --      1.0078                 1.0078                 1.0078
 Frc consts  --      1.4461                 1.4461                 5.4388
 IR Inten    --      0.0000                 0.0000                 0.0000

                      7                      8                      9
                     T2                     T2                     T2
 Frequencies --   3128.8057              3128.8057              3128.8057
 Red. masses --      1.1008                 1.1008                 1.1008
 Frc consts  --      6.3489                 6.3489                 6.3489
 IR Inten    --     22.8608                22.8607                22.8607

 - Thermochemistry -
 -------------------
 Temperature   298.150 Kelvin.  Pressure   1.00000 Atm.
 Atom     1 has atomic number  6 and mass  12.00000

 Molecular mass:    16.03130 amu.
 Principal axes and moments of inertia in atomic units:
                           1         2         3
     Eigenvalues --    11.36352  11.36352  11.36352
           X            0.01420   0.57348   0.81909
           Y            0.99970  -0.02464  -0.00008
           Z            0.02014   0.81885  -0.57366
 This molecule is a spherical top.
 Rotational symmetry number 12.
 Rotational temperatures (Kelvin)      7.62210     7.62210     7.62210
 Rotational constants (GHZ):         158.81890   158.81890   158.81890
 Zero-point vibrational energy     117005.1 (Joules/Mol)
                                   27.96489 (Kcal/Mol)
 Vibrational temperatures:   1931.65  1931.65  1931.65  2245.32  2245.32
          (Kelvin)           4354.39  4501.65  4501.65  4501.65

 Zero-point correction=                           0.044565 (Hartree/Particle)
 Thermal correction to Energy=                    0.047433
 Thermal correction to Enthalpy=                  0.048378
 Thermal correction to Gibbs Free Energy=         0.027254
 Sum of electronic and zero-point Energies=            -40.492233
 Sum of electronic and thermal Energies=               -40.489365
 Sum of electronic and thermal Enthalpies=             -40.488420
 Sum of electronic and thermal Free Energies=          -40.509544

                     E (Thermal)             CV                S
                      KCal/Mol        Cal/Mol-Kelvin    Cal/Mol-Kelvin
 Total                   29.765              6.469             44.458
 Electronic               0.000              0.000              0.000
 Translational            0.889              2.981             34.261
 Rotational               0.889              2.981             10.109
 Vibrational             27.987              0.507              0.087

 Optimization completed.
    -- Stationary point found.
 Normal termination of Gaussian 09 at Thu Jul  7 22:47:30 2016.
