 Gaussian 09, Revision E.01,
 Gaussian 09:  EM64L-G09RevE.01 30-Nov-2015

 ---------------------------------------------
 #p b3lyp/6-311++G(3df,2p) freq symmetry=Loose
 ---------------------------------------------

 ---------
 b3lyp opt
 ---------
 Symbolic Z-matrix:
 Charge =  1 Multiplicity = 2

                         Standard orientation:
 ---------------------------------------------------------------------
 Center     Atomic      Atomic             Coordinates (Angstroms)
 Number     Number       Type             X           Y           Z
 ---------------------------------------------------------------------
      1          6           0        0.000000    0.000000    0.000000
      2          1           0        0.000000    1.055625    0.373451
      3          1           0       -0.000000   -1.055625    0.373451
      4          1           0       -1.055625    0.000000   -0.373451
      5          1           0        1.055625   -0.000000   -0.373451
 ---------------------------------------------------------------------

 SCF Done:  E(UB3LYP) =  -40.0700873179     A.U. after    8 cycles

 The electronic state is 2-B2.
 Alpha  occ. eigenvalues --  -10.55120  -1.07261  -0.79258  -0.79258  -0.67474
 Alpha virt. eigenvalues --   -0.25601  -0.21967  -0.14696  -0.14696  -0.12076
 Alpha virt. eigenvalues --   -0.09295  -0.09295  -0.06971  -0.04422  -0.03697
 Alpha virt. eigenvalues --   -0.02405  -0.01695  -0.01695   0.10765   0.12957

  Beta  occ. eigenvalues --  -10.54119  -1.02961  -0.76898  -0.76898
  Beta virt. eigenvalues --   -0.52776  -0.23089  -0.20979  -0.14335  -0.14335
  Beta virt. eigenvalues --   -0.11044  -0.08423  -0.08423  -0.05358  -0.04044
  Beta virt. eigenvalues --   -0.03065  -0.02203  -0.01238  -0.01238   0.11487

 Mulliken charges and spin densities:
               1          2
     1  C   -0.190263   0.635337
     2  H    0.297566   0.091166
     3  H    0.297566   0.091166
     4  H    0.297566   0.091166
     5  H    0.297566   0.091166
 Sum of Mulliken charges =   1.00000   1.00000

 Dipole moment (field-independent basis, Debye):
    X=              0.0000    Y=             -0.0000    Z=             -0.0000  Tot=              0.0000
 Quadrupole moment (field-independent basis, Debye-Ang):
   XX=             -3.8436   YY=             -3.8436   ZZ=             -6.1778
   XY=             -0.0000   XZ=             -0.0000   YZ=              0.0000

  Exact polarizability:  14.011   0.000  14.011   0.000  -0.000  10.178
 Approx polarizability:  18.882  -0.000  18.882   0.000  -0.000  12.802

                      1                      2                      3
                      E                      E                     B2
 Frequencies --    358.1058               358.1058              1064.8487
 Red. masses --      1.1740                 1.1740                 1.2634
 Frc consts  --      0.0887                 0.0887                 0.8440
 IR Inten    --    325.7912               325.7912                77.4265

                      4                      5                      6
                     A1                     B1                     B2
 Frequencies --   1296.0774              1446.5416              2667.0412
 Red. masses --      1.0078                 1.0078                 1.0369
 Frc consts  --      0.9975                 1.2425                 4.3456
 IR Inten    --      0.0000                 0.0000                86.6184

                      7                      8                      9
                     A1                      E                      E
 Frequencies --   2801.2550              2863.5457              2863.5457
 Red. masses --      1.0078                 1.1061                 1.1061
 Frc consts  --      4.6595                 5.3437                 5.3437
 IR Inten    --      0.0000               318.8497               318.8497

 - Thermochemistry -
 -------------------
 Temperature   298.150 Kelvin.  Pressure   1.00000 Atm.
 Atom     1 has atomic number  6 and mass  12.00000

 Molecular mass:    16.03130 amu.
 Principal axes and moments of inertia in atomic units:
                           1         2         3
     Eigenvalues --    10.02882  10.02882  16.04214
           X            0.67081   0.74163   0.00000
           Y            0.74163  -0.67081   0.00000
           Z           -0.00000  -0.00000   1.00000
 This molecule is an oblate symmetric top.
 Rotational symmetry number  4.
 Rotational temperatures (Kelvin)      8.63649     8.63649     5.39914
 Rotational constants (GHZ):         179.95548   179.95548   112.50005
 Zero-point vibrational energy      94020.9 (Joules/Mol)
                                   22.47153 (Kcal/Mol)
 Warning -- explicit consideration of   2 degrees of freedom as
           vibrations may cause significant error
 Vibrational temperatures:    515.23   515.23  1532.08  1864.76  2081.25
          (Kelvin)           3837.27  4030.38  4120.00  4120.00

 Zero-point correction=                           0.035811 (Hartree/Particle)
 Thermal correction to Energy=                    0.039394
 Thermal correction to Enthalpy=                  0.040338
 Thermal correction to Gibbs Free Energy=         0.016391
 Sum of electronic and zero-point Energies=            -40.034277
 Sum of electronic and thermal Energies=               -40.030693
 Sum of electronic and thermal Enthalpies=             -40.029749
 Sum of electronic and thermal Free Energies=          -40.053696

                     E (Thermal)             CV                S
                      KCal/Mol        Cal/Mol-Kelvin    Cal/Mol-Kelvin
 Total                   24.720              9.633             50.401
 Electronic               0.000              0.000              1.377
 Translational            0.889              2.981             34.261
 Rotational               0.889              2.981             12.387
 Vibrational             22.943              3.671              2.375
 Vibration     1          0.733              1.559              1.130
 Vibration     2          0.733              1.559              1.130

 Optimization completed.
    -- Stationary point found.
 Normal termination of Gaussian 09 at Mon Jun 20 13:15:21 2016.
