 Gaussian 09, Revision E.01,
 Gaussian 09:  EM64L-G09RevE.01 30-Nov-2015

 ---------------------------------------------
 #p b3lyp/6-311++G(3df,2p) freq symmetry=Loose
 ---------------------------------------------

 ---------
 b3lyp opt
 ---------
 Symbolic Z-matrix:
 Charge =  2 Multiplicity = 3

                         Standard orientation:
 ---------------------------------------------------------------------
 Center     Atomic      Atomic             Coordinates (Angstroms)
 Number     Number       Type             X           Y           Z
 ---------------------------------------------------------------------
      1          6           0       -0.000000    0.000000    0.676352
      2          1           0       -0.000000    0.902089    1.416833
      3          1           0       -0.000000   -0.902089    1.416833
      4          6           0        0.000000   -0.000000   -0.676352
      5          1           0       -0.000000   -0.902089   -1.416833
      6          1           0        0.000000    0.902089   -1.416833
 ---------------------------------------------------------------------

 SCF Done:  E(UB3LYP) =  -77.4833178312     A.U. after    9 cycles

 The electronic state is 3-AU.
 Alpha  occ. eigenvalues --  -10.87775 -10.87709  -1.41990  -1.21717  -1.08590
 Alpha  occ. eigenvalues --   -1.07166  -0.95812  -0.93512
 Alpha virt. eigenvalues --   -0.63997  -0.46179  -0.42206  -0.41082  -0.32773
 Alpha virt. eigenvalues --   -0.31413  -0.29767  -0.29167  -0.28691  -0.26072
 Alpha virt. eigenvalues --   -0.23683  -0.22989  -0.22491  -0.17753  -0.15779

  Beta  occ. eigenvalues --  -10.86627 -10.86563  -1.36765  -1.16461  -1.05587
  Beta  occ. eigenvalues --   -1.00812
  Beta virt. eigenvalues --   -0.83946  -0.78581  -0.56441  -0.42925  -0.39536
  Beta virt. eigenvalues --   -0.39135  -0.31414  -0.28766  -0.28732  -0.28283
  Beta virt. eigenvalues --   -0.27974  -0.24539  -0.21962  -0.21589  -0.21431

 Mulliken charges and spin densities:
               1          2
     1  C    0.273670   0.712278
     2  H    0.363165   0.143861
     3  H    0.363165   0.143861
     4  C    0.273670   0.712278
     5  H    0.363165   0.143861
     6  H    0.363165   0.143861
 Sum of Mulliken charges =   2.00000   2.00000

 Dipole moment (field-independent basis, Debye):
    X=              0.0000    Y=              0.0000    Z=              0.0000  Tot=              0.0000
 Quadrupole moment (field-independent basis, Debye-Ang):
   XX=             -9.9152   YY=             -4.1685   ZZ=              5.6580
   XY=              0.0000   XZ=             -0.0000   YZ=             -0.0000

  Exact polarizability:  11.309   0.000  17.862   0.000   0.000  35.677
 Approx polarizability:  15.281   0.000  25.056  -0.000   0.000  66.173

                      1                      2                      3
                     B1U                    B3G                    B2U
 Frequencies --    405.4373               480.3117               521.0158
 Red. masses --      1.1251                 1.7876                 1.0677
 Frc consts  --      0.1090                 0.2430                 0.1708
 IR Inten    --   1872.2392                 0.0000               116.8229

                      4                      5                      6
                     B3U                    B2G                    AU
 Frequencies --    727.3608               843.9535               900.0690
 Red. masses --      1.1607                 1.6486                 1.0078
 Frc consts  --      0.3618                 0.6918                 0.4810
 IR Inten    --    171.7240                 0.0000                 0.0000

                      7                      8                      9
                     AG                     AG                     B3G
 Frequencies --   1152.9684              1500.0479              2150.6323
 Red. masses --      1.0384                 4.2365                 1.0389
 Frc consts  --      0.8133                 5.6166                 2.8310
 IR Inten    --      0.0000                 0.0000                 0.0000

                     10                     11                     12
                     B1U                    B2U                    AG
 Frequencies --   2230.1689              2275.5386              2647.3333
 Red. masses --      1.0363                 1.0903                 1.1511
 Frc consts  --      3.0368                 3.3265                 4.7531
 IR Inten    --   1945.8562              1151.9984                 0.0000

 - Thermochemistry -
 -------------------
 Temperature   298.150 Kelvin.  Pressure   1.00000 Atm.
 Atom     1 has atomic number  6 and mass  12.00000

 Molecular mass:    28.03130 amu.
 Principal axes and moments of inertia in atomic units:
                           1         2         3
     Eigenvalues --    11.71499  68.10501  79.81999
           X           -0.00000   0.00000   1.00000
           Y           -0.00000   1.00000  -0.00000
           Z            1.00000   0.00000   0.00000
 This molecule is an asymmetric top.
 Rotational symmetry number  4.
 Rotational temperatures (Kelvin)      7.39342     1.27177     1.08511
 Rotational constants (GHZ):         154.05404    26.49939    22.61014
 Zero-point vibrational energy      94713.4 (Joules/Mol)
                                   22.63704 (Kcal/Mol)
 Warning -- explicit consideration of   3 degrees of freedom as
           vibrations may cause significant error
 Vibrational temperatures:    583.33   691.06   749.62  1046.51  1214.26
          (Kelvin)           1295.00  1658.86  2158.23  3094.28  3208.71
                             3273.99  3808.92

 Zero-point correction=                           0.036074 (Hartree/Particle)
 Thermal correction to Energy=                    0.039908
 Thermal correction to Enthalpy=                  0.040852
 Thermal correction to Gibbs Free Energy=         0.013740
 Sum of electronic and zero-point Energies=            -77.447243
 Sum of electronic and thermal Energies=               -77.443410
 Sum of electronic and thermal Enthalpies=             -77.442466
 Sum of electronic and thermal Free Energies=          -77.469578

                     E (Thermal)             CV                S
                      KCal/Mol        Cal/Mol-Kelvin    Cal/Mol-Kelvin
 Total                   25.043             12.105             57.062
 Electronic               0.000              0.000              2.183
 Translational            0.889              2.981             35.927
 Rotational               0.889              2.981             16.039
 Vibrational             23.265              6.143              2.913
 Vibration     1          0.770              1.458              0.943
 Vibration     2          0.837              1.294              0.709
 Vibration     3          0.876              1.203              0.608

 Optimization completed.
    -- Stationary point found.
 Normal termination of Gaussian 09 at Tue Jul 19 16:06:04 2016.
