 Gaussian 09, Revision E.01,
 Gaussian 09:  EM64L-G09RevE.01 30-Nov-2015

 ---------------------------------------------
 #p b3lyp/6-311++G(3df,2p) freq symmetry=Loose
 ---------------------------------------------

 ---------
 b3lyp opt
 ---------
 Symbolic Z-matrix:
 Charge =  0 Multiplicity = 1

                         Standard orientation:
 ---------------------------------------------------------------------
 Center     Atomic      Atomic             Coordinates (Angstroms)
 Number     Number       Type             X           Y           Z
 ---------------------------------------------------------------------
      1          6           0        0.000000   -0.000000    0.662415
      2          1           0        0.000000    0.920368    1.232430
      3          1           0       -0.000000   -0.920368    1.232430
      4          6           0        0.000000    0.000000   -0.662415
      5          1           0       -0.000000   -0.920368   -1.232430
      6          1           0        0.000000    0.920368   -1.232430
 ---------------------------------------------------------------------

 SCF Done:  E(RB3LYP) =  -78.6212157341     A.U. after    8 cycles

 The electronic state is 1-AG.
 Alpha  occ. eigenvalues --  -10.17242 -10.17160  -0.76756  -0.58540  -0.47562
 Alpha  occ. eigenvalues --   -0.42837  -0.36077  -0.28244
 Alpha virt. eigenvalues --   -0.01080   0.00053   0.01874   0.02215   0.05379
 Alpha virt. eigenvalues --    0.06559   0.07903   0.10983   0.12371   0.12709
 Alpha virt. eigenvalues --    0.14223   0.14950   0.15101   0.16389   0.17075

 Mulliken charges:
               1
     1  C   -0.268273
     2  H    0.134136
     3  H    0.134136
     4  C   -0.268273
     5  H    0.134136
     6  H    0.134136
 Sum of Mulliken charges =  -0.00000

 Dipole moment (field-independent basis, Debye):
    X=             -0.0000    Y=              0.0000    Z=              0.0000  Tot=              0.0000
 Quadrupole moment (field-independent basis, Debye-Ang):
   XX=            -15.8042   YY=            -12.5032   ZZ=            -12.3935
   XY=              0.0000   XZ=              0.0000   YZ=              0.0000

  Exact polarizability:  22.193   0.000  24.578  -0.000  -0.000  35.442
 Approx polarizability:  28.901   0.000  32.061  -0.000   0.000  52.604

                      1                      2                      3
                     B2U                    B3U                    B2G
 Frequencies --    835.8738               979.1236               985.9972
 Red. masses --      1.0427                 1.1607                 1.5196
 Frc consts  --      0.4292                 0.6556                 0.8704
 IR Inten    --      0.0717                98.7149                 0.0000

                      4                      5                      6
                     AU                     B3G                    AG
 Frequencies --   1062.8765              1245.3103              1381.4860
 Red. masses --      1.0078                 1.5266                 1.2272
 Frc consts  --      0.6708                 1.3949                 1.3799
 IR Inten    --      0.0000                 0.0000                 0.0000

                      7                      8                      9
                     B1U                    AG                     B1U
 Frequencies --   1478.5238              1688.6431              3122.1742
 Red. masses --      1.1118                 3.1191                 1.0478
 Frc consts  --      1.4320                 5.2403                 6.0180
 IR Inten    --     10.0044                 0.0000                16.4420

                     10                     11                     12
                     AG                     B3G                    B2U
 Frequencies --   3137.4855              3192.0450              3220.5709
 Red. masses --      1.0726                 1.1143                 1.1176
 Frc consts  --      6.2209                 6.6892                 6.8299
 IR Inten    --      0.0000                 0.0000                20.2100

 - Thermochemistry -
 -------------------
 Temperature   298.150 Kelvin.  Pressure   1.00000 Atm.
 Atom     1 has atomic number  6 and mass  12.00000

 Molecular mass:    28.03130 amu.
 Principal axes and moments of inertia in atomic units:
                           1         2         3
     Eigenvalues --    12.19457  59.47295  71.66752
           X            0.00000  -0.00000   1.00000
           Y            0.00000   1.00000   0.00000
           Z            1.00000  -0.00000  -0.00000
 This molecule is an asymmetric top.
 Rotational symmetry number  4.
 Rotational temperatures (Kelvin)      7.10266     1.45636     1.20855
 Rotational constants (GHZ):         147.99552    30.34558    25.18214
 Zero-point vibrational energy     133563.7 (Joules/Mol)
                                   31.92249 (Kcal/Mol)
 Vibrational temperatures:   1202.63  1408.74  1418.63  1529.24  1791.72
          (Kelvin)           1987.65  2127.26  2429.58  4492.11  4514.14
                             4592.64  4633.68

 Zero-point correction=                           0.050872 (Hartree/Particle)
 Thermal correction to Energy=                    0.053910
 Thermal correction to Enthalpy=                  0.054854
 Thermal correction to Gibbs Free Energy=         0.030010
 Sum of electronic and zero-point Energies=            -78.570344
 Sum of electronic and thermal Energies=               -78.567306
 Sum of electronic and thermal Enthalpies=             -78.566361
 Sum of electronic and thermal Free Energies=          -78.591206

                     E (Thermal)             CV                S
                      KCal/Mol        Cal/Mol-Kelvin    Cal/Mol-Kelvin
 Total                   33.829              8.071             52.289
 Electronic               0.000              0.000              0.000
 Translational            0.889              2.981             35.927
 Rotational               0.889              2.981             15.837
 Vibrational             32.052              2.109              0.525

 Optimization completed.
    -- Stationary point found.
 Normal termination of Gaussian 09 at Tue Jul 19 16:49:04 2016.
