 Gaussian 09, Revision E.01,
 Gaussian 09:  EM64L-G09RevE.01 30-Nov-2015

 ---------------------------------------------
 #p b3lyp/6-311++G(3df,2p) freq symmetry=Loose
 ---------------------------------------------

 ---------
 b3lyp opt
 ---------
 Symbolic Z-matrix:
 Charge =  0 Multiplicity = 1

                         Standard orientation:
 ---------------------------------------------------------------------
 Center     Atomic      Atomic             Coordinates (Angstroms)
 Number     Number       Type             X           Y           Z
 ---------------------------------------------------------------------
      1          6           0       -0.590438    0.022092   -0.031231
      2          1           0       -1.204844   -0.840146   -0.289281
      3          1           0       -1.023484    0.965177   -0.384098
      4          1           0       -0.606231    0.076030    1.090359
      5          6           0        0.843747   -0.190591   -0.039126
      6          1           0        1.314707    0.809928    0.005163
 ---------------------------------------------------------------------

 SCF Done:  E(RB3LYP) =  -78.4998261223     A.U. after   10 cycles

 The electronic state is 1-A.
 Alpha  occ. eigenvalues --  -10.21355 -10.19157  -0.78929  -0.58542  -0.45853
 Alpha  occ. eigenvalues --   -0.43729  -0.38169  -0.22552
 Alpha virt. eigenvalues --   -0.09267  -0.01074   0.01642   0.02488   0.03582
 Alpha virt. eigenvalues --    0.06702   0.07951   0.08917   0.10636   0.11163
 Alpha virt. eigenvalues --    0.11992   0.13543   0.14682   0.15475   0.17370

 Mulliken charges:
               1
     1  C   -0.168975
     2  H    0.163463
     3  H    0.125804
     4  H    0.157049
     5  C   -0.447052
     6  H    0.169711
 Sum of Mulliken charges =   0.00000

 Dipole moment (field-independent basis, Debye):
    X=             -1.7974    Y=              1.6747    Z=              0.2435  Tot=              2.4687
 Quadrupole moment (field-independent basis, Debye-Ang):
   XX=            -16.1337   YY=            -15.4931   ZZ=            -13.1372
   XY=              2.5987   XZ=             -0.2757   YZ=              0.0534

  Exact polarizability:  34.352  -1.160  28.357  -0.225   0.161  24.800
 Approx polarizability:  43.407  -0.565  36.091  -1.567   0.690  36.924

                      1                      2                      3
                      A                      A                      A
 Frequencies --    450.6131               620.2381               956.0853
 Red. masses --      1.3073                 1.0836                 1.0633
 Frc consts  --      0.1564                 0.2456                 0.5727
 IR Inten    --      6.7748                40.8896                21.5074

                      4                      5                      6
                      A                      A                      A
 Frequencies --   1126.1118              1257.0609              1300.9432
 Red. masses --      3.0658                 1.3094                 1.3353
 Frc consts  --      2.2907                 1.2191                 1.3315
 IR Inten    --      4.0067                11.8047                43.7339

                      7                      8                      9
                      A                      A                      A
 Frequencies --   1346.0437              1509.8759              2814.8208
 Red. masses --      1.0551                 1.1296                 1.0626
 Frc consts  --      1.1263                 1.5173                 4.9604
 IR Inten    --      9.7270                 3.9707                17.7322

                     10                     11                     12
                      A                      A                      A
 Frequencies --   2921.0635              2989.6191              3080.8280
 Red. masses --      1.0821                 1.0673                 1.0983
 Frc consts  --      5.4403                 5.6206                 6.1418
 IR Inten    --     76.6315                51.2535                19.6453

 - Thermochemistry -
 -------------------
 Temperature   298.150 Kelvin.  Pressure   1.00000 Atm.
 Atom     1 has atomic number  6 and mass  12.00000

 Molecular mass:    28.03130 amu.
 Principal axes and moments of inertia in atomic units:
                           1         2         3
     Eigenvalues --    14.68414  67.12461  71.42112
           X            0.99775   0.06702   0.00296
           Y           -0.06696   0.99760  -0.01765
           Z           -0.00414   0.01741   0.99984
 This molecule is an asymmetric top.
 Rotational symmetry number  1.
 Rotational temperatures (Kelvin)      5.89846     1.29034     1.21272
 Rotational constants (GHZ):         122.90407    26.88643    25.26901
 Zero-point vibrational energy     121859.4 (Joules/Mol)
                                   29.12510 (Kcal/Mol)
 Warning -- explicit consideration of   2 degrees of freedom as
           vibrations may cause significant error
 Vibrational temperatures:    648.33   892.38  1375.59  1620.22  1808.63
          (Kelvin)           1871.76  1936.65  2172.37  4049.89  4202.75
                             4301.39  4432.62

 Zero-point correction=                           0.046414 (Hartree/Particle)
 Thermal correction to Energy=                    0.049763
 Thermal correction to Enthalpy=                  0.050708
 Thermal correction to Gibbs Free Energy=         0.023962
 Sum of electronic and zero-point Energies=            -78.453412
 Sum of electronic and thermal Energies=               -78.450063
 Sum of electronic and thermal Enthalpies=             -78.449119
 Sum of electronic and thermal Free Energies=          -78.475865

                     E (Thermal)             CV                S
                      KCal/Mol        Cal/Mol-Kelvin    Cal/Mol-Kelvin
 Total                   31.227              9.515             56.292
 Electronic               0.000              0.000              0.000
 Translational            0.889              2.981             35.927
 Rotational               0.889              2.981             18.893
 Vibrational             29.450              3.553              1.471
 Vibration     1          0.809              1.360              0.794
 Vibration     2          0.980              0.989              0.416

 Optimization completed.
    -- Stationary point found.
 Normal termination of Gaussian 09 at Sun Jun 19 15:01:57 2016.
