 Gaussian 09, Revision E.01,
 Gaussian 09:  EM64L-G09RevE.01 30-Nov-2015

 ---------------------------------------------
 #p b3lyp/6-311++G(3df,2p) freq symmetry=Loose
 ---------------------------------------------

 ---------
 b3lyp opt
 ---------
 Symbolic Z-matrix:
 Charge =  2 Multiplicity = 3

                         Standard orientation:
 ---------------------------------------------------------------------
 Center     Atomic      Atomic             Coordinates (Angstroms)
 Number     Number       Type             X           Y           Z
 ---------------------------------------------------------------------
      1          6           0       -0.542179   -0.139557   -0.017605
      2          1           0       -1.467877    0.780408    0.386453
      3          1           0       -1.190524   -1.038610   -0.024237
      4          1           0       -0.998265    1.058778   -0.348607
      5          6           0        0.854158   -0.079942    0.005570
      6          1           0        1.784793    0.516420    0.058603
 ---------------------------------------------------------------------

 SCF Done:  E(UB3LYP) =  -77.4420862029     A.U. after   12 cycles

 The electronic state is 3-A.
 Alpha  occ. eigenvalues --  -10.90504 -10.88853  -1.42770  -1.23330  -1.11005
 Alpha  occ. eigenvalues --   -1.05422  -0.94702  -0.85730
 Alpha virt. eigenvalues --   -0.66794  -0.56135  -0.47370  -0.41956  -0.35501
 Alpha virt. eigenvalues --   -0.33060  -0.32130  -0.28208  -0.27933  -0.26221
 Alpha virt. eigenvalues --   -0.22889  -0.22678  -0.20282  -0.17795  -0.15409

  Beta  occ. eigenvalues --  -10.89404 -10.86730  -1.37405  -1.19267  -1.08814
  Beta  occ. eigenvalues --   -1.03594
  Beta virt. eigenvalues --   -0.79525  -0.67771  -0.59742  -0.52427  -0.44505
  Beta virt. eigenvalues --   -0.39599  -0.34383  -0.32240  -0.31342  -0.27180
  Beta virt. eigenvalues --   -0.26415  -0.24862  -0.22002  -0.21681  -0.19888

 Mulliken charges and spin densities:
               1          2
     1  C    0.152385   0.663315
     2  H    0.324691   0.101550
     3  H    0.343772   0.008993
     4  H    0.288281   0.033599
     5  C    0.484011   1.200377
     6  H    0.406859  -0.007835
 Sum of Mulliken charges =   2.00000   2.00000

 Dipole moment (field-independent basis, Debye):
    X=             -1.9534    Y=              1.9631    Z=              0.1404  Tot=              2.7730
 Quadrupole moment (field-independent basis, Debye-Ang):
   XX=              4.6321   YY=             -5.1996   ZZ=             -9.1452
   XY=             -0.6760   XZ=             -0.3484   YZ=             -0.1208

  Exact polarizability:  27.309  -1.739  16.453  -0.336  -0.095  12.285
 Approx polarizability:  39.370  -4.217  22.268  -0.842  -0.333  17.157

                      1                      2                      3
                      A                      A                      A
 Frequencies --    200.5868               513.0981               680.4191
 Red. masses --      1.0322                 1.1848                 1.2423
 Frc consts  --      0.0245                 0.1838                 0.3389
 IR Inten    --     23.7884                49.3635                47.7503

                      4                      5                      6
                      A                      A                      A
 Frequencies --    730.7318               833.8189               970.8385
 Red. masses --      1.3489                 1.5572                 1.2119
 Frc consts  --      0.4244                 0.6379                 0.6730
 IR Inten    --     49.6570                16.9149                74.9411

                      7                      8                      9
                      A                      A                      A
 Frequencies --   1206.5362              1241.2997              1446.9813
 Red. masses --      1.7162                 1.1199                 1.3913
 Frc consts  --      1.4720                 1.0166                 1.7163
 IR Inten    --     47.6784                53.0546                49.1656

                     10                     11                     12
                      A                      A                      A
 Frequencies --   2665.4053              2956.2092              3008.7522
 Red. masses --      1.0173                 1.0917                 1.1128
 Frc consts  --      4.2581                 5.6210                 5.9352
 IR Inten    --    249.1633               402.0829               198.8474

 - Thermochemistry -
 -------------------
 Temperature   298.150 Kelvin.  Pressure   1.00000 Atm.
 Atom     1 has atomic number  6 and mass  12.00000

 Molecular mass:    28.03130 amu.
 Principal axes and moments of inertia in atomic units:
                           1         2         3
     Eigenvalues --    12.95769  72.33599  83.29015
           X            0.99996  -0.00786  -0.00455
           Y            0.00785   0.99997  -0.00262
           Z            0.00457   0.00259   0.99999
 This molecule is an asymmetric top.
 Rotational symmetry number  1.
 Rotational temperatures (Kelvin)      6.68436     1.19738     1.03990
 Rotational constants (GHZ):         139.27954    24.94942    21.66812
 Zero-point vibrational energy      98420.8 (Joules/Mol)
                                   23.52314 (Kcal/Mol)
 Warning -- explicit consideration of   2 degrees of freedom as
           vibrations may cause significant error
 Vibrational temperatures:    288.60   738.23   978.97  1051.36  1199.68
          (Kelvin)           1396.82  1735.93  1785.95  2081.88  3834.92
                             4253.32  4328.92

 Zero-point correction=                           0.037487 (Hartree/Particle)
 Thermal correction to Energy=                    0.041462
 Thermal correction to Enthalpy=                  0.042406
 Thermal correction to Gibbs Free Energy=         0.013500
 Sum of electronic and zero-point Energies=            -77.404600
 Sum of electronic and thermal Energies=               -77.400624
 Sum of electronic and thermal Enthalpies=             -77.399680
 Sum of electronic and thermal Free Energies=          -77.428586

                     E (Thermal)             CV                S
                      KCal/Mol        Cal/Mol-Kelvin    Cal/Mol-Kelvin
 Total                   26.018             12.139             60.839
 Electronic               0.000              0.000              2.183
 Translational            0.889              2.981             35.927
 Rotational               0.889              2.981             18.996
 Vibrational             24.241              6.177              3.732
 Vibration     1          0.638              1.839              2.128
 Vibration     2          0.868              1.221              0.626

 Normal termination of Gaussian 09 at Tue Jun 21 20:24:27 2016.
