 Gaussian 09, Revision E.01,
 Gaussian 09:  EM64L-G09RevE.01 30-Nov-2015

 ---------------------------------------------
 #p b3lyp/6-311++G(3df,2p) freq symmetry=Loose
 ---------------------------------------------

 ---------
 b3lyp opt
 ---------
 Symbolic Z-matrix:
 Charge =  0 Multiplicity = 3

                         Standard orientation:
 ---------------------------------------------------------------------
 Center     Atomic      Atomic             Coordinates (Angstroms)
 Number     Number       Type             X           Y           Z
 ---------------------------------------------------------------------
      1          6           0        0.611241   -0.025491    0.000033
      2          1           0        1.122787    0.940899   -0.003698
      3          1           0        0.963485   -0.576747   -0.882862
      4          1           0        0.963689   -0.569686    0.886892
      5          6           0       -0.838522    0.146709   -0.000182
      6          1           0       -1.686276   -0.521775    0.000564
 ---------------------------------------------------------------------

 SCF Done:  E(UB3LYP) =  -78.5068669738     A.U. after   11 cycles

 The electronic state is 3-A.
 Alpha  occ. eigenvalues --  -10.20005 -10.18084  -0.77091  -0.60372  -0.44642
 Alpha  occ. eigenvalues --   -0.43262  -0.41345  -0.24931  -0.21258
 Alpha virt. eigenvalues --   -0.00483   0.01638   0.03142   0.03466   0.07577
 Alpha virt. eigenvalues --    0.08558   0.09419   0.09525   0.10207   0.12300
 Alpha virt. eigenvalues --    0.13508   0.14647   0.16210   0.17516   0.18654

  Beta  occ. eigenvalues --  -10.18142 -10.17196  -0.74540  -0.55292  -0.42661
  Beta  occ. eigenvalues --   -0.41530  -0.39918
  Beta virt. eigenvalues --   -0.07607  -0.04772  -0.00326   0.01885   0.03246
  Beta virt. eigenvalues --    0.03602   0.07651   0.09312   0.10022   0.10104
  Beta virt. eigenvalues --    0.11645   0.12493   0.14078   0.15228   0.17198

 Mulliken charges and spin densities:
               1          2
     1  C   -0.243329  -0.136917
     2  H    0.148019   0.028815
     3  H    0.142496   0.068616
     4  H    0.142633   0.068573
     5  C   -0.363096   1.966267
     6  H    0.173277   0.004646
 Sum of Mulliken charges =  -0.00000   2.00000

 Dipole moment (field-independent basis, Debye):
    X=              0.6947    Y=             -0.6397    Z=              0.0009  Tot=              0.9444
 Quadrupole moment (field-independent basis, Debye-Ang):
   XX=            -13.6371   YY=            -14.0927   ZZ=            -14.6419
   XY=              1.2022   XZ=             -0.0017   YZ=             -0.0004

  Exact polarizability:  32.282  -0.445  24.468  -0.000   0.004  25.026
 Approx polarizability:  38.397  -0.237  31.512  -0.001   0.005  31.960

                      1                      2                      3
                      A                      A                      A
 Frequencies --    169.2666               756.9668               992.5809
 Red. masses --      1.1165                 1.0622                 1.3193
 Frc consts  --      0.0188                 0.3586                 0.7658
 IR Inten    --     31.0616                10.8127                 1.1522

                      4                      5                      6
                      A                      A                      A
 Frequencies --   1067.9141              1100.6295              1388.4900
 Red. masses --      1.5263                 4.2195                 1.2072
 Frc consts  --      1.0256                 3.0115                 1.3713
 IR Inten    --      1.5896                 0.0788                 1.9132

                      7                      8                      9
                      A                      A                      A
 Frequencies --   1451.7012              1451.7614              2942.3737
 Red. masses --      1.0451                 1.0415                 1.0394
 Frc consts  --      1.2976                 1.2933                 5.3018
 IR Inten    --      6.7713                 6.5672                23.4028

                     10                     11                     12
                      A                      A                      A
 Frequencies --   2975.4144              3040.1396              3211.8702
 Red. masses --      1.0978                 1.0889                 1.0910
 Frc consts  --      5.7261                 5.9296                 6.6312
 IR Inten    --     18.3573                10.0432                 4.4181

 - Thermochemistry -
 -------------------
 Temperature   298.150 Kelvin.  Pressure   1.00000 Atm.
 Atom     1 has atomic number  6 and mass  12.00000

 Molecular mass:    28.03130 amu.
 Principal axes and moments of inertia in atomic units:
                           1         2         3
     Eigenvalues --    12.91866  73.13092  74.77722
           X            0.99890   0.04692  -0.00005
           Y           -0.04692   0.99890   0.00021
           Z            0.00006  -0.00021   1.00000
 This molecule is an asymmetric top.
 Rotational symmetry number  1.
 Rotational temperatures (Kelvin)      6.70455     1.18437     1.15829
 Rotational constants (GHZ):         139.70032    24.67822    24.13490
 Zero-point vibrational energy     122911.0 (Joules/Mol)
                                   29.37643 (Kcal/Mol)
 Warning -- explicit consideration of   1 degrees of freedom as
           vibrations may cause significant error
 Vibrational temperatures:    243.54  1089.10  1428.10  1536.49  1583.56
          (Kelvin)           1997.72  2088.67  2088.76  4233.41  4280.95
                             4374.08  4621.16

 Zero-point correction=                           0.046814 (Hartree/Particle)
 Thermal correction to Energy=                    0.050460
 Thermal correction to Enthalpy=                  0.051404
 Thermal correction to Gibbs Free Energy=         0.022909
 Sum of electronic and zero-point Energies=            -78.460053
 Sum of electronic and thermal Energies=               -78.456407
 Sum of electronic and thermal Enthalpies=             -78.455463
 Sum of electronic and thermal Free Energies=          -78.483958

                     E (Thermal)             CV                S
                      KCal/Mol        Cal/Mol-Kelvin    Cal/Mol-Kelvin
 Total                   31.664              9.828             59.973
 Electronic               0.000              0.000              2.183
 Translational            0.889              2.981             35.927
 Rotational               0.889              2.981             18.897
 Vibrational             29.887              3.866              2.966
 Vibration     1          0.625              1.880              2.444

 Optimization completed.
    -- Stationary point found.
 Normal termination of Gaussian 09 at Sun Jun 19 15:02:23 2016.
