 Gaussian 09, Revision E.01,
 Gaussian 09:  EM64L-G09RevE.01 30-Nov-2015

 ---------------------------------------------
 #p b3lyp/6-311++G(3df,2p) freq symmetry=Loose
 ---------------------------------------------

 ---------
 b3lyp opt
 ---------
 Symbolic Z-matrix:
 Charge =  1 Multiplicity = 4

                         Standard orientation:
 ---------------------------------------------------------------------
 Center     Atomic      Atomic             Coordinates (Angstroms)
 Number     Number       Type             X           Y           Z
 ---------------------------------------------------------------------
      1          6           0        0.690160   -0.026017    0.000154
      2          1           0        1.055573   -0.451551    0.932077
      3          1           0        0.590830    1.110126   -0.001506
      4          1           0        1.057949   -0.451159   -0.931047
      5          6           0       -0.921701    0.143325    0.000335
      6          1           0       -1.315103   -0.911264   -0.002456
 ---------------------------------------------------------------------

 SCF Done:  E(UB3LYP) =  -78.0441155546     A.U. after   12 cycles

 The electronic state is 4-A.
 Alpha  occ. eigenvalues --  -10.55907 -10.53348  -1.09450  -0.90987  -0.78010
 Alpha  occ. eigenvalues --   -0.73979  -0.66387  -0.60710  -0.53191
 Alpha virt. eigenvalues --   -0.20953  -0.17916  -0.14994  -0.13324  -0.13305
 Alpha virt. eigenvalues --   -0.10704  -0.08729  -0.08701  -0.06477  -0.06127
 Alpha virt. eigenvalues --   -0.03849  -0.02679  -0.01214  -0.00804  -0.00680

  Beta  occ. eigenvalues --  -10.52462 -10.52127  -1.03169  -0.82581  -0.73956
  Beta  occ. eigenvalues --   -0.72135
  Beta virt. eigenvalues --   -0.51386  -0.39375  -0.33013  -0.19213  -0.15138
  Beta virt. eigenvalues --   -0.13800  -0.12947  -0.11074  -0.09082  -0.07824
  Beta virt. eigenvalues --   -0.07125  -0.04743  -0.04615  -0.02567  -0.01105

 Mulliken charges and spin densities:
               1          2
     1  C   -0.078817   0.473178
     2  H    0.246643   0.020642
     3  H    0.281093   0.136531
     4  H    0.246567   0.020625
     5  C    0.016225   2.176884
     6  H    0.288288   0.172140
 Sum of Mulliken charges =   1.00000   3.00000

 Dipole moment (field-independent basis, Debye):
    X=              0.4871    Y=             -0.3783    Z=             -0.0027  Tot=              0.6168
 Quadrupole moment (field-independent basis, Debye-Ang):
   XX=             -6.5664   YY=             -8.7959   ZZ=            -11.1376
   XY=              1.4702   XZ=              0.0019   YZ=              0.0013

  Exact polarizability:  28.654   2.162  20.008   0.001  -0.000  17.636
 Approx polarizability:  39.998   4.169  27.806   0.001   0.001  22.435

                      1                      2                      3
                      A                      A                      A
 Frequencies --    248.0280               586.0460               703.0741
 Red. masses --      1.1379                 1.6490                 2.0641
 Frc consts  --      0.0412                 0.3337                 0.6011
 IR Inten    --     37.7597                 2.2179                28.0392

                      4                      5                      6
                      A                      A                      A
 Frequencies --    708.4873              1012.9991              1133.0575
 Red. masses --      1.0347                 1.2983                 1.1194
 Frc consts  --      0.3060                 0.7849                 0.8467
 IR Inten    --      9.7442                 2.1171                10.4320

                      7                      8                      9
                      A                      A                      A
 Frequencies --   1147.5440              1430.4914              2625.7926
 Red. masses --      1.1709                 1.0645                 1.0684
 Frc consts  --      0.9085                 1.2834                 4.3402
 IR Inten    --     12.6783                 9.0719               434.6237

                     10                     11                     12
                      A                      A                      A
 Frequencies --   2744.1802              3090.7426              3191.8843
 Red. masses --      1.0854                 1.0598                 1.1196
 Frc consts  --      4.8159                 5.9649                 6.7204
 IR Inten    --    106.4387                29.8707                45.9506

 - Thermochemistry -
 -------------------
 Temperature   298.150 Kelvin.  Pressure   1.00000 Atm.
 Atom     1 has atomic number  6 and mass  12.00000

 Molecular mass:    28.03130 amu.
 Principal axes and moments of inertia in atomic units:
                           1         2         3
     Eigenvalues --    15.83352  78.49070  81.83117
           X            0.99880   0.04901   0.00005
           Y           -0.04901   0.99880  -0.00015
           Z           -0.00006   0.00015   1.00000
 This molecule is an asymmetric top.
 Rotational symmetry number  1.
 Rotational temperatures (Kelvin)      5.47028     1.10349     1.05845
 Rotational constants (GHZ):         113.98229    22.99306    22.05445
 Zero-point vibrational energy     111386.3 (Joules/Mol)
                                   26.62195 (Kcal/Mol)
 Warning -- explicit consideration of   2 degrees of freedom as
           vibrations may cause significant error
 Vibrational temperatures:    356.86   843.19  1011.57  1019.35  1457.48
          (Kelvin)           1630.22  1651.06  2058.16  3777.93  3948.26
                             4446.88  4592.40

 Zero-point correction=                           0.042425 (Hartree/Particle)
 Thermal correction to Energy=                    0.046219
 Thermal correction to Enthalpy=                  0.047163
 Thermal correction to Gibbs Free Energy=         0.018195
 Sum of electronic and zero-point Energies=            -78.001691
 Sum of electronic and thermal Energies=               -77.997896
 Sum of electronic and thermal Enthalpies=             -77.996952
 Sum of electronic and thermal Free Energies=          -78.025920

                     E (Thermal)             CV                S
                      KCal/Mol        Cal/Mol-Kelvin    Cal/Mol-Kelvin
 Total                   29.003             11.381             60.969
 Electronic               0.000              0.000              2.755
 Translational            0.889              2.981             35.927
 Rotational               0.889              2.981             19.259
 Vibrational             27.226              5.419              3.028
 Vibration     1          0.662              1.766              1.745
 Vibration     2          0.943              1.062              0.474

 Normal termination of Gaussian 09 at Sun Jun 19 15:02:25 2016.
