 Gaussian 09, Revision E.01,
 Gaussian 09:  EM64L-G09RevE.01 30-Nov-2015

 ---------------------------------------------
 #p b3lyp/6-311++G(3df,2p) freq symmetry=Loose
 ---------------------------------------------

 ---------
 b3lyp opt
 ---------
 Symbolic Z-matrix:
 Charge =  3 Multiplicity = 4

                         Standard orientation:
 ---------------------------------------------------------------------
 Center     Atomic      Atomic             Coordinates (Angstroms)
 Number     Number       Type             X           Y           Z
 ---------------------------------------------------------------------
      1          6           0       -1.151621   -0.510554   -0.000000
      2          1           0       -1.498430   -1.702752   -0.000000
      3          1           0       -2.396144   -0.363484   -0.000000
      4          6           0       -0.000000    0.362459    0.000000
      5          1           0        2.558981    0.214317    0.000000
      6          1           0       -0.223253    1.509906    0.000000
      7          6           0        1.411428    0.205098    0.000000
 ---------------------------------------------------------------------

 SCF Done:  E(UB3LYP) =  -114.665789361     A.U. after   13 cycles

 The electronic state is 4-A'.
 Alpha  occ. eigenvalues --  -11.15459 -11.11390 -11.09820  -1.65019  -1.52355
 Alpha  occ. eigenvalues --   -1.36941  -1.29301  -1.27061  -1.17894  -1.15582
 Alpha  occ. eigenvalues --   -1.04550
 Alpha virt. eigenvalues --   -0.92668  -0.82567  -0.69919  -0.67126  -0.61546
 Alpha virt. eigenvalues --   -0.54793  -0.51459  -0.49344  -0.46029  -0.45330
 Alpha virt. eigenvalues --   -0.43131  -0.42751  -0.41507  -0.39592  -0.36434

  Beta  occ. eigenvalues --  -11.13989 -11.10703 -11.07538  -1.60078  -1.45704
  Beta  occ. eigenvalues --   -1.32362  -1.26971  -1.24530
  Beta virt. eigenvalues --   -1.01144  -0.99580  -0.90496  -0.86371  -0.72056
  Beta virt. eigenvalues --   -0.65151  -0.62474  -0.58787  -0.52372  -0.50462
  Beta virt. eigenvalues --   -0.47186  -0.45152  -0.44015  -0.41701  -0.40817

 Mulliken charges and spin densities:
               1          2
     1  C    0.114350   1.358131
     2  H    0.441882   0.180551
     3  H    0.447737   0.190514
     4  C    0.541645   0.461306
     5  H    0.532137  -0.017140
     6  H    0.351174   0.018009
     7  C    0.571075   0.808630
 Sum of Mulliken charges =   3.00000   3.00000

 Dipole moment (field-independent basis, Debye):
    X=             -1.2452    Y=             -1.0359    Z=             -0.0000  Tot=              1.6198
 Quadrupole moment (field-independent basis, Debye-Ang):
   XX=             26.1098   YY=             -0.9508   ZZ=            -13.8357
   XY=              9.6859   XZ=              0.0000   YZ=              0.0000

  Exact polarizability:  43.726   6.173  24.322   0.000  -0.000  14.440
 Approx polarizability:  64.290   7.457  35.199   0.000   0.000  19.453

                      1                      2                      3
                     A"                     A"                     A'
 Frequencies --    190.7904               301.1766               347.1856
 Red. masses --      1.3037                 1.3612                 1.9800
 Frc consts  --      0.0280                 0.0727                 0.1406
 IR Inten    --      0.0641               249.4453                54.7615

                      4                      5                      6
                     A"                     A'                     A"
 Frequencies --    468.0373               583.2631               724.2899
 Red. masses --      1.1937                 1.4800                 1.4276
 Frc consts  --      0.1541                 0.2967                 0.4412
 IR Inten    --     27.2089                93.0439                32.9440

                      7                      8                      9
                     A'                     A'                     A'
 Frequencies --    841.7066               941.6481              1017.9962
 Red. masses --      1.6691                 2.1611                 1.4096
 Frc consts  --      0.6967                 1.1290                 0.8607
 IR Inten    --     69.8583                 7.6105                 0.0395

                     10                     11                     12
                     A'                     A'                     A'
 Frequencies --   1089.2319              1319.5450              1375.2463
 Red. masses --      1.2154                 2.1785                 1.2503
 Frc consts  --      0.8496                 2.2348                 1.3932
 IR Inten    --     39.7572               156.2909               719.7328

                     13                     14                     15
                     A'                     A'                     A'
 Frequencies --   2158.4954              2375.1347              2625.7733
 Red. masses --      1.1587                 1.0774                 1.1144
 Frc consts  --      3.1806                 3.5809                 4.5269
 IR Inten    --   1386.4703               602.1810               842.8991

 - Thermochemistry -
 -------------------
 Temperature   298.150 Kelvin.  Pressure   1.00000 Atm.
 Atom     1 has atomic number  6 and mass  12.00000

 Molecular mass:    40.03130 amu.
 Principal axes and moments of inertia in atomic units:
                           1         2         3
     Eigenvalues --    22.92934 209.42299 232.35233
           X            0.95910  -0.28307   0.00000
           Y            0.28307   0.95910   0.00000
           Z            0.00000  -0.00000   1.00000
 This molecule is an asymmetric top.
 Rotational symmetry number  1.
 Rotational temperatures (Kelvin)      3.77742     0.41358     0.37277
 Rotational constants (GHZ):          78.70882     8.61768     7.76726
 Zero-point vibrational energy      97851.7 (Joules/Mol)
                                   23.38711 (Kcal/Mol)
 Warning -- explicit consideration of   5 degrees of freedom as
           vibrations may cause significant error
 Vibrational temperatures:    274.50   433.33   499.52   673.40   839.18
          (Kelvin)           1042.09  1211.03  1354.82  1464.67  1567.16
                             1898.53  1978.67  3105.59  3417.28  3777.90

 Zero-point correction=                           0.037270 (Hartree/Particle)
 Thermal correction to Energy=                    0.042175
 Thermal correction to Enthalpy=                  0.043119
 Thermal correction to Gibbs Free Energy=         0.010722
 Sum of electronic and zero-point Energies=           -114.628520
 Sum of electronic and thermal Energies=              -114.623614
 Sum of electronic and thermal Enthalpies=            -114.622670
 Sum of electronic and thermal Free Energies=         -114.655068

                     E (Thermal)             CV                S
                      KCal/Mol        Cal/Mol-Kelvin    Cal/Mol-Kelvin
 Total                   26.465             16.180             68.186
 Electronic               0.000              0.000              2.755
 Translational            0.889              2.981             36.989
 Rotational               0.889              2.981             21.639
 Vibrational             24.688             10.218              6.803
 Vibration     1          0.634              1.853              2.220
 Vibration     2          0.693              1.671              1.410
 Vibration     3          0.725              1.581              1.179
 Vibration     4          0.825              1.321              0.743
 Vibration     5          0.940              1.068              0.479

 Optimization completed.
    -- Stationary point found.
 Normal termination of Gaussian 09 at Tue Jul 19 20:37:54 2016.
