 Gaussian 09, Revision E.01,
 Gaussian 09:  EM64L-G09RevE.01 30-Nov-2015

 ---------------------------------------------
 #p b3lyp/6-311++G(3df,2p) freq symmetry=Loose
 ---------------------------------------------

 ---------
 b3lyp opt
 ---------
 Symbolic Z-matrix:
 Charge =  0 Multiplicity = 1

                         Standard orientation:
 ---------------------------------------------------------------------
 Center     Atomic      Atomic             Coordinates (Angstroms)
 Number     Number       Type             X           Y           Z
 ---------------------------------------------------------------------
      1          6           0        0.000028    0.861720    0.000000
      2          1           0        0.910559    1.457712    0.000000
      3          1           0       -0.910768    1.457189    0.000000
      4          6           0        0.000028   -0.500174    0.643317
      5          6           0        0.000028   -0.500174   -0.643317
      6          1           0       -0.000149   -1.041568    1.571357
      7          1           0       -0.000149   -1.041568   -1.571357
 ---------------------------------------------------------------------

 SCF Done:  E(RB3LYP) =  -116.663124295     A.U. after   10 cycles

 The electronic state is 1-A'.
 Alpha  occ. eigenvalues --  -10.18794 -10.18677 -10.18217  -0.87527  -0.60448
 Alpha  occ. eigenvalues --   -0.56864  -0.50981  -0.44024  -0.35562  -0.30079
 Alpha  occ. eigenvalues --   -0.25984
 Alpha virt. eigenvalues --   -0.01063   0.00277   0.01387   0.01450   0.02954
 Alpha virt. eigenvalues --    0.07034   0.07397   0.08055   0.08696   0.10446
 Alpha virt. eigenvalues --    0.12207   0.12346   0.12406   0.12677   0.14995

 Mulliken charges:
               1
     1  C   -0.357583
     2  H    0.105152
     3  H    0.105163
     4  C   -0.145320
     5  C   -0.145320
     6  H    0.218955
     7  H    0.218955
 Sum of Mulliken charges =  -0.00000

 Dipole moment (field-independent basis, Debye):
    X=             -0.0004    Y=             -0.4728    Z=              0.0000  Tot=              0.4728
 Quadrupole moment (field-independent basis, Debye-Ang):
   XX=            -19.6721   YY=            -18.7722   ZZ=            -17.0123
   XY=              0.0008   XZ=             -0.0000   YZ=             -0.0000

  Exact polarizability:  27.972   0.001  38.366   0.000  -0.000  36.972
 Approx polarizability:  38.512   0.001  51.093  -0.000  -0.000  60.858

                      1                      2                      3
                     A'                     A"                     A"
 Frequencies --    599.6643               781.7867               867.8707
 Red. masses --      1.1244                 2.6345                 1.4231
 Frc consts  --      0.2382                 0.9487                 0.6316
 IR Inten    --     83.3683                14.7481                 0.0000

                      4                      5                      6
                     A'                     A"                     A"
 Frequencies --    925.2725              1016.4256              1038.6896
 Red. masses --      1.1504                 1.0901                 1.5566
 Frc consts  --      0.5803                 0.6635                 0.9894
 IR Inten    --      3.9731                 0.0003                41.7136

                      7                      8                      9
                     A"                     A'                     A'
 Frequencies --   1073.8962              1113.0963              1148.3586
 Red. masses --      1.3579                 1.2850                 4.3122
 Frc consts  --      0.9226                 0.9380                 3.3504
 IR Inten    --     18.6048                 1.6270                 0.2309

                     10                     11                     12
                     A'                     A'                     A'
 Frequencies --   1525.2987              1730.2724              3034.2141
 Red. masses --      1.1131                 4.6300                 1.0467
 Frc consts  --      1.5257                 8.1670                 5.6778
 IR Inten    --      1.6306                17.6191                72.7974

                     13                     14                     15
                     A'                     A"                     A'
 Frequencies --   3095.3092              3245.4172              3290.9792
 Red. masses --      1.1173                 1.0842                 1.1453
 Frc consts  --      6.3071                 6.7280                 7.3083
 IR Inten    --     42.3155                 0.1806                 0.0705

 - Thermochemistry -
 -------------------
 Temperature   298.150 Kelvin.  Pressure   1.00000 Atm.
 Atom     1 has atomic number  6 and mass  12.00000

 Molecular mass:    40.03130 amu.
 Principal axes and moments of inertia in atomic units:
                           1         2         3
     Eigenvalues --    59.21227  82.26936 129.54289
           X            0.00002   0.00000   1.00000
           Y            1.00000   0.00000  -0.00002
           Z            0.00000   1.00000   0.00000
 This molecule is an asymmetric top.
 Rotational symmetry number  1.
 Rotational temperatures (Kelvin)      1.46277     1.05281     0.66861
 Rotational constants (GHZ):          30.47918    21.93698    13.93161
 Zero-point vibrational energy     146462.1 (Joules/Mol)
                                   35.00528 (Kcal/Mol)
 Warning -- explicit consideration of   1 degrees of freedom as
           vibrations may cause significant error
 Vibrational temperatures:    862.78  1124.82  1248.67  1331.26  1462.41
          (Kelvin)           1494.44  1545.10  1601.50  1652.23  2194.56
                             2489.47  4365.55  4453.45  4669.43  4734.98

 Zero-point correction=                           0.055784 (Hartree/Particle)
 Thermal correction to Energy=                    0.059115
 Thermal correction to Enthalpy=                  0.060060
 Thermal correction to Gibbs Free Energy=         0.031846
 Sum of electronic and zero-point Energies=           -116.607340
 Sum of electronic and thermal Energies=              -116.604009
 Sum of electronic and thermal Enthalpies=            -116.603065
 Sum of electronic and thermal Free Energies=         -116.631279

                     E (Thermal)             CV                S
                      KCal/Mol        Cal/Mol-Kelvin    Cal/Mol-Kelvin
 Total                   37.096             10.298             59.382
 Electronic               0.000              0.000              0.000
 Translational            0.889              2.981             36.989
 Rotational               0.889              2.981             21.073
 Vibrational             35.318              4.337              1.320
 Vibration     1          0.958              1.033              0.450

 Optimization completed.
    -- Stationary point found.
 Normal termination of Gaussian 09 at Tue Jul 19 18:09:54 2016.
