 Gaussian 09, Revision E.01,
 Gaussian 09:  EM64L-G09RevE.01 30-Nov-2015

 ---------------------------------------------
 #p b3lyp/6-311++G(3df,2p) freq symmetry=Loose
 ---------------------------------------------

 ---------
 b3lyp opt
 ---------
 Symbolic Z-matrix:
 Charge =  0 Multiplicity = 1

                         Standard orientation:
 ---------------------------------------------------------------------
 Center     Atomic      Atomic             Coordinates (Angstroms)
 Number     Number       Type             X           Y           Z
 ---------------------------------------------------------------------
      1          6           0        0.000000    0.000000   -1.236100
      2          1           0       -0.000000    1.018722   -1.626742
      3          1           0        0.882239   -0.509361   -1.626742
      4          1           0       -0.882239   -0.509361   -1.626742
      5          6           0        0.000000   -0.000000    0.218611
      6          6           0        0.000000   -0.000000    1.417679
      7          1           0        0.000000   -0.000000    2.479079
 ---------------------------------------------------------------------

 SCF Done:  E(RB3LYP) =  -116.700960727     A.U. after   10 cycles

 The electronic state is 1-A1.
 Alpha  occ. eigenvalues --  -10.19387 -10.17601 -10.16021  -0.78628  -0.70815
 Alpha  occ. eigenvalues --   -0.53313  -0.46152  -0.43850  -0.43850  -0.27658
 Alpha  occ. eigenvalues --   -0.27658
 Alpha virt. eigenvalues --   -0.00829   0.01423   0.02091   0.02091   0.04778
 Alpha virt. eigenvalues --    0.04778   0.05245   0.08515   0.08515   0.09525
 Alpha virt. eigenvalues --    0.10338   0.10338   0.11269   0.12599   0.15166

 Mulliken charges:
               1
     1  C   -0.672271
     2  H    0.153726
     3  H    0.153726
     4  H    0.153726
     5  C   -0.379674
     6  C    0.286673
     7  H    0.304093
 Sum of Mulliken charges =  -0.00000

 Dipole moment (field-independent basis, Debye):
    X=             -0.0000    Y=             -0.0000    Z=             -0.8381  Tot=              0.8381
 Quadrupole moment (field-independent basis, Debye-Ang):
   XX=            -19.8286   YY=            -19.8286   ZZ=            -14.3244
   XY=              0.0000   XZ=              0.0000   YZ=              0.0000

  Exact polarizability:  28.618   0.000  28.619   0.000  -0.000  51.629
 Approx polarizability:  38.687   0.000  38.687   0.000  -0.000  79.871

                      1                      2                      3
                      E                      E                      E
 Frequencies --    346.3269               346.3293               672.2452
 Red. masses --      2.9834                 2.9834                 1.2578
 Frc consts  --      0.2108                 0.2108                 0.3349
 IR Inten    --      9.8301                 9.8307                49.4512

                      4                      5                      6
                      E                     A1                      E
 Frequencies --    672.2456               941.0204              1056.1574
 Red. masses --      1.2578                 4.1364                 1.4073
 Frc consts  --      0.3349                 2.1581                 0.9249
 IR Inten    --     49.4503                 0.3249                 0.2324

                      7                      8                      9
                      E                     A1                      E
 Frequencies --   1056.1586              1417.3378              1480.3721
 Red. masses --      1.4073                 1.2289                 1.0389
 Frc consts  --      0.9249                 1.4545                 1.3414
 IR Inten    --      0.2325                 0.0412                 8.8150

                     10                     11                     12
                      E                     A1                     A1
 Frequencies --   1480.3723              2222.4473              3025.5638
 Red. masses --      1.0389                 5.9431                 1.0340
 Frc consts  --      1.3414                17.2952                 5.5770
 IR Inten    --      8.8166                10.1645                17.3723

                     13                     14                     15
                      E                      E                     A1
 Frequencies --   3082.6468              3082.6475              3465.2780
 Red. masses --      1.1008                 1.1008                 1.1614
 Frc consts  --      6.1633                 6.1633                 8.2171
 IR Inten    --      6.5672                 6.5642                63.2918

 - Thermochemistry -
 -------------------
 Temperature   298.150 Kelvin.  Pressure   1.00000 Atm.
 Atom     1 has atomic number  6 and mass  12.00000

 Molecular mass:    40.03130 amu.
 Principal axes and moments of inertia in atomic units:
                           1         2         3
     Eigenvalues --    11.20509 209.43790 209.43790
           X            0.00000   0.40942   0.91234
           Y            0.00000   0.91234  -0.40942
           Z            1.00000  -0.00000   0.00000
 This molecule is a prolate symmetric top.
 Rotational symmetry number  3.
 Rotational temperatures (Kelvin)      7.72986     0.41355     0.41355
 Rotational constants (GHZ):         161.06434     8.61707     8.61707
 Zero-point vibrational energy     145628.3 (Joules/Mol)
                                   34.80600 (Kcal/Mol)
 Warning -- explicit consideration of   2 degrees of freedom as
           vibrations may cause significant error
 Vibrational temperatures:    498.29   498.29   967.21   967.21  1353.92
          (Kelvin)           1519.57  1519.57  2039.23  2129.92  2129.92
                             3197.60  4353.11  4435.24  4435.24  4985.76

 Zero-point correction=                           0.055467 (Hartree/Particle)
 Thermal correction to Energy=                    0.059402
 Thermal correction to Enthalpy=                  0.060346
 Thermal correction to Gibbs Free Energy=         0.032319
 Sum of electronic and zero-point Energies=           -116.645494
 Sum of electronic and thermal Energies=              -116.641559
 Sum of electronic and thermal Enthalpies=            -116.640614
 Sum of electronic and thermal Free Energies=         -116.668641

                     E (Thermal)             CV                S
                      KCal/Mol        Cal/Mol-Kelvin    Cal/Mol-Kelvin
 Total                   37.275             12.245             58.988
 Electronic               0.000              0.000              0.000
 Translational            0.889              2.981             36.989
 Rotational               0.889              2.981             18.641
 Vibrational             35.498              6.284              3.358
 Vibration     1          0.724              1.583              1.183
 Vibration     2          0.724              1.583              1.183

 Optimization completed.
    -- Stationary point found.
 Normal termination of Gaussian 09 at Tue Jul 19 16:56:11 2016.
