 Gaussian 09, Revision E.01,
 Gaussian 09:  EM64L-G09RevE.01 30-Nov-2015

 ---------------------------------------------
 #p b3lyp/6-311++G(3df,2p) freq symmetry=Loose
 ---------------------------------------------

 ---------
 b3lyp opt
 ---------
 Symbolic Z-matrix:
 Charge =  3 Multiplicity = 2

                         Standard orientation:
 ---------------------------------------------------------------------
 Center     Atomic      Atomic             Coordinates (Angstroms)
 Number     Number       Type             X           Y           Z
 ---------------------------------------------------------------------
      1          6           0        1.066036   -0.000000   -0.336061
      2          6           0       -1.066036    0.000000   -0.336061
      3          6           0       -0.000000    0.000000    0.577728
      4          1           0        1.823963   -0.000000   -1.203629
      5          1           0       -1.823963    0.000000   -1.203629
      6          1           0       -0.000000    0.809007    1.486813
      7          1           0       -0.000000   -0.809007    1.486813
 ---------------------------------------------------------------------

 SCF Done:  E(UB3LYP) =  -114.724966856     A.U. after   12 cycles

 The electronic state is 2-A1.
 Alpha  occ. eigenvalues --  -11.19349 -11.19349 -11.06531  -1.70434  -1.48540
 Alpha  occ. eigenvalues --   -1.39818  -1.31014  -1.29666  -1.22780  -1.09904
 Alpha virt. eigenvalues --   -0.95356  -0.93223  -0.93105  -0.67385  -0.65104
 Alpha virt. eigenvalues --   -0.59962  -0.57946  -0.53132  -0.50756  -0.49530
 Alpha virt. eigenvalues --   -0.44774  -0.44549  -0.40972  -0.39146  -0.37886

  Beta  occ. eigenvalues --  -11.18406 -11.18404 -11.06657  -1.69060  -1.45508
  Beta  occ. eigenvalues --   -1.38295  -1.30066  -1.28769  -1.22421
  Beta virt. eigenvalues --   -0.96738  -0.93928  -0.91921  -0.86030  -0.66233
  Beta virt. eigenvalues --   -0.64035  -0.59636  -0.57447  -0.52824  -0.50092
  Beta virt. eigenvalues --   -0.48772  -0.44615  -0.44126  -0.40096  -0.39031

 Mulliken charges and spin densities:
               1          2
     1  C    0.546005   0.514937
     2  C    0.546005   0.514937
     3  C    0.082387  -0.076807
     4  H    0.519985  -0.009286
     5  H    0.519985  -0.009286
     6  H    0.392816   0.032752
     7  H    0.392816   0.032752
 Sum of Mulliken charges =   3.00000   1.00000

 Dipole moment (field-independent basis, Debye):
    X=             -0.0000    Y=              0.0000    Z=             -0.3491  Tot=              0.3491
 Quadrupole moment (field-independent basis, Debye-Ang):
   XX=              8.2897   YY=            -10.1435   ZZ=              2.6628
   XY=             -0.0000   XZ=             -0.0000   YZ=             -0.0000

  Exact polarizability:  39.241  -0.000  16.666   0.000   0.000  25.901
 Approx polarizability:  80.325  -0.000  25.190   0.000  -0.000  41.578

                      1                      2                      3
                     A1                     B2                     A1
 Frequencies --    284.5927               491.0225               591.1222
 Red. masses --      3.8853                 1.2641                 1.1203
 Frc consts  --      0.1854                 0.1796                 0.2306
 IR Inten    --     38.9863               218.3506               461.9139

                      4                      5                      6
                     A1                     B1                     A2
 Frequencies --    642.5043               643.0938               671.6425
 Red. masses --      1.1861                 1.2831                 1.0376
 Frc consts  --      0.2885                 0.3127                 0.2758
 IR Inten    --      0.0729                79.1938                 0.0000

                      7                      8                      9
                     B1                     B2                     A2
 Frequencies --    908.1958               950.7067              1023.0302
 Red. masses --      1.6203                 1.5600                 1.2283
 Frc consts  --      0.7874                 0.8308                 0.7574
 IR Inten    --      0.6816                17.0267                 0.0000

                     10                     11                     12
                     B1                     A1                     B2
 Frequencies --   1086.9634              1222.4769              1879.1992
 Red. masses --      2.4560                 4.2394                 1.0650
 Frc consts  --      1.7096                 3.7328                 2.2158
 IR Inten    --    157.7018                27.4972               655.6255

                     13                     14                     15
                     A1                     B1                     A1
 Frequencies --   2103.8411              2563.0350              2618.0349
 Red. masses --      1.0817                 1.1133                 1.1228
 Frc consts  --      2.8210                 4.3091                 4.5342
 IR Inten    --   1264.4330              1110.6317               440.9687

 - Thermochemistry -
 -------------------
 Temperature   298.150 Kelvin.  Pressure   1.00000 Atm.
 Atom     1 has atomic number  6 and mass  12.00000

 Molecular mass:    40.03130 amu.
 Principal axes and moments of inertia in atomic units:
                           1         2         3
     Eigenvalues --    55.00515 126.05630 171.63935
           X            1.00000   0.00000   0.00000
           Y           -0.00000   0.00000   1.00000
           Z           -0.00000   1.00000  -0.00000
 This molecule is an asymmetric top.
 Rotational symmetry number  2.
 Rotational temperatures (Kelvin)      1.57465     0.68710     0.50463
 Rotational constants (GHZ):          32.81040    14.31695    10.51473
 Zero-point vibrational energy     105746.7 (Joules/Mol)
                                   25.27406 (Kcal/Mol)
 Warning -- explicit consideration of   3 degrees of freedom as
           vibrations may cause significant error
 Vibrational temperatures:    409.46   706.47   850.49   924.42   925.27
          (Kelvin)            966.34  1306.69  1367.85  1471.91  1563.90
                             1758.87  2703.75  3026.95  3687.63  3766.76

 Zero-point correction=                           0.040277 (Hartree/Particle)
 Thermal correction to Energy=                    0.044519
 Thermal correction to Enthalpy=                  0.045463
 Thermal correction to Gibbs Free Energy=         0.015582
 Sum of electronic and zero-point Energies=           -114.684690
 Sum of electronic and thermal Energies=              -114.680448
 Sum of electronic and thermal Enthalpies=            -114.679504
 Sum of electronic and thermal Free Energies=         -114.709385

                     E (Thermal)             CV                S
                      KCal/Mol        Cal/Mol-Kelvin    Cal/Mol-Kelvin
 Total                   27.936             14.541             62.890
 Electronic               0.000              0.000              1.377
 Translational            0.889              2.981             36.989
 Rotational               0.889              2.981             20.326
 Vibrational             26.159              8.580              4.198
 Vibration     1          0.683              1.702              1.506
 Vibration     2          0.847              1.270              0.681
 Vibration     3          0.949              1.051              0.465

 Optimization completed.
    -- Stationary point found.
 Normal termination of Gaussian 09 at Tue Jul 19 19:57:37 2016.
