 Gaussian 09, Revision E.01,
 Gaussian 09:  EM64L-G09RevE.01 30-Nov-2015

 ---------------------------------------------
 #p b3lyp/6-311++G(3df,2p) freq symmetry=Loose
 ---------------------------------------------

 ---------
 b3lyp opt
 ---------
 Symbolic Z-matrix:
 Charge =  2 Multiplicity = 1

                         Standard orientation:
 ---------------------------------------------------------------------
 Center     Atomic      Atomic             Coordinates (Angstroms)
 Number     Number       Type             X           Y           Z
 ---------------------------------------------------------------------
      1          6           0        1.315634   -0.000000    0.000000
      2          1           0        1.897003    0.951271    0.000000
      3          1           0        1.897003   -0.951271   -0.000000
      4          6           0        0.000000    0.000000    0.000000
      5          6           0       -1.315634    0.000000    0.000000
      6          1           0       -1.897003   -0.951271    0.000000
      7          1           0       -1.897003    0.951271   -0.000000
 ---------------------------------------------------------------------

 SCF Done:  E(RB3LYP) =  -115.758542182     A.U. after    9 cycles

 The electronic state is 1-AG.
 Alpha  occ. eigenvalues --  -10.82621 -10.79710 -10.79701  -1.38081  -1.28430
 Alpha  occ. eigenvalues --   -1.07029  -1.01882  -1.00741  -0.95746  -0.89118
 Alpha virt. eigenvalues --   -0.67581  -0.64224  -0.46683  -0.38310  -0.32878
 Alpha virt. eigenvalues --   -0.30673  -0.30215  -0.29354  -0.27899  -0.26801
 Alpha virt. eigenvalues --   -0.23910  -0.23130  -0.21612  -0.20772  -0.20187

 Mulliken charges:
               1
     1  C   -0.080044
     2  H    0.339071
     3  H    0.339071
     4  C    0.803803
     5  C   -0.080044
     6  H    0.339071
     7  H    0.339071
 Sum of Mulliken charges =   2.00000

 Dipole moment (field-independent basis, Debye):
    X=             -0.0000    Y=              0.0000    Z=             -0.0000  Tot=              0.0000
 Quadrupole moment (field-independent basis, Debye-Ang):
   XX=             10.7215   YY=             -8.8764   ZZ=            -14.9627
   XY=             -0.0000   XZ=              0.0000   YZ=             -0.0000

  Exact polarizability:  49.254  -0.000  20.425  -0.000  -0.000  15.699
 Approx polarizability:  93.048  -0.000  28.620   0.000  -0.000  21.646

                      1                      2                      3
                     B1U                    B2U                    B1G
 Frequencies --    277.7881               303.0181               610.7075
 Red. masses --      3.6067                 1.5455                 1.2407
 Frc consts  --      0.1640                 0.0836                 0.2726
 IR Inten    --     34.4244                26.1635                 0.0000

                      4                      5                      6
                     AU                     B2U                    B1U
 Frequencies --    799.4591               968.4699              1020.1682
 Red. masses --      1.0078                 2.3056                 1.4149
 Frc consts  --      0.3795                 1.2741                 0.8676
 IR Inten    --      0.0000                 9.4429                55.1356

                      7                      8                      9
                     B2G                    AG                     B3U
 Frequencies --   1025.8045              1040.3492              1248.7478
 Red. masses --      1.3210                 2.3118                 1.0855
 Frc consts  --      0.8190                 1.4742                 0.9973
 IR Inten    --      0.0000                 0.0000               229.2711

                     10                     11                     12
                     AG                     B3U                    B3U
 Frequencies --   1295.5056              1675.8143              2825.0797
 Red. masses --      1.4516                 9.9334                 1.0478
 Frc consts  --      1.4354                16.4361                 4.9270
 IR Inten    --      0.0000               119.8084               979.2992

                     13                     14                     15
                     AG                     B1G                    B2U
 Frequencies --   2878.4106              2910.8109              2919.5443
 Red. masses --      1.0567                 1.1086                 1.1167
 Frc consts  --      5.1583                 5.5342                 5.6079
 IR Inten    --      0.0000                 0.0000               635.6390

 - Thermochemistry -
 -------------------
 Temperature   298.150 Kelvin.  Pressure   1.00000 Atm.
 Atom     1 has atomic number  6 and mass  12.00000

 Molecular mass:    40.03130 amu.
 Principal axes and moments of inertia in atomic units:
                           1         2         3
     Eigenvalues --    13.02721 200.15302 213.18023
           X            1.00000   0.00000   0.00000
           Y           -0.00000   1.00000   0.00000
           Z            0.00000  -0.00000   1.00000
 This molecule is an asymmetric top.
 Rotational symmetry number  4.
 Rotational temperatures (Kelvin)      6.64869     0.43274     0.40629
 Rotational constants (GHZ):         138.53629     9.01681     8.46580
 Zero-point vibrational energy     130391.0 (Joules/Mol)
                                   31.16420 (Kcal/Mol)
 Warning -- explicit consideration of   3 degrees of freedom as
           vibrations may cause significant error
 Vibrational temperatures:    399.67   435.97   878.67  1150.24  1393.41
          (Kelvin)           1467.79  1475.90  1496.83  1796.67  1863.94
                             2411.12  4064.65  4141.39  4188.00  4200.57

 Zero-point correction=                           0.049663 (Hartree/Particle)
 Thermal correction to Energy=                    0.053762
 Thermal correction to Enthalpy=                  0.054706
 Thermal correction to Gibbs Free Energy=         0.026582
 Sum of electronic and zero-point Energies=           -115.708879
 Sum of electronic and thermal Energies=              -115.704780
 Sum of electronic and thermal Enthalpies=            -115.703836
 Sum of electronic and thermal Free Energies=         -115.731960

                     E (Thermal)             CV                S
                      KCal/Mol        Cal/Mol-Kelvin    Cal/Mol-Kelvin
 Total                   33.736             12.825             59.191
 Electronic               0.000              0.000              0.000
 Translational            0.889              2.981             36.989
 Rotational               0.889              2.981             18.192
 Vibrational             31.959              6.864              4.010
 Vibration     1          0.679              1.715              1.547
 Vibration     2          0.694              1.668              1.400
 Vibration     3          0.970              1.009              0.432

 Optimization completed.
    -- Stationary point found.
 Normal termination of Gaussian 09 at Tue Jul 19 16:08:48 2016.
