 Gaussian 09, Revision E.01,
 Gaussian 09:  EM64L-G09RevE.01 30-Nov-2015

 ---------------------------------------------
 #p b3lyp/6-311++G(3df,2p) freq symmetry=Loose
 ---------------------------------------------

 ---------
 b3lyp opt
 ---------
 Symbolic Z-matrix:
 Charge =  2 Multiplicity = 1

                         Standard orientation:
 ---------------------------------------------------------------------
 Center     Atomic      Atomic             Coordinates (Angstroms)
 Number     Number       Type             X           Y           Z
 ---------------------------------------------------------------------
      1          6           0        1.146479   -0.134344   -0.000142
      2          1           0        1.752738    0.873490    0.478618
      3          1           0        1.763803   -1.040843   -0.000526
      4          1           0        1.750415    0.875232   -0.478545
      5          6           0       -0.172799   -0.012913   -0.000072
      6          6           0       -1.430543    0.019365    0.000146
      7          1           0       -2.525772    0.059473    0.000860
 ---------------------------------------------------------------------

 SCF Done:  E(RB3LYP) =  -115.663551931     A.U. after   11 cycles

 The electronic state is 1-A.
 Alpha  occ. eigenvalues --  -10.81275 -10.80897 -10.75777  -1.37010  -1.28121
 Alpha  occ. eigenvalues --   -1.11789  -1.03823  -1.01354  -0.88850  -0.82668
 Alpha virt. eigenvalues --   -0.70998  -0.53618  -0.48104  -0.44412  -0.35972
 Alpha virt. eigenvalues --   -0.33865  -0.32626  -0.30390  -0.28841  -0.26335
 Alpha virt. eigenvalues --   -0.25266  -0.24443  -0.22634  -0.21938  -0.18853

 Mulliken charges:
               1
     1  C   -0.292021
     2  H    0.306019
     3  H    0.348051
     4  H    0.306046
     5  C    0.281390
     6  C    0.586643
     7  H    0.463871
 Sum of Mulliken charges =   2.00000

 Dipole moment (field-independent basis, Debye):
    X=              2.0374    Y=              1.5561    Z=              0.0003  Tot=              2.5637
 Quadrupole moment (field-independent basis, Debye-Ang):
   XX=             15.3457   YY=            -11.5011   ZZ=            -13.7455
   XY=              2.6090   XZ=             -0.0017   YZ=             -0.0017

  Exact polarizability:  53.420   1.612  19.844  -0.002  -0.001  17.062
 Approx polarizability: 122.039   3.944  27.164  -0.001  -0.004  24.467

                      1                      2                      3
                      A                      A                      A
 Frequencies --    283.9063               288.3617               416.8332
 Red. masses --      2.1829                 2.6036                 1.1780
 Frc consts  --      0.1037                 0.1276                 0.1206
 IR Inten    --     50.7067                51.7312                 0.0235

                      4                      5                      6
                      A                      A                      A
 Frequencies --    689.7102               880.7120               890.3673
 Red. masses --      1.2385                 1.6868                 1.3413
 Frc consts  --      0.3471                 0.7709                 0.6265
 IR Inten    --     51.6031                11.2639                71.1710

                      7                      8                      9
                      A                      A                      A
 Frequencies --    931.7041              1068.4236              1139.5302
 Red. masses --      1.4437                 1.1004                 3.6163
 Frc consts  --      0.7384                 0.7401                 2.7667
 IR Inten    --      4.5025               327.3078                87.6584

                     10                     11                     12
                      A                      A                      A
 Frequencies --   1504.0767              1754.6328              2065.3119
 Red. masses --      1.1520                 1.0239                 5.9298
 Frc consts  --      1.5355                 1.8573                14.9027
 IR Inten    --     54.1369               176.1269               476.6031

                     13                     14                     15
                      A                      A                      A
 Frequencies --   2485.9043              3072.1553              3143.9447
 Red. masses --      1.0500                 1.1028                 1.1643
 Frc consts  --      3.8230                 6.1327                 6.7808
 IR Inten    --    115.5421               199.3178               278.2745

 - Thermochemistry -
 -------------------
 Temperature   298.150 Kelvin.  Pressure   1.00000 Atm.
 Atom     1 has atomic number  6 and mass  12.00000

 Molecular mass:    40.03130 amu.
 Principal axes and moments of inertia in atomic units:
                           1         2         3
     Eigenvalues --    11.72436 202.61489 211.04197
           X            0.99978   0.02096   0.00011
           Y           -0.02096   0.99978   0.00001
           Z           -0.00011  -0.00002   1.00000
 This molecule is an asymmetric top.
 Rotational symmetry number  1.
 Rotational temperatures (Kelvin)      7.38751     0.42748     0.41041
 Rotational constants (GHZ):         153.93096     8.90725     8.55157
 Zero-point vibrational energy     123308.5 (Joules/Mol)
                                   29.47144 (Kcal/Mol)
 Warning -- explicit consideration of   3 degrees of freedom as
           vibrations may cause significant error
 Vibrational temperatures:    408.48   414.89   599.73   992.34  1267.15
          (Kelvin)           1281.04  1340.51  1537.22  1639.53  2164.03
                             2524.52  2971.52  3576.66  4420.14  4523.43

 Zero-point correction=                           0.046966 (Hartree/Particle)
 Thermal correction to Energy=                    0.051303
 Thermal correction to Enthalpy=                  0.052247
 Thermal correction to Gibbs Free Energy=         0.022500
 Sum of electronic and zero-point Energies=           -115.616586
 Sum of electronic and thermal Energies=              -115.612249
 Sum of electronic and thermal Enthalpies=            -115.611305
 Sum of electronic and thermal Free Energies=         -115.641052

                     E (Thermal)             CV                S
                      KCal/Mol        Cal/Mol-Kelvin    Cal/Mol-Kelvin
 Total                   32.193             13.813             62.608
 Electronic               0.000              0.000              0.000
 Translational            0.889              2.981             36.989
 Rotational               0.889              2.981             20.844
 Vibrational             30.415              7.851              4.774
 Vibration     1          0.682              1.704              1.510
 Vibration     2          0.685              1.695              1.484
 Vibration     3          0.780              1.434              0.903

 Normal termination of Gaussian 09 at Sun Jun 19 15:16:20 2016.
