 Gaussian 09, Revision E.01,
 Gaussian 09:  EM64L-G09RevE.01 30-Nov-2015

 ---------------------------------------------
 #p b3lyp/6-311++G(3df,2p) freq symmetry=Loose
 ---------------------------------------------

 ---------
 b3lyp opt
 ---------
 Symbolic Z-matrix:
 Charge =  2 Multiplicity = 3

                         Standard orientation:
 ---------------------------------------------------------------------
 Center     Atomic      Atomic             Coordinates (Angstroms)
 Number     Number       Type             X           Y           Z
 ---------------------------------------------------------------------
      1          6           0       -1.136535   -0.552992   -0.000000
      2          1           0       -1.652794   -0.809609    0.950626
      3          1           0       -1.652794   -0.809609   -0.950626
      4          6           0       -0.000000    0.262892    0.000000
      5          1           0        2.262699    0.862934    0.000000
      6          1           0       -0.467596    1.310345    0.000000
      7          6           0        1.388283    0.197756    0.000000
 ---------------------------------------------------------------------

 SCF Done:  E(UB3LYP) =  -115.650140376     A.U. after   14 cycles

 The electronic state is 3-A".
 Alpha  occ. eigenvalues --  -10.82305 -10.81390 -10.81154  -1.38882  -1.26105
 Alpha  occ. eigenvalues --   -1.09212  -1.01810  -0.99996  -0.99299  -0.84911
 Alpha  occ. eigenvalues --   -0.78712
 Alpha virt. eigenvalues --   -0.66456  -0.58136  -0.38168  -0.36147  -0.34238
 Alpha virt. eigenvalues --   -0.31010  -0.29807  -0.26625  -0.25328  -0.25262
 Alpha virt. eigenvalues --   -0.23911  -0.23091  -0.22278  -0.19705  -0.18228

  Beta  occ. eigenvalues --  -10.82045 -10.80662 -10.78847  -1.35861  -1.22014
  Beta  occ. eigenvalues --   -1.07001  -0.99940  -0.98086  -0.97488
  Beta virt. eigenvalues --   -0.71316  -0.65550  -0.59430  -0.50625  -0.37204
  Beta virt. eigenvalues --   -0.35009  -0.32503  -0.30564  -0.29177  -0.25914
  Beta virt. eigenvalues --   -0.24761  -0.24241  -0.23300  -0.21896  -0.21401

 Mulliken charges and spin densities:
               1          2
     1  C   -0.019640   0.200969
     2  H    0.326612   0.031879
     3  H    0.326612   0.031879
     4  C    0.541192   0.458310
     5  H    0.353745   0.002945
     6  H    0.297341   0.001339
     7  C    0.174138   1.272679
 Sum of Mulliken charges =   2.00000   2.00000

 Dipole moment (field-independent basis, Debye):
    X=             -1.1600    Y=              0.4521    Z=              0.0000  Tot=              1.2450
 Quadrupole moment (field-independent basis, Debye-Ang):
   XX=              5.3654   YY=             -8.6009   ZZ=            -12.1635
   XY=              6.9055   XZ=             -0.0000   YZ=             -0.0000

  Exact polarizability:  47.694   9.315  23.809   0.000   0.000  18.474
 Approx polarizability:  75.921  15.116  35.942  -0.000   0.000  25.421

                      1                      2                      3
                     A'                     A"                     A"
 Frequencies --    291.5239               318.9499               608.8241
 Red. masses --      3.2438                 1.3296                 1.0611
 Frc consts  --      0.1624                 0.0797                 0.2317
 IR Inten    --     34.1264                15.9781                41.6157

                      4                      5                      6
                     A'                     A"                     A'
 Frequencies --    678.5419               761.9741               860.2157
 Red. masses --      1.1370                 1.2374                 1.8135
 Frc consts  --      0.3084                 0.4233                 0.7906
 IR Inten    --     38.2637                 0.3605                49.9768

                      7                      8                      9
                     A"                     A'                     A'
 Frequencies --    917.3038              1009.0818              1127.1164
 Red. masses --      1.6538                 1.9831                 1.4174
 Frc consts  --      0.8199                 1.1897                 1.0609
 IR Inten    --      1.4370                60.1333                17.8394

                     10                     11                     12
                     A'                     A'                     A'
 Frequencies --   1328.7032              1525.8472              2598.4512
 Red. masses --      1.1246                 6.7470                 1.0705
 Frc consts  --      1.1698                 9.2551                 4.2587
 IR Inten    --     74.7011                44.8849               328.5034

                     13                     14                     15
                     A'                     A"                     A'
 Frequencies --   2864.6330              2958.6387              3075.2635
 Red. masses --      1.0470                 1.1161                 1.1043
 Frc consts  --      5.0623                 5.7564                 6.1530
 IR Inten    --    414.1010               228.0085               296.2100

 - Thermochemistry -
 -------------------
 Temperature   298.150 Kelvin.  Pressure   1.00000 Atm.
 Atom     1 has atomic number  6 and mass  12.00000

 Molecular mass:    40.03130 amu.
 Principal axes and moments of inertia in atomic units:
                           1         2         3
     Eigenvalues --    20.38937 200.53338 207.91319
           X            0.95046  -0.31086   0.00000
           Y            0.31086   0.95046   0.00000
           Z            0.00000  -0.00000   1.00000
 This molecule is an asymmetric top.
 Rotational symmetry number  1.
 Rotational temperatures (Kelvin)      4.24799     0.43192     0.41659
 Rotational constants (GHZ):          88.51382     8.99970     8.68026
 Zero-point vibrational energy     125159.7 (Joules/Mol)
                                   29.91389 (Kcal/Mol)
 Warning -- explicit consideration of   3 degrees of freedom as
           vibrations may cause significant error
 Vibrational temperatures:    419.44   458.90   875.96   976.27  1096.31
          (Kelvin)           1237.66  1319.79  1451.84  1621.67  1911.71
                             2195.35  3738.59  4121.56  4256.82  4424.61

 Zero-point correction=                           0.047671 (Hartree/Particle)
 Thermal correction to Energy=                    0.051884
 Thermal correction to Enthalpy=                  0.052828
 Thermal correction to Gibbs Free Energy=         0.022037
 Sum of electronic and zero-point Energies=           -115.602470
 Sum of electronic and thermal Energies=              -115.598257
 Sum of electronic and thermal Enthalpies=            -115.597312
 Sum of electronic and thermal Free Energies=         -115.628103

                     E (Thermal)             CV                S
                      KCal/Mol        Cal/Mol-Kelvin    Cal/Mol-Kelvin
 Total                   32.558             13.751             64.804
 Electronic               0.000              0.000              2.183
 Translational            0.889              2.981             36.989
 Rotational               0.889              2.981             21.369
 Vibrational             30.780              7.790              4.263
 Vibration     1          0.687              1.690              1.465
 Vibration     2          0.705              1.637              1.315
 Vibration     3          0.968              1.013              0.435

 Normal termination of Gaussian 09 at Tue Jul 19 17:28:15 2016.
