 Gaussian 09, Revision E.01,
 Gaussian 09:  EM64L-G09RevE.01 30-Nov-2015

 ---------------------------------------------
 #p b3lyp/6-311++G(3df,2p) freq symmetry=Loose
 ---------------------------------------------

 ---------
 b3lyp opt
 ---------
 Symbolic Z-matrix:
 Charge =  1 Multiplicity = 4

                         Standard orientation:
 ---------------------------------------------------------------------
 Center     Atomic      Atomic             Coordinates (Angstroms)
 Number     Number       Type             X           Y           Z
 ---------------------------------------------------------------------
      1          6           0        0.000283    0.711740    0.000128
      2          1           0       -0.183800    1.311835    0.903373
      3          1           0        0.185434    1.312689   -0.902564
      4          6           0       -0.910816   -0.401706   -0.164941
      5          6           0        0.909904   -0.402365    0.164470
      6          1           0       -1.503188   -1.035305    0.487871
      7          1           0        1.505325   -1.035236   -0.486625
 ---------------------------------------------------------------------

 SCF Done:  E(UB3LYP) =  -116.198047440     A.U. after   12 cycles

 The electronic state is 4-A.
 Alpha  occ. eigenvalues --  -10.53363 -10.53355 -10.47782  -1.14875  -0.90522
 Alpha  occ. eigenvalues --   -0.87275  -0.75245  -0.75100  -0.68574  -0.56276
 Alpha  occ. eigenvalues --   -0.54084  -0.53039
 Alpha virt. eigenvalues --   -0.28053  -0.16608  -0.16093  -0.15335  -0.12665
 Alpha virt. eigenvalues --   -0.09502  -0.08862  -0.06968  -0.06463  -0.06248
 Alpha virt. eigenvalues --   -0.06154  -0.05773  -0.02279  -0.01981  -0.01416

  Beta  occ. eigenvalues --  -10.50996 -10.50990 -10.47770  -1.11161  -0.84640
  Beta  occ. eigenvalues --   -0.83391  -0.72833  -0.71156  -0.66463
  Beta virt. eigenvalues --   -0.41794  -0.36855  -0.33494  -0.20634  -0.16171
  Beta virt. eigenvalues --   -0.14887  -0.14539  -0.11599  -0.09218  -0.08346
  Beta virt. eigenvalues --   -0.06102  -0.05446  -0.04895  -0.04858  -0.04415

 Mulliken charges and spin densities:
               1          2
     1  C    0.174884  -0.183514
     2  H    0.216739   0.101054
     3  H    0.216587   0.100964
     4  C   -0.067559   1.476656
     5  C   -0.067713   1.476702
     6  H    0.263602   0.014120
     7  H    0.263459   0.014018
 Sum of Mulliken charges =   1.00000   3.00000

 Dipole moment (field-independent basis, Debye):
    X=              0.0025    Y=             -0.1449    Z=              0.0008  Tot=              0.1450
 Quadrupole moment (field-independent basis, Debye-Ang):
   XX=            -11.0657   YY=            -11.9400   ZZ=            -15.5846
   XY=             -0.0005   XZ=             -1.9949   YZ=             -0.0007

  Exact polarizability:  34.771  -0.002  29.136   0.119  -0.002  23.353
 Approx polarizability:  52.933  -0.005  40.241   2.500  -0.003  32.111

                      1                      2                      3
                      A                      A                      A
 Frequencies --    451.1157               684.7271               720.2138
 Red. masses --      4.3547                 1.2427                 1.0457
 Frc consts  --      0.5221                 0.3433                 0.3196
 IR Inten    --      0.0674                11.4183                25.4113

                      4                      5                      6
                      A                      A                      A
 Frequencies --    740.1518               841.6602               852.2183
 Red. masses --      1.1109                 1.2431                 4.4540
 Frc consts  --      0.3586                 0.5188                 1.9059
 IR Inten    --     39.0918                 1.6865                 3.1735

                      7                      8                      9
                      A                      A                      A
 Frequencies --   1028.8949              1096.5552              1103.1182
 Red. masses --      1.5451                 1.1753                 1.2021
 Frc consts  --      0.9637                 0.8326                 0.8618
 IR Inten    --      2.1698                 2.3609                23.9070

                     10                     11                     12
                      A                      A                      A
 Frequencies --   1200.0599              1376.2257              2935.6177
 Red. masses --      4.2582                 1.1631                 1.0478
 Frc consts  --      3.6131                 1.2979                 5.3200
 IR Inten    --      0.8406                24.2622                57.9263

                     13                     14                     15
                      A                      A                      A
 Frequencies --   3007.2876              3173.7829              3182.7722
 Red. masses --      1.1119                 1.0898                 1.0951
 Frc consts  --      5.9248                 6.4675                 6.5358
 IR Inten    --     42.8312                96.1665                26.4458

 - Thermochemistry -
 -------------------
 Temperature   298.150 Kelvin.  Pressure   1.00000 Atm.
 Atom     1 has atomic number  6 and mass  12.00000

 Molecular mass:    40.03130 amu.
 Principal axes and moments of inertia in atomic units:
                           1         2         3
     Eigenvalues --    65.02683  97.46471 143.72562
           X            0.99669   0.00001  -0.08128
           Y           -0.00002   1.00000  -0.00008
           Z            0.08128   0.00008   0.99669
 This molecule is an asymmetric top.
 Rotational symmetry number  1.
 Rotational temperatures (Kelvin)      1.33197     0.88867     0.60263
 Rotational constants (GHZ):          27.75379    18.51687    12.55685
 Zero-point vibrational energy     133948.3 (Joules/Mol)
                                   32.01440 (Kcal/Mol)
 Warning -- explicit consideration of   1 degrees of freedom as
           vibrations may cause significant error
 Vibrational temperatures:    649.05   985.17  1036.23  1064.91  1210.96
          (Kelvin)           1226.15  1480.35  1577.70  1587.14  1726.62
                             1980.08  4223.69  4326.81  4566.36  4579.29

 Zero-point correction=                           0.051018 (Hartree/Particle)
 Thermal correction to Energy=                    0.054675
 Thermal correction to Enthalpy=                  0.055619
 Thermal correction to Gibbs Free Energy=         0.025468
 Sum of electronic and zero-point Energies=           -116.147029
 Sum of electronic and thermal Energies=              -116.143373
 Sum of electronic and thermal Enthalpies=            -116.142429
 Sum of electronic and thermal Free Energies=         -116.172579

                     E (Thermal)             CV                S
                      KCal/Mol        Cal/Mol-Kelvin    Cal/Mol-Kelvin
 Total                   34.309             12.104             63.457
 Electronic               0.000              0.000              2.755
 Translational            0.889              2.981             36.989
 Rotational               0.889              2.981             21.437
 Vibrational             32.531              6.143              2.276
 Vibration     1          0.810              1.358              0.792

 Normal termination of Gaussian 09 at Tue Jun 21 20:44:23 2016.
