 Gaussian 09, Revision E.01,
 Gaussian 09:  EM64L-G09RevE.01 30-Nov-2015

 ---------------------------------------------
 #p b3lyp/6-311++G(3df,2p) freq symmetry=Loose
 ---------------------------------------------

 ---------
 b3lyp opt
 ---------
 Symbolic Z-matrix:
 Charge =  2 Multiplicity = 1

                         Standard orientation:
 ---------------------------------------------------------------------
 Center     Atomic      Atomic             Coordinates (Angstroms)
 Number     Number       Type             X           Y           Z
 ---------------------------------------------------------------------
      1          6           0       -0.699985   -0.691409    0.000000
      2          1           0       -0.345896   -1.723811    0.000000
      3          1           0       -1.841732   -0.584551    0.488811
      4          1           0       -1.841732   -0.584551   -0.488811
      5          6           0       -0.000000    0.469808   -0.000000
      6          6           0        1.444723    0.455246   -0.000000
      7          1           0       -0.439071    1.491048   -0.000000
 ---------------------------------------------------------------------

 SCF Done:  E(RB3LYP) =  -115.582170997     A.U. after   11 cycles

 The electronic state is 1-A'.
 Alpha  occ. eigenvalues --  -10.89269 -10.80152 -10.76666  -1.38872  -1.26636
 Alpha  occ. eigenvalues --   -1.09064  -1.06109  -0.96582  -0.89029  -0.84071
 Alpha virt. eigenvalues --   -0.70872  -0.65582  -0.53067  -0.46419  -0.38203
 Alpha virt. eigenvalues --   -0.35568  -0.33828  -0.31575  -0.28736  -0.28502
 Alpha virt. eigenvalues --   -0.27260  -0.22499  -0.22356  -0.20419  -0.19614

 Mulliken charges:
               1
     1  C   -0.035826
     2  H    0.327330
     3  H    0.282194
     4  H    0.282194
     5  C    0.521401
     6  C    0.346341
     7  H    0.276365
 Sum of Mulliken charges =   2.00000

 Dipole moment (field-independent basis, Debye):
    X=             -3.7836    Y=             -0.6470    Z=              0.0000  Tot=              3.8386
 Quadrupole moment (field-independent basis, Debye-Ang):
   XX=              0.9573   YY=             -5.7470   ZZ=            -14.3627
   XY=              5.4688   XZ=             -0.0000   YZ=             -0.0000

  Exact polarizability:  40.410   9.355  29.886   0.000   0.000  19.779
 Approx polarizability:  79.830  25.757  52.355   0.000   0.000  29.544

                      1                      2                      3
                     A'                     A"                     A"
 Frequencies --    275.3539               341.0935               487.6317
 Red. masses --      3.8298                 1.4968                 1.0845
 Frc consts  --      0.1711                 0.1026                 0.1519
 IR Inten    --      0.8092                38.4513                 5.8230

                      4                      5                      6
                     A'                     A"                     A'
 Frequencies --    827.1483               864.0566               949.5292
 Red. masses --      1.4319                 1.4369                 2.0165
 Frc consts  --      0.5772                 0.6321                 1.0712
 IR Inten    --     32.8807                11.6367               331.7585

                      7                      8                      9
                     A"                     A'                     A'
 Frequencies --    967.4521              1142.4064              1238.2733
 Red. masses --      1.1128                 1.1087                 1.7193
 Frc consts  --      0.6136                 0.8525                 1.5533
 IR Inten    --     80.2965               498.6718                48.8606

                     10                     11                     12
                     A'                     A'                     A"
 Frequencies --   1458.0615              1581.5733              1902.8050
 Red. masses --      2.1324                 1.6681                 1.0259
 Frc consts  --      2.6710                 2.4583                 2.1885
 IR Inten    --     33.5387               261.2605               173.0706

                     13                     14                     15
                     A'                     A'                     A'
 Frequencies --   2463.7056              2902.3715              3123.8912
 Red. masses --      1.0640                 1.0866                 1.1024
 Frc consts  --      3.8052                 5.3930                 6.3387
 IR Inten    --    116.3175               233.4136               137.0829

 - Thermochemistry -
 -------------------
 Temperature   298.150 Kelvin.  Pressure   1.00000 Atm.
 Atom     1 has atomic number  6 and mass  12.00000

 Molecular mass:    40.03130 amu.
 Principal axes and moments of inertia in atomic units:
                           1         2         3
     Eigenvalues --    31.57481 165.89995 194.03502
           X            0.88148  -0.47222   0.00000
           Y            0.47222   0.88148   0.00000
           Z            0.00000  -0.00000   1.00000
 This molecule is an asymmetric top.
 Rotational symmetry number  1.
 Rotational temperatures (Kelvin)      2.74313     0.52208     0.44638
 Rotational constants (GHZ):          57.15763    10.87849     9.30111
 Zero-point vibrational energy     122768.9 (Joules/Mol)
                                   29.34247 (Kcal/Mol)
 Warning -- explicit consideration of   3 degrees of freedom as
           vibrations may cause significant error
 Vibrational temperatures:    396.17   490.76   701.59  1190.08  1243.18
          (Kelvin)           1366.16  1391.95  1643.67  1781.60  2097.82
                             2275.53  2737.71  3544.72  4175.86  4494.58

 Zero-point correction=                           0.046760 (Hartree/Particle)
 Thermal correction to Energy=                    0.050914
 Thermal correction to Enthalpy=                  0.051858
 Thermal correction to Gibbs Free Energy=         0.022079
 Sum of electronic and zero-point Energies=           -115.535411
 Sum of electronic and thermal Energies=              -115.531257
 Sum of electronic and thermal Enthalpies=            -115.530313
 Sum of electronic and thermal Free Energies=         -115.560092

                     E (Thermal)             CV                S
                      KCal/Mol        Cal/Mol-Kelvin    Cal/Mol-Kelvin
 Total                   31.949             13.149             62.675
 Electronic               0.000              0.000              0.000
 Translational            0.889              2.981             36.989
 Rotational               0.889              2.981             21.546
 Vibrational             30.172              7.187              4.140
 Vibration     1          0.677              1.719              1.562
 Vibration     2          0.721              1.593              1.207
 Vibration     3          0.844              1.277              0.690

 Optimization completed.
    -- Stationary point found.
 Normal termination of Gaussian 09 at Tue Jul 19 16:13:34 2016.
