 Gaussian 09, Revision E.01,
 Gaussian 09:  EM64L-G09RevE.01 30-Nov-2015

 ---------------------------------------------
 #p b3lyp/6-311++G(3df,2p) freq symmetry=Loose
 ---------------------------------------------

 ---------
 b3lyp opt
 ---------
 Symbolic Z-matrix:
 Charge =  1 Multiplicity = 2

                         Standard orientation:
 ---------------------------------------------------------------------
 Center     Atomic      Atomic             Coordinates (Angstroms)
 Number     Number       Type             X           Y           Z
 ---------------------------------------------------------------------
      1          6           0       -0.824364   -0.000458   -0.000108
      2          1           0       -1.459692    0.379876    0.816806
      3          1           0       -1.460711   -0.380669   -0.816386
      4          6           0        0.492320   -0.656745    0.076959
      5          6           0        0.491583    0.657101   -0.076507
      6          1           0        0.982615   -1.617157    0.003755
      7          1           0        0.980553    1.618562   -0.006238
 ---------------------------------------------------------------------

 SCF Done:  E(UB3LYP) =  -116.314095129     A.U. after   13 cycles

 The electronic state is 2-A.
 Alpha  occ. eigenvalues --  -10.51051 -10.50961 -10.47578  -1.19519  -0.89117
 Alpha  occ. eigenvalues --   -0.85668  -0.79192  -0.73097  -0.64862  -0.61502
 Alpha  occ. eigenvalues --   -0.53569
 Alpha virt. eigenvalues --   -0.30593  -0.16988  -0.16439  -0.14782  -0.12809
 Alpha virt. eigenvalues --   -0.12434  -0.11510  -0.08227  -0.08060  -0.06271
 Alpha virt. eigenvalues --   -0.05224  -0.04334  -0.03911  -0.01887  -0.01786

  Beta  occ. eigenvalues --  -10.50502 -10.50416 -10.47350  -1.17690  -0.87029
  Beta  occ. eigenvalues --   -0.84390  -0.78287  -0.69867  -0.63618  -0.60503
  Beta virt. eigenvalues --   -0.42967  -0.27210  -0.16131  -0.16096  -0.14543
  Beta virt. eigenvalues --   -0.12475  -0.11876  -0.11212  -0.08148  -0.07980
  Beta virt. eigenvalues --   -0.05758  -0.04473  -0.03708  -0.03670  -0.01713

 Mulliken charges and spin densities:
               1          2
     1  C   -0.247335   0.085014
     2  H    0.225467   0.105314
     3  H    0.225386   0.105014
     4  C    0.104008   0.354609
     5  C    0.105686   0.355135
     6  H    0.293174  -0.002552
     7  H    0.293614  -0.002535
 Sum of Mulliken charges =   1.00000   1.00000

 Dipole moment (field-independent basis, Debye):
    X=              0.1074    Y=              0.0016    Z=             -0.0015  Tot=              0.1074
 Quadrupole moment (field-independent basis, Debye-Ang):
   XX=            -10.9698   YY=            -10.3036   ZZ=            -15.4094
   XY=             -0.0018   XZ=             -0.0021   YZ=              0.6717

  Exact polarizability:  32.455  -0.002  29.523   0.001  -0.159  20.753
 Approx polarizability:  48.254  -0.007  46.419   0.005  -1.802  30.062

                      1                      2                      3
                      A                      A                      A
 Frequencies --    403.3894               557.0786               700.3065
 Red. masses --      1.3127                 1.8305                 1.0778
 Frc consts  --      0.1259                 0.3347                 0.3114
 IR Inten    --      6.5317                36.0537                44.1922

                      4                      5                      6
                      A                      A                      A
 Frequencies --    821.9680               906.1497               924.3801
 Red. masses --      1.8061                 1.5832                 1.1932
 Frc consts  --      0.7189                 0.7659                 0.6007
 IR Inten    --     30.1229                17.2387                22.4407

                      7                      8                      9
                      A                      A                      A
 Frequencies --   1013.6213              1028.7159              1119.6628
 Red. masses --      1.4137                 1.4965                 2.2310
 Frc consts  --      0.8558                 0.9331                 1.6478
 IR Inten    --     31.1340                14.5452                 6.6409

                     10                     11                     12
                      A                      A                      A
 Frequencies --   1308.9448              1564.9902              2914.9328
 Red. masses --      1.0651                 4.6287                 1.0472
 Frc consts  --      1.0752                 6.6794                 5.2423
 IR Inten    --     59.5284                16.0721               102.2384

                     13                     14                     15
                      A                      A                      A
 Frequencies --   2940.9084              3213.5567              3256.0048
 Red. masses --      1.0986                 1.0867                 1.1388
 Frc consts  --      5.5980                 6.6120                 7.1131
 IR Inten    --     65.7233               136.1344                26.8094

 - Thermochemistry -
 -------------------
 Temperature   298.150 Kelvin.  Pressure   1.00000 Atm.
 Atom     1 has atomic number  6 and mass  12.00000

 Molecular mass:    40.03130 amu.
 Principal axes and moments of inertia in atomic units:
                           1         2         3
     Eigenvalues --    62.17221  77.28203 129.02275
           X            1.00000  -0.00008  -0.00012
           Y            0.00008   0.99914   0.04146
           Z            0.00011  -0.04146   0.99914
 This molecule is an asymmetric top.
 Rotational symmetry number  1.
 Rotational temperatures (Kelvin)      1.39313     1.12075     0.67131
 Rotational constants (GHZ):          29.02810    23.35266    13.98777
 Zero-point vibrational energy     135624.3 (Joules/Mol)
                                   32.41498 (Kcal/Mol)
 Warning -- explicit consideration of   2 degrees of freedom as
           vibrations may cause significant error
 Vibrational temperatures:    580.39   801.51  1007.58  1182.63  1303.75
          (Kelvin)           1329.98  1458.37  1480.09  1610.94  1883.28
                             2251.67  4193.93  4231.31  4623.59  4684.66

 Zero-point correction=                           0.051657 (Hartree/Particle)
 Thermal correction to Energy=                    0.055373
 Thermal correction to Enthalpy=                  0.056317
 Thermal correction to Gibbs Free Energy=         0.026894
 Sum of electronic and zero-point Energies=           -116.262439
 Sum of electronic and thermal Energies=              -116.258722
 Sum of electronic and thermal Enthalpies=            -116.257778
 Sum of electronic and thermal Free Energies=         -116.287201

                     E (Thermal)             CV                S
                      KCal/Mol        Cal/Mol-Kelvin    Cal/Mol-Kelvin
 Total                   34.747             12.129             61.925
 Electronic               0.000              0.000              1.377
 Translational            0.889              2.981             36.989
 Rotational               0.889              2.981             21.055
 Vibrational             32.969              6.167              2.503
 Vibration     1          0.769              1.463              0.950
 Vibration     2          0.913              1.124              0.530

 Optimization completed.
    -- Stationary point found.
 Normal termination of Gaussian 09 at Sun Jun 19 15:14:39 2016.
