 Gaussian 09, Revision E.01,
 Gaussian 09:  EM64L-G09RevE.01 30-Nov-2015

 ---------------------------------------------
 #p b3lyp/6-311++G(3df,2p) freq symmetry=Loose
 ---------------------------------------------

 ---------
 b3lyp opt
 ---------
 Symbolic Z-matrix:
 Charge =  0 Multiplicity = 3

                         Standard orientation:
 ---------------------------------------------------------------------
 Center     Atomic      Atomic             Coordinates (Angstroms)
 Number     Number       Type             X           Y           Z
 ---------------------------------------------------------------------
      1          6           0       -0.000000    0.722383   -0.504827
      2          6           0        0.000000   -0.722383   -0.504827
      3          6           0       -0.000000   -0.000000    0.806710
      4          1           0       -0.826020   -1.360316   -0.797118
      5          1           0        0.826020    1.360316   -0.797118
      6          1           0       -0.891323   -0.166704    1.405936
      7          1           0        0.891323    0.166704    1.405936
 ---------------------------------------------------------------------

 SCF Done:  E(UB3LYP) =  -116.568016600     A.U. after   12 cycles

 The electronic state is 3-B.
 Alpha  occ. eigenvalues --  -10.20363 -10.20325 -10.20316  -0.88360  -0.61769
 Alpha  occ. eigenvalues --   -0.59179  -0.48409  -0.46664  -0.36446  -0.34170
 Alpha  occ. eigenvalues --   -0.26069  -0.20187
 Alpha virt. eigenvalues --   -0.00165   0.00841   0.01714   0.03051   0.06509
 Alpha virt. eigenvalues --    0.07432   0.07810   0.08764   0.09702   0.10034
 Alpha virt. eigenvalues --    0.12530   0.12751   0.13152   0.14461   0.14752

  Beta  occ. eigenvalues --  -10.20168 -10.18933 -10.18899  -0.85990  -0.59887
  Beta  occ. eigenvalues --   -0.56346  -0.46611  -0.43439  -0.33614  -0.32208
  Beta virt. eigenvalues --   -0.12259  -0.04771  -0.00011   0.01096   0.01861
  Beta virt. eigenvalues --    0.03268   0.06679   0.07565   0.07930   0.09473
  Beta virt. eigenvalues --    0.10881   0.11023   0.12884   0.13117   0.13380

 Mulliken charges and spin densities:
               1          2
     1  C   -0.170644   0.904152
     2  C   -0.170644   0.904152
     3  C   -0.242467   0.057358
     4  H    0.147520   0.020793
     5  H    0.147520   0.020793
     6  H    0.144357   0.046376
     7  H    0.144357   0.046376
 Sum of Mulliken charges =  -0.00000   2.00000

 Dipole moment (field-independent basis, Debye):
    X=              0.0000    Y=             -0.0000    Z=              0.8848  Tot=              0.8848
 Quadrupole moment (field-independent basis, Debye-Ang):
   XX=            -18.5890   YY=            -20.2715   ZZ=            -18.8383
   XY=              2.4643   XZ=              0.0000   YZ=              0.0000

  Exact polarizability:  30.990   1.673  38.580   0.000  -0.000  37.996
 Approx polarizability:  41.016   2.110  53.034   0.000   0.000  52.570

                      1                      2                      3
                      A                      B                      B
 Frequencies --    669.3250               696.3952               785.7261
 Red. masses --      1.3307                 1.6926                 1.0990
 Frc consts  --      0.3512                 0.4836                 0.3997
 IR Inten    --      6.9076                21.7485                35.4319

                      4                      5                      6
                      B                      A                      B
 Frequencies --    838.1250               934.8181              1005.2583
 Red. masses --      2.1021                 1.9075                 1.2743
 Frc consts  --      0.8700                 0.9822                 0.7587
 IR Inten    --     13.5749                19.2207                11.3682

                      7                      8                      9
                      A                      B                      A
 Frequencies --   1067.2330              1086.7967              1104.4185
 Red. masses --      1.3659                 1.4157                 1.3085
 Frc consts  --      0.9166                 0.9852                 0.9403
 IR Inten    --      0.0467                 3.8386                 0.5288

                     10                     11                     12
                      A                      A                      A
 Frequencies --   1287.3287              1435.7963              3065.0815
 Red. masses --      4.0527                 1.2126                 1.0506
 Frc consts  --      3.9570                 1.4728                 5.8154
 IR Inten    --      1.1933                 5.8887                 3.0707

                     13                     14                     15
                      B                      A                      B
 Frequencies --   3123.1991              3134.5563              3137.8433
 Red. masses --      1.0990                 1.0935                 1.0976
 Frc consts  --      6.3160                 6.3301                 6.3672
 IR Inten    --      6.7779                 2.4533                20.1895

 - Thermochemistry -
 -------------------
 Temperature   298.150 Kelvin.  Pressure   1.00000 Atm.
 Atom     1 has atomic number  6 and mass  12.00000

 Molecular mass:    40.03130 amu.
 Principal axes and moments of inertia in atomic units:
                           1         2         3
     Eigenvalues --    68.87384  77.33054 128.34587
           X            0.00000   0.18257   0.98319
           Y            0.00000   0.98319  -0.18257
           Z            1.00000   0.00000  -0.00000
 This molecule is an asymmetric top.
 Rotational symmetry number  2.
 Rotational temperatures (Kelvin)      1.25757     1.12005     0.67485
 Rotational constants (GHZ):          26.20358    23.33801    14.06154
 Zero-point vibrational energy     139795.0 (Joules/Mol)
                                   33.41181 (Kcal/Mol)
 Vibrational temperatures:    963.01  1001.96  1130.48  1205.87  1344.99
          (Kelvin)           1446.34  1535.51  1563.66  1589.01  1852.18
                             2065.79  4409.96  4493.58  4509.92  4514.65

 Zero-point correction=                           0.053245 (Hartree/Particle)
 Thermal correction to Energy=                    0.056649
 Thermal correction to Enthalpy=                  0.057593
 Thermal correction to Gibbs Free Energy=         0.028869
 Sum of electronic and zero-point Energies=           -116.514771
 Sum of electronic and thermal Energies=              -116.511368
 Sum of electronic and thermal Enthalpies=            -116.510424
 Sum of electronic and thermal Free Energies=         -116.539148

                     E (Thermal)             CV                S
                      KCal/Mol        Cal/Mol-Kelvin    Cal/Mol-Kelvin
 Total                   35.548             10.902             60.455
 Electronic               0.000              0.000              2.183
 Translational            0.889              2.981             36.989
 Rotational               0.889              2.981             19.775
 Vibrational             33.770              4.941              1.508

 Optimization completed.
    -- Stationary point found.
 Normal termination of Gaussian 09 at Tue Jul 19 18:28:10 2016.
