 Gaussian 09, Revision E.01,
 Gaussian 09:  EM64L-G09RevE.01 30-Nov-2015

 ---------------------------------------------
 #p b3lyp/6-311++G(3df,2p) freq symmetry=Loose
 ---------------------------------------------

 ---------
 b3lyp opt
 ---------
 Symbolic Z-matrix:
 Charge =  1 Multiplicity = 4

                         Standard orientation:
 ---------------------------------------------------------------------
 Center     Atomic      Atomic             Coordinates (Angstroms)
 Number     Number       Type             X           Y           Z
 ---------------------------------------------------------------------
      1          6           0        1.210609   -0.177922   -0.000882
      2          1           0        1.420821   -1.129608   -0.484323
      3          1           0        2.009024    0.300388    0.563306
      4          6           0       -0.075746    0.402352   -0.048509
      5          1           0       -0.152311    1.473167   -0.283692
      6          1           0       -2.330870   -0.123335   -0.139928
      7          6           0       -1.292640   -0.311199    0.106831
 ---------------------------------------------------------------------

 SCF Done:  E(UB3LYP) =  -116.231103408     A.U. after   12 cycles

 The electronic state is 4-A.
 Alpha  occ. eigenvalues --  -10.53038 -10.50740 -10.46374  -1.10212  -0.96501
 Alpha  occ. eigenvalues --   -0.83118  -0.76081  -0.70961  -0.69200  -0.60014
 Alpha  occ. eigenvalues --   -0.52947  -0.48550
 Alpha virt. eigenvalues --   -0.30494  -0.16595  -0.14322  -0.13112  -0.11848
 Alpha virt. eigenvalues --   -0.10685  -0.08184  -0.07248  -0.07145  -0.06447
 Alpha virt. eigenvalues --   -0.04807  -0.03624  -0.03264  -0.01584  -0.00937

  Beta  occ. eigenvalues --  -10.52422 -10.48047 -10.45109  -1.05549  -0.91061
  Beta  occ. eigenvalues --   -0.79345  -0.73562  -0.68811  -0.66574
  Beta virt. eigenvalues --   -0.45933  -0.33928  -0.33024  -0.22430  -0.16030
  Beta virt. eigenvalues --   -0.13537  -0.12424  -0.11030  -0.09740  -0.07435
  Beta virt. eigenvalues --   -0.06355  -0.05922  -0.05453  -0.04041  -0.02953

 Mulliken charges and spin densities:
               1          2
     1  C   -0.178410   0.835333
     2  H    0.227656   0.014179
     3  H    0.228389   0.014979
     4  C    0.326535   0.385188
     5  H    0.228642   0.062508
     6  H    0.260038   0.013867
     7  C   -0.092849   1.673945
 Sum of Mulliken charges =   1.00000   3.00000

 Dipole moment (field-independent basis, Debye):
    X=             -0.2507    Y=              0.7602    Z=             -0.2275  Tot=              0.8322
 Quadrupole moment (field-independent basis, Debye-Ang):
   XX=             -5.6941   YY=            -13.9949   ZZ=            -16.6230
   XY=             -0.7166   XZ=              0.8246   YZ=              0.4882

  Exact polarizability:  50.204   0.300  26.892  -0.370  -0.057  21.192
 Approx polarizability:  70.256   0.779  36.884  -1.548  -0.041  29.209

                      1                      2                      3
                      A                      A                      A
 Frequencies --    394.7832               426.5192               581.0672
 Red. masses --      1.9001                 1.1707                 1.2942
 Frc consts  --      0.1745                 0.1255                 0.2575
 IR Inten    --      7.8347                27.7823                29.4720

                      4                      5                      6
                      A                      A                      A
 Frequencies --    648.7337               787.2093               863.5732
 Red. masses --      1.2339                 1.1594                 1.5162
 Frc consts  --      0.3060                 0.4233                 0.6662
 IR Inten    --     40.0957                 1.6072                48.6512

                      7                      8                      9
                      A                      A                      A
 Frequencies --    954.2486              1127.4660              1188.3967
 Red. masses --      1.8387                 3.0137                 1.4651
 Frc consts  --      0.9865                 2.2571                 1.2191
 IR Inten    --      4.5723                17.8545                63.1859

                     10                     11                     12
                      A                      A                      A
 Frequencies --   1365.7839              1422.8965              3004.5318
 Red. masses --      1.1620                 3.1368                 1.0823
 Frc consts  --      1.2771                 3.7418                 5.7566
 IR Inten    --     32.7368                89.5947                23.5978

                     13                     14                     15
                      A                      A                      A
 Frequencies --   3069.4525              3172.6081              3200.9071
 Red. masses --      1.0478                 1.1150                 1.0940
 Frc consts  --      5.8163                 6.6121                 6.6041
 IR Inten    --    139.7040                51.3529                94.9326

 - Thermochemistry -
 -------------------
 Temperature   298.150 Kelvin.  Pressure   1.00000 Atm.
 Atom     1 has atomic number  6 and mass  12.00000

 Molecular mass:    40.03130 amu.
 Principal axes and moments of inertia in atomic units:
                           1         2         3
     Eigenvalues --    28.00942 178.95171 201.30189
           X            0.99962  -0.02261   0.01556
           Y            0.02186   0.99866   0.04694
           Z           -0.01660  -0.04658   0.99878
 This molecule is an asymmetric top.
 Rotational symmetry number  1.
 Rotational temperatures (Kelvin)      3.09231     0.48401     0.43027
 Rotational constants (GHZ):          64.43337    10.08507     8.96535
 Zero-point vibrational energy     132834.4 (Joules/Mol)
                                   31.74818 (Kcal/Mol)
 Warning -- explicit consideration of   3 degrees of freedom as
           vibrations may cause significant error
 Vibrational temperatures:    568.00   613.67   836.03   933.38  1132.62
          (Kelvin)           1242.49  1372.95  1622.17  1709.84  1965.06
                             2047.23  4322.85  4416.25  4564.67  4605.39

 Zero-point correction=                           0.050594 (Hartree/Particle)
 Thermal correction to Energy=                    0.054574
 Thermal correction to Enthalpy=                  0.055519
 Thermal correction to Gibbs Free Energy=         0.024816
 Sum of electronic and zero-point Energies=           -116.180509
 Sum of electronic and thermal Energies=              -116.176529
 Sum of electronic and thermal Enthalpies=            -116.175585
 Sum of electronic and thermal Free Energies=         -116.206288

                     E (Thermal)             CV                S
                      KCal/Mol        Cal/Mol-Kelvin    Cal/Mol-Kelvin
 Total                   34.246             13.199             64.619
 Electronic               0.000              0.000              2.755
 Translational            0.889              2.981             36.989
 Rotational               0.889              2.981             21.539
 Vibrational             32.469              7.237              3.336
 Vibration     1          0.762              1.481              0.982
 Vibration     2          0.788              1.413              0.870
 Vibration     3          0.938              1.072              0.483

 Optimization completed.
    -- Stationary point found.
 Normal termination of Gaussian 09 at Sun Jun 19 15:17:05 2016.
