 Gaussian 09, Revision E.01,
 Gaussian 09:  EM64L-G09RevE.01 30-Nov-2015

 ---------------------------------------------
 #p b3lyp/6-311++G(3df,2p) freq symmetry=Loose
 ---------------------------------------------

 ---------
 b3lyp opt
 ---------
 Symbolic Z-matrix:
 Charge =  0 Multiplicity = 3

                         Standard orientation:
 ---------------------------------------------------------------------
 Center     Atomic      Atomic             Coordinates (Angstroms)
 Number     Number       Type             X           Y           Z
 ---------------------------------------------------------------------
      1          6           0        0.000000   -0.000000    0.924045
      2          6           0       -0.000000    0.812926   -0.256343
      3          6           0       -0.000000   -0.812926   -0.256343
      4          1           0       -0.912144    1.282737   -0.617037
      5          1           0        0.912144    1.282737   -0.617037
      6          1           0       -0.912144   -1.282737   -0.617037
      7          1           0        0.912144   -1.282737   -0.617037
 ---------------------------------------------------------------------

 SCF Done:  E(UB3LYP) =  -116.570936473     A.U. after   12 cycles

 The electronic state is 3-B1.
 Alpha  occ. eigenvalues --  -10.20762 -10.20749 -10.20457  -0.87900  -0.63689
 Alpha  occ. eigenvalues --   -0.57172  -0.49817  -0.41210  -0.39972  -0.35892
 Alpha  occ. eigenvalues --   -0.25364  -0.20592
 Alpha virt. eigenvalues --   -0.00508   0.00955   0.01809   0.03974   0.05350
 Alpha virt. eigenvalues --    0.06623   0.06896   0.09256   0.09871   0.10028
 Alpha virt. eigenvalues --    0.12202   0.12967   0.13477   0.13613   0.15109

  Beta  occ. eigenvalues --  -10.20542 -10.20532 -10.17862  -0.85470  -0.62502
  Beta  occ. eigenvalues --   -0.54292  -0.48070  -0.39096  -0.35287  -0.33822
  Beta virt. eigenvalues --   -0.11623  -0.04986  -0.00266   0.01041   0.01993
  Beta virt. eigenvalues --    0.04373   0.05363   0.06973   0.07084   0.09972
  Beta virt. eigenvalues --    0.10790   0.11065   0.12288   0.13268   0.13646

 Mulliken charges and spin densities:
               1          2
     1  C   -0.077789   1.644786
     2  C   -0.232421   0.098968
     3  C   -0.232421   0.098968
     4  H    0.135658   0.039319
     5  H    0.135658   0.039319
     6  H    0.135658   0.039319
     7  H    0.135658   0.039319
 Sum of Mulliken charges =   0.00000   2.00000

 Dipole moment (field-independent basis, Debye):
    X=              0.0000    Y=              0.0000    Z=             -1.6712  Tot=              1.6712
 Quadrupole moment (field-independent basis, Debye-Ang):
   XX=            -18.4023   YY=            -18.2578   ZZ=            -21.5954
   XY=              0.0000   XZ=              0.0000   YZ=              0.0000

  Exact polarizability:  31.326   0.000  39.287   0.000  -0.000  39.456
 Approx polarizability:  41.809  -0.000  53.523  -0.000   0.000  58.336

                      1                      2                      3
                     A1                     B1                     A2
 Frequencies --    665.1513               790.9973               806.8129
 Red. masses --      6.3419                 1.0195                 1.0429
 Frc consts  --      1.6531                 0.3758                 0.4000
 IR Inten    --      1.7406                 1.0285                 0.0000

                      4                      5                      6
                     A1                     B2                     B2
 Frequencies --    982.1135              1032.7095              1048.8977
 Red. masses --      1.1280                 3.6081                 1.6663
 Frc consts  --      0.6410                 2.2672                 1.0801
 IR Inten    --     64.6935                17.4375                 0.0029

                      7                      8                      9
                     B1                     A2                     A1
 Frequencies --   1050.5621              1050.9299              1271.9765
 Red. masses --      1.3862                 1.2981                 3.6704
 Frc consts  --      0.9014                 0.8447                 3.4988
 IR Inten    --      0.3940                 0.0000                 9.3846

                     10                     11                     12
                     B2                     A1                     B2
 Frequencies --   1456.6266              1485.3208              3052.1258
 Red. masses --      1.0881                 1.2748                 1.0459
 Frc consts  --      1.3602                 1.6570                 5.7404
 IR Inten    --      0.4123                 0.2075                18.7150

                     13                     14                     15
                     A1                     A2                     B1
 Frequencies --   3054.0721              3114.3234              3121.7515
 Red. masses --      1.0518                 1.1157                 1.1147
 Frc consts  --      5.7804                 6.3755                 6.4001
 IR Inten    --     14.6232                 0.0000                27.1104

 - Thermochemistry -
 -------------------
 Temperature   298.150 Kelvin.  Pressure   1.00000 Atm.
 Atom     1 has atomic number  6 and mass  12.00000

 Molecular mass:    40.03130 amu.
 Principal axes and moments of inertia in atomic units:
                           1         2         3
     Eigenvalues --    59.14583  92.30341 127.49407
           X           -0.00000   0.00000   1.00000
           Y            1.00000   0.00000   0.00000
           Z           -0.00000   1.00000  -0.00000
 This molecule is an asymmetric top.
 Rotational symmetry number  2.
 Rotational temperatures (Kelvin)      1.46441     0.93836     0.67936
 Rotational constants (GHZ):          30.51341    19.55227    14.15549
 Zero-point vibrational energy     143458.4 (Joules/Mol)
                                   34.28738 (Kcal/Mol)
 Vibrational temperatures:    957.00  1138.07  1160.82  1413.04  1485.84
          (Kelvin)           1509.13  1511.52  1512.05  1830.09  2095.76
                             2137.04  4391.32  4394.12  4480.81  4491.50

 Zero-point correction=                           0.054640 (Hartree/Particle)
 Thermal correction to Energy=                    0.057945
 Thermal correction to Enthalpy=                  0.058889
 Thermal correction to Gibbs Free Energy=         0.030285
 Sum of electronic and zero-point Energies=           -116.516296
 Sum of electronic and thermal Energies=              -116.512992
 Sum of electronic and thermal Enthalpies=            -116.512048
 Sum of electronic and thermal Free Energies=         -116.540651

                     E (Thermal)             CV                S
                      KCal/Mol        Cal/Mol-Kelvin    Cal/Mol-Kelvin
 Total                   36.361             10.210             60.201
 Electronic               0.000              0.000              2.183
 Translational            0.889              2.981             36.989
 Rotational               0.889              2.981             19.793
 Vibrational             34.583              4.248              1.236

 Optimization completed.
    -- Stationary point found.
 Normal termination of Gaussian 09 at Tue Jul 19 18:22:27 2016.
