 Gaussian 09, Revision E.01,
 Gaussian 09:  EM64L-G09RevE.01 30-Nov-2015

 ---------------------------------------------
 #p b3lyp/6-311++G(3df,2p) freq symmetry=Loose
 ---------------------------------------------

 ---------
 b3lyp opt
 ---------
 Symbolic Z-matrix:
 Charge =  1 Multiplicity = 4

                         Standard orientation:
 ---------------------------------------------------------------------
 Center     Atomic      Atomic             Coordinates (Angstroms)
 Number     Number       Type             X           Y           Z
 ---------------------------------------------------------------------
      1          6           0        0.969078   -0.486312    0.000000
      2          6           0        0.000000    0.815945    0.000000
      3          6           0       -0.668052   -0.480879   -0.000000
      4          1           0        0.122996    1.355467    0.936209
      5          1           0        0.122996    1.355467   -0.936209
      6          1           0       -1.026074   -0.901727    0.936475
      7          1           0       -1.026074   -0.901727   -0.936475
 ---------------------------------------------------------------------

 SCF Done:  E(UB3LYP) =  -116.179047984     A.U. after   12 cycles

 The electronic state is 4-A".
 Alpha  occ. eigenvalues --  -10.56549 -10.50955 -10.50842  -1.16193  -0.90288
 Alpha  occ. eigenvalues --   -0.85975  -0.77845  -0.72529  -0.66222  -0.60640
 Alpha  occ. eigenvalues --   -0.60075  -0.51647
 Alpha virt. eigenvalues --   -0.21020  -0.17641  -0.16665  -0.15342  -0.14978
 Alpha virt. eigenvalues --   -0.10126  -0.08559  -0.07155  -0.06888  -0.05861
 Alpha virt. eigenvalues --   -0.05666  -0.04306  -0.03601  -0.02227  -0.01834

  Beta  occ. eigenvalues --  -10.52510 -10.50419 -10.50324  -1.12174  -0.87682
  Beta  occ. eigenvalues --   -0.77977  -0.76201  -0.68010  -0.65242
  Beta virt. eigenvalues --   -0.44718  -0.42784  -0.31214  -0.17116  -0.14858
  Beta virt. eigenvalues --   -0.14725  -0.14460  -0.13465  -0.09844  -0.08483
  Beta virt. eigenvalues --   -0.06263  -0.05813  -0.04981  -0.04132  -0.02570

 Mulliken charges and spin densities:
               1          2
     1  C    0.180789   2.302146
     2  C   -0.058264   0.292564
     3  C   -0.069974   0.311279
     4  H    0.236292   0.024840
     5  H    0.236292   0.024840
     6  H    0.237433   0.022165
     7  H    0.237433   0.022165
 Sum of Mulliken charges =   1.00000   3.00000

 Dipole moment (field-independent basis, Debye):
    X=             -0.6379    Y=              0.3047    Z=             -0.0000  Tot=              0.7069
 Quadrupole moment (field-independent basis, Debye-Ang):
   XX=            -13.7062   YY=            -11.9249   ZZ=            -14.2001
   XY=              1.2606   XZ=              0.0000   YZ=              0.0000

  Exact polarizability:  30.590  -0.226  30.077   0.000  -0.000  24.032
 Approx polarizability:  48.905  -3.268  43.710  -0.000  -0.000  32.338

                      1                      2                      3
                     A'                     A"                     A'
 Frequencies --    130.0510               689.5130               744.4935
 Red. masses --      8.4821                 1.1686                 6.5988
 Frc consts  --      0.0845                 0.3274                 2.1550
 IR Inten    --     15.4399                 4.1340                 1.4186

                      4                      5                      6
                     A"                     A"                     A'
 Frequencies --    838.1345               911.0772              1069.4114
 Red. masses --      1.0665                 1.0120                 1.2441
 Frc consts  --      0.4414                 0.4949                 0.8383
 IR Inten    --      3.2058                 0.0263                21.0943

                      7                      8                      9
                     A'                     A'                     A"
 Frequencies --   1091.2288              1166.3332              1187.1580
 Red. masses --      1.3513                 2.6138                 1.4222
 Frc consts  --      0.9480                 2.0949                 1.1810
 IR Inten    --     22.1924                36.8768                 0.0002

                     10                     11                     12
                     A'                     A'                     A'
 Frequencies --   1429.5955              1484.8041              3075.4673
 Red. masses --      1.1075                 1.2047                 1.0460
 Frc consts  --      1.3336                 1.5648                 5.8291
 IR Inten    --     14.1236                 1.3426                42.4789

                     13                     14                     15
                     A'                     A"                     A"
 Frequencies --   3079.5385              3187.3499              3191.7490
 Red. masses --      1.0535                 1.1262                 1.1211
 Frc consts  --      5.8867                 6.7409                 6.7287
 IR Inten    --     10.5474                20.1185                60.2929

 - Thermochemistry -
 -------------------
 Temperature   298.150 Kelvin.  Pressure   1.00000 Atm.
 Atom     1 has atomic number  6 and mass  12.00000

 Molecular mass:    40.03130 amu.
 Principal axes and moments of inertia in atomic units:
                           1         2         3
     Eigenvalues --    78.16959  81.42206 134.34859
           X            0.61275   0.79028   0.00000
           Y            0.79028  -0.61275   0.00000
           Z            0.00000   0.00000   1.00000
 This molecule is an asymmetric top.
 Rotational symmetry number  1.
 Rotational temperatures (Kelvin)      1.10802     1.06376     0.64469
 Rotational constants (GHZ):          23.08751    22.16526    13.43327
 Zero-point vibrational energy     139220.8 (Joules/Mol)
                                   33.27458 (Kcal/Mol)
 Warning -- explicit consideration of   1 degrees of freedom as
           vibrations may cause significant error
 Vibrational temperatures:    187.11   992.05  1071.16  1205.89  1310.84
          (Kelvin)           1538.64  1570.03  1678.09  1708.05  2056.87
                             2136.30  4424.91  4430.76  4585.88  4592.21

 Zero-point correction=                           0.053026 (Hartree/Particle)
 Thermal correction to Energy=                    0.056973
 Thermal correction to Enthalpy=                  0.057917
 Thermal correction to Gibbs Free Energy=         0.026935
 Sum of electronic and zero-point Energies=           -116.126022
 Sum of electronic and thermal Energies=              -116.122075
 Sum of electronic and thermal Enthalpies=            -116.121131
 Sum of electronic and thermal Free Energies=         -116.152113

                     E (Thermal)             CV                S
                      KCal/Mol        Cal/Mol-Kelvin    Cal/Mol-Kelvin
 Total                   35.751             11.767             65.207
 Electronic               0.000              0.000              2.755
 Translational            0.889              2.981             36.989
 Rotational               0.889              2.981             21.375
 Vibrational             33.974              5.805              4.088
 Vibration     1          0.612              1.923              2.945

 Normal termination of Gaussian 09 at Tue Jul 19 22:38:46 2016.
