 Gaussian 09, Revision E.01,
 Gaussian 09:  EM64L-G09RevE.01 30-Nov-2015

 ---------------------------------------------
 #p b3lyp/6-311++G(3df,2p) freq symmetry=Loose
 ---------------------------------------------

 ---------
 b3lyp opt
 ---------
 Symbolic Z-matrix:
 Charge =  2 Multiplicity = 1

                         Standard orientation:
 ---------------------------------------------------------------------
 Center     Atomic      Atomic             Coordinates (Angstroms)
 Number     Number       Type             X           Y           Z
 ---------------------------------------------------------------------
      1          6           0       -1.185879   -0.136165   -0.003747
      2          1           0       -1.704337   -0.345809    0.942182
      3          1           0       -1.706984   -0.287029   -0.959779
      4          6           0        0.195598    0.339354    0.009390
      5          1           0        0.515579    0.966335   -0.905416
      6          1           0        0.516337    0.909116    0.960961
      7          6           0        1.386849   -0.410291   -0.011967
 ---------------------------------------------------------------------

 SCF Done:  E(RB3LYP) =  -115.620834487     A.U. after   11 cycles

 The electronic state is 1-A.
 Alpha  occ. eigenvalues --  -10.90505 -10.83700 -10.76782  -1.40174  -1.24904
 Alpha  occ. eigenvalues --   -1.06192  -1.03599  -0.99489  -0.93938  -0.85933
 Alpha virt. eigenvalues --   -0.67528  -0.65812  -0.63770  -0.40078  -0.38517
 Alpha virt. eigenvalues --   -0.34531  -0.31211  -0.28791  -0.28678  -0.26955
 Alpha virt. eigenvalues --   -0.26791  -0.24853  -0.22423  -0.21147  -0.21040

 Mulliken charges:
               1
     1  C    0.187405
     2  H    0.320653
     3  H    0.320630
     4  C    0.134708
     5  H    0.331789
     6  H    0.332054
     7  C    0.372760
 Sum of Mulliken charges =   2.00000

 Dipole moment (field-independent basis, Debye):
    X=             -1.5524    Y=              0.7096    Z=              0.0223  Tot=              1.7071
 Quadrupole moment (field-independent basis, Debye-Ang):
   XX=             -1.1058   YY=            -11.1467   ZZ=             -9.7863
   XY=              2.0577   XZ=              0.0622   YZ=             -0.0456

  Exact polarizability:  39.434  -0.529  21.731  -0.010  -0.028  22.495
 Approx polarizability:  69.979  -6.283  36.823  -0.173   0.077  34.035

                      1                      2                      3
                      A                      A                      A
 Frequencies --    267.5056               351.6158               452.4565
 Red. masses --      1.2190                 4.5260                 1.3554
 Frc consts  --      0.0514                 0.3297                 0.1635
 IR Inten    --      3.1759                 9.8078                 5.7835

                      4                      5                      6
                      A                      A                      A
 Frequencies --    762.7201               861.6904               989.3239
 Red. masses --      1.4824                 1.0313                 2.0751
 Frc consts  --      0.5081                 0.4512                 1.1966
 IR Inten    --      5.7721                 2.9003                20.4400

                      7                      8                      9
                      A                      A                      A
 Frequencies --   1126.4082              1208.2035              1225.8023
 Red. masses --      1.3054                 1.5662                 1.2889
 Frc consts  --      0.9759                 1.3470                 1.1411
 IR Inten    --      3.1997               159.6840                76.4791

                     10                     11                     12
                      A                      A                      A
 Frequencies --   1391.6392              1443.1063              2545.4049
 Red. masses --      3.4772                 1.1245                 1.0533
 Frc consts  --      3.9676                 1.3798                 4.0209
 IR Inten    --    361.1837                15.3710               308.1063

                     13                     14                     15
                      A                      A                      A
 Frequencies --   2558.7915              3001.9408              3122.6642
 Red. masses --      1.0927                 1.0527                 1.1290
 Frc consts  --      4.2153                 5.5896                 6.4864
 IR Inten    --    332.8128               121.3143               138.6332

 - Thermochemistry -
 -------------------
 Temperature   298.150 Kelvin.  Pressure   1.00000 Atm.
 Atom     1 has atomic number  6 and mass  12.00000

 Molecular mass:    40.03130 amu.
 Principal axes and moments of inertia in atomic units:
                           1         2         3
     Eigenvalues --    32.33171 179.80727 186.55912
           X            0.99887   0.04749   0.00024
           Y           -0.04747   0.99856  -0.02502
           Z           -0.00142   0.02498   0.99969
 This molecule is an asymmetric top.
 Rotational symmetry number  1.
 Rotational temperatures (Kelvin)      2.67891     0.48170     0.46427
 Rotational constants (GHZ):          55.81954    10.03709     9.67383
 Zero-point vibrational energy     127457.8 (Joules/Mol)
                                   30.46313 (Kcal/Mol)
 Warning -- explicit consideration of   3 degrees of freedom as
           vibrations may cause significant error
 Vibrational temperatures:    384.88   505.90   650.98  1097.38  1239.78
          (Kelvin)           1423.41  1620.65  1738.33  1763.65  2002.26
                             2076.31  3662.27  3681.53  4319.12  4492.81

 Zero-point correction=                           0.048546 (Hartree/Particle)
 Thermal correction to Energy=                    0.052721
 Thermal correction to Enthalpy=                  0.053665
 Thermal correction to Gibbs Free Energy=         0.023814
 Sum of electronic and zero-point Energies=           -115.572288
 Sum of electronic and thermal Energies=              -115.568114
 Sum of electronic and thermal Enthalpies=            -115.567170
 Sum of electronic and thermal Free Energies=         -115.597020

                     E (Thermal)             CV                S
                      KCal/Mol        Cal/Mol-Kelvin    Cal/Mol-Kelvin
 Total                   33.083             13.129             62.826
 Electronic               0.000              0.000              0.000
 Translational            0.889              2.981             36.989
 Rotational               0.889              2.981             21.611
 Vibrational             31.305              7.167              4.227
 Vibration     1          0.673              1.733              1.612
 Vibration     2          0.728              1.572              1.159
 Vibration     3          0.811              1.355              0.788

 Normal termination of Gaussian 09 at Tue Jun 21 20:43:28 2016.
