 Gaussian 09, Revision E.01,
 Gaussian 09:  EM64L-G09RevE.01 30-Nov-2015

 ---------------------------------------------
 #p b3lyp/6-311++G(3df,2p) freq symmetry=Loose
 ---------------------------------------------

 ---------
 b3lyp opt
 ---------
 Symbolic Z-matrix:
 Charge =  1 Multiplicity = 2

                         Standard orientation:
 ---------------------------------------------------------------------
 Center     Atomic      Atomic             Coordinates (Angstroms)
 Number     Number       Type             X           Y           Z
 ---------------------------------------------------------------------
      1          6           0       -1.224374    0.000341   -0.014273
      2          1           0       -1.532924   -0.012163    1.056349
      3          1           0       -1.641261    0.919044   -0.437317
      4          1           0       -1.640326   -0.910423   -0.455660
      5          6           0        0.184149    0.000399   -0.018812
      6          6           0        1.425999   -0.000102    0.002761
      7          1           0        2.499867   -0.000285    0.018572
 ---------------------------------------------------------------------

 SCF Done:  E(UB3LYP) =  -116.327542716     A.U. after   18 cycles

 The electronic state is 2-A.
 Alpha  occ. eigenvalues --  -10.52253 -10.51203 -10.44004  -1.09841  -0.99913
 Alpha  occ. eigenvalues --   -0.81814  -0.73522  -0.69770  -0.69323  -0.59190
 Alpha  occ. eigenvalues --   -0.56878
 Alpha virt. eigenvalues --   -0.27004  -0.24918  -0.17487  -0.14374  -0.11967
 Alpha virt. eigenvalues --   -0.11372  -0.10978  -0.08971  -0.08001  -0.06978
 Alpha virt. eigenvalues --   -0.06194  -0.05688  -0.04825  -0.01187  -0.00695

  Beta  occ. eigenvalues --  -10.51753 -10.50321 -10.43950  -1.07192  -0.98300
  Beta  occ. eigenvalues --   -0.80720  -0.72917  -0.69037  -0.67010  -0.55910
  Beta virt. eigenvalues --   -0.46831  -0.24247  -0.22034  -0.17269  -0.13822
  Beta virt. eigenvalues --   -0.11647  -0.10947  -0.10935  -0.08445  -0.07904
  Beta virt. eigenvalues --   -0.06789  -0.05724  -0.05580  -0.04176  -0.01026

 Mulliken charges and spin densities:
               1          2
     1  C   -0.492985   0.043661
     2  H    0.237745   0.076154
     3  H    0.225870   0.013177
     4  H    0.226146   0.014018
     5  C   -0.015826   0.354952
     6  C    0.422263   0.512879
     7  H    0.396787  -0.014842
 Sum of Mulliken charges =   1.00000   1.00000

 Dipole moment (field-independent basis, Debye):
    X=              0.7822    Y=             -0.0052    Z=              0.2289  Tot=              0.8151
 Quadrupole moment (field-independent basis, Debye-Ang):
   XX=             -1.5662   YY=            -16.5060   ZZ=            -15.0895
   XY=              0.0075   XZ=             -0.2903   YZ=             -0.0068

  Exact polarizability:  50.462   0.021  23.151  -0.829   0.018  21.866
 Approx polarizability:  78.698   0.040  30.355  -1.674  -0.005  31.081

                      1                      2                      3
                      A                      A                      A
 Frequencies --    211.9082               343.7394               439.6665
 Red. masses --      1.3404                 2.1806                 3.0660
 Frc consts  --      0.0355                 0.1518                 0.3492
 IR Inten    --    109.4772                11.0792                39.3141

                      4                      5                      6
                      A                      A                      A
 Frequencies --    635.0082               707.9793               868.1892
 Red. masses --      1.2184                 1.2765                 1.8325
 Frc consts  --      0.2895                 0.3770                 0.8138
 IR Inten    --     49.5385                 6.5723                33.2983

                      7                      8                      9
                      A                      A                      A
 Frequencies --    978.2526              1208.2572              1278.7531
 Red. masses --      3.3430                 1.1117                 1.1197
 Frc consts  --      1.8849                 0.9562                 1.0787
 IR Inten    --     19.6484                24.2996               117.6755

                     10                     11                     12
                      A                      A                      A
 Frequencies --   1427.7314              2077.9082              2846.1734
 Red. masses --      1.1468                 6.4227                 1.0632
 Frc consts  --      1.3773                16.3387                 5.0743
 IR Inten    --      8.9554                 4.4497               209.9564

                     13                     14                     15
                      A                      A                      A
 Frequencies --   3017.4828              3028.5113              3346.1249
 Red. masses --      1.0569                 1.0866                 1.1502
 Frc consts  --      5.6700                 5.8720                 7.5880
 IR Inten    --     55.1879                64.2670               235.9428

 - Thermochemistry -
 -------------------
 Temperature   298.150 Kelvin.  Pressure   1.00000 Atm.
 Atom     1 has atomic number  6 and mass  12.00000

 Molecular mass:    40.03130 amu.
 Principal axes and moments of inertia in atomic units:
                           1         2         3
     Eigenvalues --    11.49678 208.16403 208.71431
           X            1.00000   0.00006  -0.00212
           Y           -0.00006   1.00000   0.00033
           Z            0.00212  -0.00033   1.00000
 This molecule is an asymmetric top.
 Rotational symmetry number  1.
 Rotational temperatures (Kelvin)      7.53375     0.41608     0.41499
 Rotational constants (GHZ):         156.97796     8.66980     8.64695
 Zero-point vibrational energy     134075.6 (Joules/Mol)
                                   32.04483 (Kcal/Mol)
 Warning -- explicit consideration of   3 degrees of freedom as
           vibrations may cause significant error
 Vibrational temperatures:    304.89   494.56   632.58   913.63  1018.62
          (Kelvin)           1249.13  1407.49  1738.41  1839.84  2054.18
                             2989.64  4095.00  4341.48  4357.35  4814.32

 Zero-point correction=                           0.051067 (Hartree/Particle)
 Thermal correction to Energy=                    0.055470
 Thermal correction to Enthalpy=                  0.056414
 Thermal correction to Gibbs Free Energy=         0.025866
 Sum of electronic and zero-point Energies=           -116.276476
 Sum of electronic and thermal Energies=              -116.272073
 Sum of electronic and thermal Enthalpies=            -116.271128
 Sum of electronic and thermal Free Energies=         -116.301676

                     E (Thermal)             CV                S
                      KCal/Mol        Cal/Mol-Kelvin    Cal/Mol-Kelvin
 Total                   34.808             13.939             64.294
 Electronic               0.000              0.000              1.377
 Translational            0.889              2.981             36.989
 Rotational               0.889              2.981             20.840
 Vibrational             33.031              7.978              5.087
 Vibration     1          0.643              1.823              2.027
 Vibration     2          0.722              1.588              1.195
 Vibration     3          0.800              1.384              0.828

 Optimization completed.
    -- Stationary point found.
 Normal termination of Gaussian 09 at Tue Jun 21 20:26:59 2016.
