 Gaussian 09, Revision E.01,
 Gaussian 09:  EM64L-G09RevE.01 30-Nov-2015

 ---------------------------------------------
 #p b3lyp/6-311++G(3df,2p) freq symmetry=Loose
 ---------------------------------------------

 ---------
 b3lyp opt
 ---------
 Symbolic Z-matrix:
 Charge =  1 Multiplicity = 2

                         Standard orientation:
 ---------------------------------------------------------------------
 Center     Atomic      Atomic             Coordinates (Angstroms)
 Number     Number       Type             X           Y           Z
 ---------------------------------------------------------------------
      1          6           0        1.061418   -0.174761   -0.000407
      2          1           0        1.085326   -1.259404   -0.005920
      3          1           0        1.613220    0.247298   -0.859733
      4          1           0        1.606463    0.236207    0.869044
      5          6           0       -0.282542    0.409323   -0.000229
      6          6           0       -1.425106   -0.355113    0.000056
      7          1           0       -0.427630    1.499203    0.000090
 ---------------------------------------------------------------------

 SCF Done:  E(UB3LYP) =  -116.243804448     A.U. after   16 cycles

 The electronic state is 2-A.
 Alpha  occ. eigenvalues --  -10.57846 -10.52559 -10.44829  -1.12193  -0.97649
 Alpha  occ. eigenvalues --   -0.81936  -0.72367  -0.69993  -0.66414  -0.58999
 Alpha  occ. eigenvalues --   -0.58819
 Alpha virt. eigenvalues --   -0.39573  -0.31189  -0.17559  -0.15107  -0.13104
 Alpha virt. eigenvalues --   -0.11853  -0.10787  -0.09673  -0.09337  -0.06907
 Alpha virt. eigenvalues --   -0.06708  -0.05613  -0.03392  -0.02566  -0.01604

  Beta  occ. eigenvalues --  -10.57082 -10.51986 -10.44779  -1.09783  -0.96096
  Beta  occ. eigenvalues --   -0.81035  -0.71582  -0.67337  -0.66010  -0.57615
  Beta virt. eigenvalues --   -0.47131  -0.38681  -0.25498  -0.17400  -0.14945
  Beta virt. eigenvalues --   -0.12836  -0.11634  -0.10527  -0.09253  -0.09166
  Beta virt. eigenvalues --   -0.06608  -0.06439  -0.05270  -0.03335  -0.02482

 Mulliken charges and spin densities:
               1          2
     1  C   -0.246716   0.014336
     2  H    0.224063  -0.000222
     3  H    0.236513   0.055730
     4  H    0.237331   0.056865
     5  C    0.374398   0.432880
     6  C   -0.065762   0.452076
     7  H    0.240173  -0.011666
 Sum of Mulliken charges =   1.00000   1.00000

 Dipole moment (field-independent basis, Debye):
    X=              1.0221    Y=              1.4881    Z=              0.0048  Tot=              1.8053
 Quadrupole moment (field-independent basis, Debye-Ang):
   XX=            -11.9418   YY=            -13.3945   ZZ=            -15.8671
   XY=             -1.7826   XZ=              0.0073   YZ=             -0.0003

  Exact polarizability:  43.965   1.339  27.794   0.016  -0.023  30.551
 Approx polarizability:  65.324   3.294  41.163   0.051  -0.010  35.338

                      1                      2                      3
                      A                      A                      A
 Frequencies --    139.2089               165.0178               444.6872
 Red. masses --      1.2504                 4.5855                 1.6885
 Frc consts  --      0.0143                 0.0736                 0.1967
 IR Inten    --      0.5051                 6.8456               128.9577

                      4                      5                      6
                      A                      A                      A
 Frequencies --    768.2805               892.7313               967.4673
 Red. masses --      1.1230                 1.3080                 2.5224
 Frc consts  --      0.3906                 0.6142                 1.3910
 IR Inten    --     50.8325                60.0316                24.2265

                      7                      8                      9
                      A                      A                      A
 Frequencies --   1142.4503              1235.5225              1370.3659
 Red. masses --      1.5447                 1.1422                 1.0553
 Frc consts  --      1.1879                 1.0273                 1.1676
 IR Inten    --      3.2470                66.8994                13.0007

                     10                     11                     12
                      A                      A                      A
 Frequencies --   1436.8729              1475.6465              2917.7563
 Red. masses --      1.6432                 1.9495                 1.0485
 Frc consts  --      1.9989                 2.5012                 5.2592
 IR Inten    --     26.0051                85.3527               168.4307

                     13                     14                     15
                      A                      A                      A
 Frequencies --   2923.1578              3027.5831              3161.1032
 Red. masses --      1.0776                 1.0823                 1.0973
 Frc consts  --      5.4252                 5.8450                 6.4604
 IR Inten    --    115.1671                86.9780                17.1793

 - Thermochemistry -
 -------------------
 Temperature   298.150 Kelvin.  Pressure   1.00000 Atm.
 Atom     1 has atomic number  6 and mass  12.00000

 Molecular mass:    40.03130 amu.
 Principal axes and moments of inertia in atomic units:
                           1         2         3
     Eigenvalues --    33.31645 166.46720 189.02682
           X            0.99952  -0.03088   0.00007
           Y            0.03088   0.99952   0.00004
           Z           -0.00007  -0.00004   1.00000
 This molecule is an asymmetric top.
 Rotational symmetry number  1.
 Rotational temperatures (Kelvin)      2.59973     0.52031     0.45821
 Rotational constants (GHZ):          54.16967    10.84142     9.54754
 Zero-point vibrational energy     131995.1 (Joules/Mol)
                                   31.54758 (Kcal/Mol)
 Warning -- explicit consideration of   3 degrees of freedom as
           vibrations may cause significant error
 Vibrational temperatures:    200.29   237.42   639.80  1105.38  1284.44
          (Kelvin)           1391.97  1643.73  1777.64  1971.65  2067.34
                             2123.12  4198.00  4205.77  4356.01  4548.12

 Zero-point correction=                           0.050274 (Hartree/Particle)
 Thermal correction to Energy=                    0.054896
 Thermal correction to Enthalpy=                  0.055840
 Thermal correction to Gibbs Free Energy=         0.024157
 Sum of electronic and zero-point Energies=           -116.193530
 Sum of electronic and thermal Energies=              -116.188908
 Sum of electronic and thermal Enthalpies=            -116.187964
 Sum of electronic and thermal Free Energies=         -116.219648

                     E (Thermal)             CV                S
                      KCal/Mol        Cal/Mol-Kelvin    Cal/Mol-Kelvin
 Total                   34.448             13.484             66.684
 Electronic               0.000              0.000              1.377
 Translational            0.889              2.981             36.989
 Rotational               0.889              2.981             21.577
 Vibrational             32.670              7.522              6.740
 Vibration     1          0.615              1.914              2.815
 Vibration     2          0.623              1.885              2.491
 Vibration     3          0.804              1.373              0.812

 Normal termination of Gaussian 09 at Sun Jun 19 15:14:44 2016.
