 Gaussian 09, Revision E.01,
 Gaussian 09:  EM64L-G09RevE.01 30-Nov-2015

 ---------------------------------------------
 #p b3lyp/6-311++G(3df,2p) freq symmetry=Loose
 ---------------------------------------------

 ---------
 b3lyp opt
 ---------
 Symbolic Z-matrix:
 Charge =  3 Multiplicity = 2

                         Standard orientation:
 ---------------------------------------------------------------------
 Center     Atomic      Atomic             Coordinates (Angstroms)
 Number     Number       Type             X           Y           Z
 ---------------------------------------------------------------------
      1          6           0       -1.417561    0.000000    0.000000
      2          1           0       -2.021566    0.987053    0.000000
      3          1           0       -2.021566   -0.987053   -0.000000
      4          6           0        0.000000    0.000000    0.000000
      5          6           0        1.417561   -0.000000    0.000000
      6          1           0        2.021566   -0.987053    0.000000
      7          1           0        2.021566    0.987053    0.000000
 ---------------------------------------------------------------------

 SCF Done:  E(UB3LYP) =  -114.779975159     A.U. after   11 cycles

 The electronic state is 2-B1U.
 Alpha  occ. eigenvalues --  -11.20305 -11.12188 -11.12183  -1.66906  -1.55993
 Alpha  occ. eigenvalues --   -1.33858  -1.28146  -1.25909  -1.20832  -1.20109
 Alpha virt. eigenvalues --   -0.95918  -0.95105  -0.81207  -0.68715  -0.56855
 Alpha virt. eigenvalues --   -0.55631  -0.54716  -0.51876  -0.50719  -0.45446
 Alpha virt. eigenvalues --   -0.45377  -0.44029  -0.43406  -0.41891  -0.41026

  Beta  occ. eigenvalues --  -11.19024 -11.11989 -11.11984  -1.63416  -1.54587
  Beta  occ. eigenvalues --   -1.32846  -1.27713  -1.25404  -1.20867
  Beta virt. eigenvalues --   -1.05801  -0.93585  -0.92615  -0.75403  -0.66329
  Beta virt. eigenvalues --   -0.56249  -0.55467  -0.54673  -0.51110  -0.50700
  Beta virt. eigenvalues --   -0.44979  -0.44604  -0.43300  -0.43119  -0.41620

 Mulliken charges and spin densities:
               1          2
     1  C    0.189099   0.153987
     2  H    0.411451  -0.008092
     3  H    0.411451  -0.008092
     4  C    0.976000   0.724394
     5  C    0.189099   0.153987
     6  H    0.411451  -0.008092
     7  H    0.411451  -0.008092
 Sum of Mulliken charges =   3.00000   1.00000

 Dipole moment (field-independent basis, Debye):
    X=             -0.0000    Y=              0.0000    Z=              0.0000  Tot=              0.0000
 Quadrupole moment (field-independent basis, Debye-Ang):
   XX=             25.6407   YY=             -5.8103   ZZ=            -12.1745
   XY=              0.0000   XZ=              0.0000   YZ=              0.0000

  Exact polarizability:  47.009   0.000  19.222  -0.000   0.000  13.713
 Approx polarizability:  73.680   0.000  26.665   0.000   0.000  19.637

                      1                      2                      3
                     B1U                    B2U                    AU
 Frequencies --    286.5146               325.1891               355.9286
 Red. masses --      3.6379                 1.7146                 1.0078
 Frc consts  --      0.1760                 0.1068                 0.0752
 IR Inten    --     30.0292                38.3492                 0.0000

                      4                      5                      6
                     B1G                    AG                     B2U
 Frequencies --    665.3175               814.6367               950.6078
 Red. masses --      1.2258                 5.6576                 1.9666
 Frc consts  --      0.3197                 2.2121                 1.0471
 IR Inten    --      0.0000                 0.0000                 5.0584

                      7                      8                      9
                     B2G                    B3U                    B1U
 Frequencies --    983.4723              1006.6380              1006.7380
 Red. masses --      1.3144                 2.3812                 1.4101
 Frc consts  --      0.7490                 1.4217                 0.8421
 IR Inten    --      0.0000               222.8458                78.8387

                     10                     11                     12
                     AG                     B3U                    B3U
 Frequencies --   1163.4444              1260.3679              2391.9272
 Red. masses --      1.0737                 1.7001                 1.0329
 Frc consts  --      0.8563                 1.5911                 3.4819
 IR Inten    --      0.0000               249.3527              2224.7767

                     13                     14                     15
                     B1G                    AG                     B2U
 Frequencies --   2496.7599              2514.4933              2523.9453
 Red. masses --      1.1130                 1.0420                 1.1305
 Frc consts  --      4.0879                 3.8816                 4.2430
 IR Inten    --      0.0000                 0.0000              1253.9468

 - Thermochemistry -
 -------------------
 Temperature   298.150 Kelvin.  Pressure   1.00000 Atm.
 Atom     1 has atomic number  6 and mass  12.00000

 Molecular mass:    40.03130 amu.
 Principal axes and moments of inertia in atomic units:
                           1         2         3
     Eigenvalues --    14.02568 231.05632 245.08199
           X            1.00000   0.00000   0.00000
           Y           -0.00000   1.00000   0.00000
           Z            0.00000  -0.00000   1.00000
 This molecule is an asymmetric top.
 Rotational symmetry number  4.
 Rotational temperatures (Kelvin)      6.17538     0.37486     0.35341
 Rotational constants (GHZ):         128.67409     7.81083     7.36383
 Zero-point vibrational energy     112125.9 (Joules/Mol)
                                   26.79872 (Kcal/Mol)
 Warning -- explicit consideration of   3 degrees of freedom as
           vibrations may cause significant error
 Vibrational temperatures:    412.23   467.87   512.10   957.24  1172.08
          (Kelvin)           1367.71  1415.00  1448.33  1448.47  1673.93
                             1813.39  3441.45  3592.28  3617.79  3631.39

 Zero-point correction=                           0.042706 (Hartree/Particle)
 Thermal correction to Energy=                    0.047111
 Thermal correction to Enthalpy=                  0.048055
 Thermal correction to Gibbs Free Energy=         0.018666
 Sum of electronic and zero-point Energies=           -114.737269
 Sum of electronic and thermal Energies=              -114.732864
 Sum of electronic and thermal Enthalpies=            -114.731920
 Sum of electronic and thermal Free Energies=         -114.761309

                     E (Thermal)             CV                S
                      KCal/Mol        Cal/Mol-Kelvin    Cal/Mol-Kelvin
 Total                   29.562             14.349             61.854
 Electronic               0.000              0.000              1.377
 Translational            0.889              2.981             36.989
 Rotational               0.889              2.981             18.546
 Vibrational             27.785              8.387              4.941
 Vibration     1          0.684              1.699              1.494
 Vibration     2          0.709              1.625              1.284
 Vibration     3          0.731              1.563              1.140

 Optimization completed.
    -- Stationary point found.
 Normal termination of Gaussian 09 at Tue Jul 19 19:52:30 2016.
