 Gaussian 09, Revision E.01,
 Gaussian 09:  EM64L-G09RevE.01 30-Nov-2015

 ------------------------------------------------------
 #p b3lyp/6-311++G(3df,2p) freq IOp(2/17=3) IOp(2/18=3)
 ------------------------------------------------------

 ---------
 b3lyp opt
 ---------
 Symbolic Z-matrix:
 Charge =  2 Multiplicity = 3

                         Standard orientation:
 ---------------------------------------------------------------------
 Center     Atomic      Atomic             Coordinates (Angstroms)
 Number     Number       Type             X           Y           Z
 ---------------------------------------------------------------------
      1          6           0       -0.536694   -0.991071    0.000000
      2          6           0        0.000000    1.048325    0.000000
      3          6           0        0.608338   -0.239716    0.000000
      4          1           0       -1.537074   -1.454510    0.000000
      5          1           0       -0.283464    1.554399   -0.950050
      6          1           0        1.673927   -0.559473    0.000000
      7          1           0       -0.283464    1.554399    0.950050
 ---------------------------------------------------------------------

 SCF Done:  E(UB3LYP) =  -115.652371507     A.U. after   13 cycles

 The electronic state is 3-A".
 Alpha  occ. eigenvalues --  -10.85555 -10.82661 -10.80568  -1.43171  -1.22502
 Alpha  occ. eigenvalues --   -1.12451  -1.04042  -1.00517  -1.00153  -0.86590
 Alpha  occ. eigenvalues --   -0.80929
 Alpha virt. eigenvalues --   -0.63160  -0.59762  -0.40574  -0.37055  -0.33827
 Alpha virt. eigenvalues --   -0.31232  -0.30795  -0.28649  -0.26213  -0.25598
 Alpha virt. eigenvalues --   -0.25312  -0.23164  -0.22450  -0.21067  -0.20009

  Beta  occ. eigenvalues --  -10.83631 -10.82216 -10.79890  -1.39462  -1.18316
  Beta  occ. eigenvalues --   -1.09578  -1.02149  -0.98686  -0.97244
  Beta virt. eigenvalues --   -0.73514  -0.68128  -0.56270  -0.53159  -0.38082
  Beta virt. eigenvalues --   -0.36072  -0.32993  -0.30639  -0.29647  -0.27870
  Beta virt. eigenvalues --   -0.25597  -0.24624  -0.24200  -0.22093  -0.21621

 Mulliken charges and spin densities:
               1          2
     1  C    0.306297   1.191967
     2  C   -0.087358   0.400079
     3  C    0.355876   0.273279
     4  H    0.460228  -0.026614
     5  H    0.317102   0.046896
     6  H    0.330754   0.067497
     7  H    0.317102   0.046896
 Sum of Mulliken charges =   2.00000   2.00000

 Dipole moment (field-independent basis, Debye):
    X=             -0.7128    Y=             -0.0226    Z=              0.0000  Tot=              0.7131
 Quadrupole moment (field-independent basis, Debye-Ang):
   XX=             -5.6643   YY=             -0.7681   ZZ=            -12.2197
   XY=              2.2241   XZ=              0.0000   YZ=             -0.0000

  Exact polarizability:  25.554   3.940  40.761  -0.000   0.000  18.305
 Approx polarizability:  38.685  10.838  74.623  -0.000  -0.000  25.677

                      1                      2                      3
                     A'                     A'                     A"
 Frequencies --    261.1548               482.1021               499.4570
 Red. masses --      5.7189                 1.1142                 1.0177
 Frc consts  --      0.2298                 0.1526                 0.1496
 IR Inten    --     10.8446                42.8983                 1.5778

                      4                      5                      6
                     A"                     A"                     A"
 Frequencies --    657.1973               683.8255               910.8296
 Red. masses --      1.3406                 1.0765                 1.6336
 Frc consts  --      0.3411                 0.2966                 0.7985
 IR Inten    --      8.4627                50.5156                 3.9348

                      7                      8                      9
                     A'                     A'                     A'
 Frequencies --    936.9297              1094.6439              1147.0934
 Red. masses --      1.2509                 1.3540                 3.3761
 Frc consts  --      0.6470                 0.9559                 2.6174
 IR Inten    --     43.8923                23.4326                 3.0710

                     10                     11                     12
                     A'                     A'                     A'
 Frequencies --   1272.3439              1354.5965              2833.2095
 Red. masses --      1.0979                 5.6900                 1.0452
 Frc consts  --      1.0472                 6.1515                 4.9433
 IR Inten    --    105.8302                 2.8517               427.7545

                     13                     14                     15
                     A'                     A"                     A'
 Frequencies --   2888.3789              2922.1187              3046.2697
 Red. masses --      1.0919                 1.1131                 1.1161
 Frc consts  --      5.3671                 5.6000                 6.1021
 IR Inten    --    288.8008               248.7049               449.7052

 - Thermochemistry -
 -------------------
 Temperature   298.150 Kelvin.  Pressure   1.00000 Atm.
 Atom     1 has atomic number  6 and mass  12.00000

 Molecular mass:    40.03130 amu.
 Principal axes and moments of inertia in atomic units:
                           1         2         3
     Eigenvalues --    49.46816 128.55229 165.02666
           X            0.23535   0.97191   0.00000
           Y            0.97191  -0.23535   0.00000
           Z            0.00000  -0.00000   1.00000
 This molecule is an asymmetric top.
 Rotational symmetry number  1.
 Rotational temperatures (Kelvin)      1.75090     0.67376     0.52485
 Rotational constants (GHZ):          36.48288    14.03897    10.93606
 Zero-point vibrational energy     125549.0 (Joules/Mol)
                                   30.00693 (Kcal/Mol)
 Warning -- explicit consideration of   3 degrees of freedom as
           vibrations may cause significant error
 Vibrational temperatures:    375.74   693.64   718.61   945.56   983.87
          (Kelvin)           1310.48  1348.03  1574.95  1650.41  1830.62
                             1948.96  4076.35  4155.73  4204.27  4382.90

 Zero-point correction=                           0.047819 (Hartree/Particle)
 Thermal correction to Energy=                    0.052002
 Thermal correction to Enthalpy=                  0.052946
 Thermal correction to Gibbs Free Energy=         0.022121
 Sum of electronic and zero-point Energies=           -115.604552
 Sum of electronic and thermal Energies=              -115.600370
 Sum of electronic and thermal Enthalpies=            -115.599426
 Sum of electronic and thermal Free Energies=         -115.630251

                     E (Thermal)             CV                S
                      KCal/Mol        Cal/Mol-Kelvin    Cal/Mol-Kelvin
 Total                   32.632             13.771             64.877
 Electronic               0.000              0.000              2.183
 Translational            0.889              2.981             36.989
 Rotational               0.889              2.981             21.578
 Vibrational             30.854              7.809              4.127
 Vibration     1          0.669              1.744              1.654
 Vibration     2          0.838              1.290              0.704
 Vibration     3          0.855              1.251              0.659

 Optimization completed.
    -- Stationary point found.
 Normal termination of Gaussian 09 at Thu Jan 31 06:05:49 2019.
