 Gaussian 09, Revision E.01,
 Gaussian 09:  EM64L-G09RevE.01 30-Nov-2015

 ---------------------------------------------
 #p b3lyp/6-311++G(3df,2p) freq symmetry=Loose
 ---------------------------------------------

 ---------
 b3lyp opt
 ---------
 Symbolic Z-matrix:
 Charge =  3 Multiplicity = 4

                         Standard orientation:
 ---------------------------------------------------------------------
 Center     Atomic      Atomic             Coordinates (Angstroms)
 Number     Number       Type             X           Y           Z
 ---------------------------------------------------------------------
      1          6           0        1.103157   -0.160321    0.000667
      2          1           0        1.470165   -0.523952   -1.058502
      3          1           0        2.167810    0.547125   -0.004149
      4          1           0        1.470511   -0.516639    1.061540
      5          6           0       -0.305843    0.289475   -0.000431
      6          6           0       -1.559691   -0.290266    0.000197
      7          1           0       -0.534224    1.460131   -0.001485
 ---------------------------------------------------------------------

 SCF Done:  E(UB3LYP) =  -114.619250597     A.U. after   15 cycles

 The electronic state is 4-A.
 Alpha  occ. eigenvalues --  -11.25481 -11.13446 -11.05920  -1.68161  -1.54409
 Alpha  occ. eigenvalues --   -1.35098  -1.28504  -1.24872  -1.24033  -1.16184
 Alpha  occ. eigenvalues --   -1.12706
 Alpha virt. eigenvalues --   -0.96842  -0.87844  -0.70819  -0.62077  -0.60519
 Alpha virt. eigenvalues --   -0.53347  -0.52965  -0.49522  -0.47110  -0.46573
 Alpha virt. eigenvalues --   -0.46025  -0.43650  -0.43620  -0.39586  -0.38825

  Beta  occ. eigenvalues --  -11.21893 -11.12741 -11.04829  -1.63220  -1.49324
  Beta  occ. eigenvalues --   -1.30719  -1.26222  -1.21126
  Beta virt. eigenvalues --   -1.00696  -1.00291  -0.96918  -0.90827  -0.78352
  Beta virt. eigenvalues --   -0.65969  -0.59312  -0.59208  -0.51492  -0.50413
  Beta virt. eigenvalues --   -0.48385  -0.45961  -0.44822  -0.44040  -0.42487

 Mulliken charges and spin densities:
               1          2
     1  C    0.009555   0.666240
     2  H    0.393157   0.077006
     3  H    0.434516   0.241306
     4  H    0.393228   0.076362
     5  C    0.551207   0.341545
     6  C    0.848359   1.601562
     7  H    0.369977  -0.004021
 Sum of Mulliken charges =   3.00000   3.00000

 Dipole moment (field-independent basis, Debye):
    X=              1.1808    Y=              0.7034    Z=             -0.0070  Tot=              1.3744
 Quadrupole moment (field-independent basis, Debye-Ang):
   XX=             19.7142   YY=             -6.3327   ZZ=             -9.2033
   XY=              0.7155   XZ=             -0.0141   YZ=              0.0025

  Exact polarizability:  42.078   1.193  21.320  -0.002   0.001  18.108
 Approx polarizability:  71.234   6.326  33.993   0.002  -0.002  25.853

                      1                      2                      3
                      A                      A                      A
 Frequencies --    225.1033               347.5303               456.2096
 Red. masses --      1.1644                 4.2789                 1.3998
 Frc consts  --      0.0348                 0.3045                 0.1716
 IR Inten    --     83.9226                31.3420                67.5303

                      4                      5                      6
                      A                      A                      A
 Frequencies --    603.0645               724.7003               770.3328
 Red. masses --      1.1501                 1.3498                 3.9661
 Frc consts  --      0.2464                 0.4177                 1.3867
 IR Inten    --    132.1526                66.4964                 3.2581

                      7                      8                      9
                      A                      A                      A
 Frequencies --    891.7337               920.2292               935.3001
 Red. masses --      1.0684                 1.4746                 1.1835
 Frc consts  --      0.5006                 0.7357                 0.6100
 IR Inten    --      3.7933                47.3012                25.4199

                     10                     11                     12
                      A                      A                      A
 Frequencies --   1135.5463              1335.0378              1538.5645
 Red. masses --      1.1896                 5.8178                 1.1273
 Frc consts  --      0.9038                 6.1093                 1.5723
 IR Inten    --    161.2835               178.0921               540.8135

                     13                     14                     15
                      A                      A                      A
 Frequencies --   2186.1874              2284.1218              2317.9920
 Red. masses --      1.0712                 1.0378                 1.1132
 Frc consts  --      3.0163                 3.1901                 3.5240
 IR Inten    --    915.1705               756.5026               705.4088

 - Thermochemistry -
 -------------------
 Temperature   298.150 Kelvin.  Pressure   1.00000 Atm.
 Atom     1 has atomic number  6 and mass  12.00000

 Molecular mass:    40.03130 amu.
 Principal axes and moments of inertia in atomic units:
                           1         2         3
     Eigenvalues --    26.93337 200.23049 210.98761
           X            0.99978  -0.02074  -0.00008
           Y            0.02074   0.99978   0.00057
           Z            0.00007  -0.00058   1.00000
 This molecule is an asymmetric top.
 Rotational symmetry number  1.
 Rotational temperatures (Kelvin)      3.21586     0.43257     0.41052
 Rotational constants (GHZ):          67.00763     9.01332     8.55378
 Zero-point vibrational energy      99718.6 (Joules/Mol)
                                   23.83332 (Kcal/Mol)
 Warning -- explicit consideration of   4 degrees of freedom as
           vibrations may cause significant error
 Vibrational temperatures:    323.87   500.02   656.38   867.67  1042.68
          (Kelvin)           1108.34  1283.00  1324.00  1345.69  1633.80
                             1920.82  2213.65  3145.43  3286.34  3335.07

 Zero-point correction=                           0.037981 (Hartree/Particle)
 Thermal correction to Energy=                    0.042496
 Thermal correction to Enthalpy=                  0.043440
 Thermal correction to Gibbs Free Energy=         0.011743
 Sum of electronic and zero-point Energies=           -114.581270
 Sum of electronic and thermal Energies=              -114.576754
 Sum of electronic and thermal Enthalpies=            -114.575810
 Sum of electronic and thermal Free Energies=         -114.607508

                     E (Thermal)             CV                S
                      KCal/Mol        Cal/Mol-Kelvin    Cal/Mol-Kelvin
 Total                   26.667             15.100             66.713
 Electronic               0.000              0.000              2.755
 Translational            0.889              2.981             36.989
 Rotational               0.889              2.981             21.658
 Vibrational             24.889              9.138              5.311
 Vibration     1          0.650              1.803              1.918
 Vibration     2          0.725              1.580              1.177
 Vibration     3          0.814              1.347              0.777
 Vibration     4          0.961              1.025              0.444

 Normal termination of Gaussian 09 at Tue Jun 21 20:56:54 2016.
