 Gaussian 09, Revision E.01,
 Gaussian 09:  EM64L-G09RevE.01 30-Nov-2015

 ---------------------------------------------
 #p b3lyp/6-311++G(3df,2p) freq symmetry=Loose
 ---------------------------------------------

 ---------
 b3lyp opt
 ---------
 Symbolic Z-matrix:
 Charge =  1 Multiplicity = 4

                         Standard orientation:
 ---------------------------------------------------------------------
 Center     Atomic      Atomic             Coordinates (Angstroms)
 Number     Number       Type             X           Y           Z
 ---------------------------------------------------------------------
      1          6           0       -0.787747   -0.728344   -0.000000
      2          1           0       -0.229322   -1.657247   -0.000000
      3          1           0       -1.490935   -0.673309    0.854955
      4          1           0       -1.490935   -0.673309   -0.854955
      5          6           0        0.000000    0.480125    0.000000
      6          6           0        1.405041    0.505984   -0.000000
      7          1           0       -0.492573    1.457279    0.000000
 ---------------------------------------------------------------------

 SCF Done:  E(UB3LYP) =  -116.190326550     A.U. after   13 cycles

 The electronic state is 4-A".
 Alpha  occ. eigenvalues --  -10.56395 -10.54364 -10.42787  -1.10982  -0.97165
 Alpha  occ. eigenvalues --   -0.81990  -0.72829  -0.68724  -0.67830  -0.63266
 Alpha  occ. eigenvalues --   -0.58138  -0.51480
 Alpha virt. eigenvalues --   -0.32453  -0.17087  -0.14223  -0.12477  -0.11873
 Alpha virt. eigenvalues --   -0.10351  -0.09332  -0.08875  -0.07264  -0.06455
 Alpha virt. eigenvalues --   -0.04688  -0.03392  -0.02499  -0.01477  -0.01293

  Beta  occ. eigenvalues --  -10.53623 -10.52200 -10.42607  -1.06812  -0.92640
  Beta  occ. eigenvalues --   -0.78022  -0.69806  -0.65992  -0.64068
  Beta virt. eigenvalues --   -0.44614  -0.43826  -0.31177  -0.23823  -0.16550
  Beta virt. eigenvalues --   -0.13847  -0.12183  -0.10869  -0.09611  -0.08611
  Beta virt. eigenvalues --   -0.08482  -0.06498  -0.05909  -0.03993  -0.02681

 Mulliken charges and spin densities:
               1          2
     1  C   -0.248692   0.084198
     2  H    0.211517   0.004810
     3  H    0.233983   0.058948
     4  H    0.233983   0.058948
     5  C    0.208938   0.315231
     6  C    0.121381   2.431299
     7  H    0.238890   0.046566
 Sum of Mulliken charges =   1.00000   3.00000

 Dipole moment (field-independent basis, Debye):
    X=             -0.2423    Y=              0.6167    Z=              0.0000  Tot=              0.6626
 Quadrupole moment (field-independent basis, Debye-Ang):
   XX=             -9.6741   YY=            -12.7581   ZZ=            -15.6478
   XY=              2.0828   XZ=              0.0000   YZ=              0.0000

  Exact polarizability:  42.426   7.360  30.456  -0.000   0.000  22.338
 Approx polarizability:  64.773  10.549  40.623  -0.000  -0.000  31.928

                      1                      2                      3
                     A"                     A'                     A"
 Frequencies --    105.7450               459.2421               738.4024
 Red. masses --      1.2320                 3.3145                 1.0824
 Frc consts  --      0.0081                 0.4119                 0.3477
 IR Inten    --      6.8315                 0.2062                13.8005

                      4                      5                      6
                     A'                     A"                     A'
 Frequencies --    893.2307               972.4623              1142.9310
 Red. masses --      1.7927                 1.8516                 2.4843
 Frc consts  --      0.8427                 1.0316                 1.9120
 IR Inten    --     49.1644                 0.0061                 2.5125

                      7                      8                      9
                     A'                     A'                     A'
 Frequencies --   1236.5915              1265.5369              1366.2382
 Red. masses --      1.0815                 1.5482                 2.1386
 Frc consts  --      0.9744                 1.4609                 2.3520
 IR Inten    --    103.6199                40.4686                29.8165

                     10                     11                     12
                     A"                     A'                     A"
 Frequencies --   1367.3124              1456.2519              2898.3831
 Red. masses --      1.0528                 1.3674                 1.0831
 Frc consts  --      1.1596                 1.7085                 5.3609
 IR Inten    --     24.5135                15.9709                40.2657

                     13                     14                     15
                     A'                     A'                     A'
 Frequencies --   2900.9626              3066.8189              3170.3181
 Red. masses --      1.0475                 1.0875                 1.0957
 Frc consts  --      5.1941                 6.0262                 6.4888
 IR Inten    --    196.1935                23.6499                12.7629

 - Thermochemistry -
 -------------------
 Temperature   298.150 Kelvin.  Pressure   1.00000 Atm.
 Atom     1 has atomic number  6 and mass  12.00000

 Molecular mass:    40.03130 amu.
 Principal axes and moments of inertia in atomic units:
                           1         2         3
     Eigenvalues --    32.63164 169.10182 191.21071
           X            0.85463  -0.51923   0.00000
           Y            0.51923   0.85463   0.00000
           Z           -0.00000  -0.00000   1.00000
 This molecule is an asymmetric top.
 Rotational symmetry number  1.
 Rotational temperatures (Kelvin)      2.65429     0.51220     0.45298
 Rotational constants (GHZ):          55.30648    10.67251     9.43849
 Zero-point vibrational energy     137812.4 (Joules/Mol)
                                   32.93794 (Kcal/Mol)
 Warning -- explicit consideration of   2 degrees of freedom as
           vibrations may cause significant error
 Vibrational temperatures:    152.14   660.75  1062.39  1285.16  1399.15
          (Kelvin)           1644.42  1779.18  1820.82  1965.71  1967.26
                             2095.22  4170.12  4173.83  4412.46  4561.37

 Zero-point correction=                           0.052490 (Hartree/Particle)
 Thermal correction to Energy=                    0.056568
 Thermal correction to Enthalpy=                  0.057512
 Thermal correction to Gibbs Free Energy=         0.026093
 Sum of electronic and zero-point Energies=           -116.137837
 Sum of electronic and thermal Energies=              -116.133758
 Sum of electronic and thermal Enthalpies=            -116.132814
 Sum of electronic and thermal Free Energies=         -116.164234

                     E (Thermal)             CV                S
                      KCal/Mol        Cal/Mol-Kelvin    Cal/Mol-Kelvin
 Total                   35.497             11.840             66.128
 Electronic               0.000              0.000              2.755
 Translational            0.889              2.981             36.989
 Rotational               0.889              2.981             21.583
 Vibrational             33.720              5.879              4.800
 Vibration     1          0.605              1.945              3.346
 Vibration     2          0.817              1.340              0.768

 Optimization completed.
    -- Stationary point found.
 Normal termination of Gaussian 09 at Tue Jul 19 22:40:59 2016.
