 Gaussian 09, Revision E.01,
 Gaussian 09:  EM64L-G09RevE.01 30-Nov-2015

 ------------------------------------------------------
 #p b3lyp/6-311++G(3df,2p) freq IOp(2/17=3) IOp(2/18=3)
 ------------------------------------------------------

 ---------
 b3lyp opt
 ---------
 Symbolic Z-matrix:
 Charge =  0 Multiplicity = 3

                         Standard orientation:
 ---------------------------------------------------------------------
 Center     Atomic      Atomic             Coordinates (Angstroms)
 Number     Number       Type             X           Y           Z
 ---------------------------------------------------------------------
      1          6           0        0.683317    0.983467    0.000000
      2          1           0        0.000000    1.820742    0.000000
      3          1           0        1.742198    1.194245    0.000000
      4          6           0        0.218715   -0.316869    0.000000
      5          1           0       -1.616390   -1.645676    0.000000
      6          1           0        0.965591   -1.115757    0.000000
      7          6           0       -1.083932   -0.708858    0.000000
 ---------------------------------------------------------------------

 SCF Done:  E(UB3LYP) =  -116.620836700     A.U. after   13 cycles

 The electronic state is 3-A".
 Alpha  occ. eigenvalues --  -10.20783 -10.19068 -10.18456  -0.80974  -0.69090
 Alpha  occ. eigenvalues --   -0.55787  -0.49714  -0.43684  -0.39496  -0.34050
 Alpha  occ. eigenvalues --   -0.25626  -0.21361
 Alpha virt. eigenvalues --   -0.00224   0.01434   0.01442   0.01936   0.04375
 Alpha virt. eigenvalues --    0.06540   0.07514   0.09401   0.09492   0.10322
 Alpha virt. eigenvalues --    0.11535   0.12388   0.12590   0.13413   0.14070

  Beta  occ. eigenvalues --  -10.19409 -10.18454 -10.17496  -0.79057  -0.65120
  Beta  occ. eigenvalues --   -0.53457  -0.48501  -0.42360  -0.38381  -0.30654
  Beta virt. eigenvalues --   -0.08869  -0.08671   0.00024   0.01589   0.02112
  Beta virt. eigenvalues --    0.02995   0.04385   0.07782   0.08444   0.09591
  Beta virt. eigenvalues --    0.10499   0.10564   0.11750   0.12771   0.13659

 Mulliken charges and spin densities:
               1          2
     1  C   -0.434006   0.694740
     2  H    0.155976  -0.016660
     3  H    0.143618  -0.020960
     4  C    0.241231  -0.363274
     5  H    0.191468   0.002441
     6  H    0.130032   0.075975
     7  C   -0.428319   1.627738
 Sum of Mulliken charges =  -0.00000   2.00000

 Dipole moment (field-independent basis, Debye):
    X=              0.5048    Y=             -0.4823    Z=              0.0000  Tot=              0.6981
 Quadrupole moment (field-independent basis, Debye-Ang):
   XX=            -18.3489   YY=            -16.7302   ZZ=            -21.7232
   XY=              0.8841   XZ=              0.0000   YZ=              0.0000

  Exact polarizability:  46.562  11.265  45.929  -0.000   0.000  29.250
 Approx polarizability:  65.451  16.719  63.046  -0.000  -0.000  38.781

                      1                      2                      3
                     A'                     A"                     A"
 Frequencies --    423.3984               529.0673               567.7363
 Red. masses --      2.1429                 1.2054                 1.2885
 Frc consts  --      0.2263                 0.1988                 0.2447
 IR Inten    --      3.7859                34.5747                 7.5894

                      4                      5                      6
                     A"                     A'                     A"
 Frequencies --    807.3713               826.0405               908.6641
 Red. masses --      1.3095                 1.2138                 1.2895
 Frc consts  --      0.5029                 0.4880                 0.6273
 IR Inten    --     46.3687                16.0172                 5.8361

                      7                      8                      9
                     A'                     A'                     A'
 Frequencies --   1015.8920              1210.9288              1237.8444
 Red. masses --      1.5437                 1.7096                 2.8982
 Frc consts  --      0.9387                 1.4770                 2.6165
 IR Inten    --      0.2150                 2.9220                 1.8708

                     10                     11                     12
                     A'                     A'                     A'
 Frequencies --   1416.9474              1504.5784              3030.0322
 Red. masses --      2.1979                 1.3471                 1.0817
 Frc consts  --      2.5999                 1.7967                 5.8513
 IR Inten    --      0.8441                 3.5449                 7.9087

                     13                     14                     15
                     A'                     A'                     A'
 Frequencies --   3147.4066              3239.6478              3244.2868
 Red. masses --      1.0535                 1.0951                 1.1180
 Frc consts  --      6.1489                 6.7717                 6.9330
 IR Inten    --      4.2332                 1.2140                 5.0533

 - Thermochemistry -
 -------------------
 Temperature   298.150 Kelvin.  Pressure   1.00000 Atm.
 Atom     1 has atomic number  6 and mass  12.00000

 Molecular mass:    40.03130 amu.
 Principal axes and moments of inertia in atomic units:
                           1         2         3
     Eigenvalues --    25.35117 169.20263 194.55380
           X            0.70073   0.71343   0.00000
           Y            0.71343  -0.70073   0.00000
           Z            0.00000  -0.00000   1.00000
 This molecule is an asymmetric top.
 Rotational symmetry number  1.
 Rotational temperatures (Kelvin)      3.41656     0.51189     0.44519
 Rotational constants (GHZ):          71.18966    10.66615     9.27631
 Zero-point vibrational energy     138227.6 (Joules/Mol)
                                   33.03718 (Kcal/Mol)
 Warning -- explicit consideration of   3 degrees of freedom as
           vibrations may cause significant error
 Vibrational temperatures:    609.18   761.21   816.84  1161.63  1188.49
          (Kelvin)           1307.36  1461.64  1742.25  1780.98  2038.67
                             2164.75  4359.54  4528.41  4661.12  4667.80

 Zero-point correction=                           0.052648 (Hartree/Particle)
 Thermal correction to Energy=                    0.056427
 Thermal correction to Enthalpy=                  0.057371
 Thermal correction to Gibbs Free Energy=         0.027335
 Sum of electronic and zero-point Energies=           -116.568189
 Sum of electronic and thermal Energies=              -116.564410
 Sum of electronic and thermal Enthalpies=            -116.563466
 Sum of electronic and thermal Free Energies=         -116.593502

                     E (Thermal)             CV                S
                      KCal/Mol        Cal/Mol-Kelvin    Cal/Mol-Kelvin
 Total                   35.408             12.317             63.215
 Electronic               0.000              0.000              2.183
 Translational            0.889              2.981             36.989
 Rotational               0.889              2.981             21.350
 Vibrational             33.631              6.355              2.693
 Vibration     1          0.786              1.419              0.881
 Vibration     2          0.884              1.186              0.589
 Vibration     3          0.924              1.101              0.509

 Optimization completed.
    -- Stationary point found.
 Normal termination of Gaussian 09 at Thu Jan 31 06:05:49 2019.
