 Gaussian 09, Revision E.01,
 Gaussian 09:  EM64L-G09RevE.01 30-Nov-2015

 ---------------------------------------------
 #p b3lyp/6-311++G(3df,2p) freq symmetry=Loose
 ---------------------------------------------

 ---------
 b3lyp opt
 ---------
 Symbolic Z-matrix:
 Charge =  2 Multiplicity = 3

                         Standard orientation:
 ---------------------------------------------------------------------
 Center     Atomic      Atomic             Coordinates (Angstroms)
 Number     Number       Type             X           Y           Z
 ---------------------------------------------------------------------
      1          6           0        1.472891    0.191561   -0.000000
      2          6           0        0.000000    0.443249    0.000000
      3          6           0       -0.946076   -0.651119   -0.000000
      4          1           0       -0.229440    1.088894    0.901283
      5          1           0       -0.229440    1.088894   -0.901283
      6          1           0       -2.007761   -0.361014    0.000000
      7          1           0       -0.694247   -1.718921   -0.000000
 ---------------------------------------------------------------------

 SCF Done:  E(UB3LYP) =  -115.564206864     A.U. after   17 cycles

 The electronic state is 3-A".
 Alpha  occ. eigenvalues --  -10.90342 -10.81511 -10.76975  -1.37643  -1.22677
 Alpha  occ. eigenvalues --   -1.09391  -0.99125  -0.98882  -0.96250  -0.90263
 Alpha  occ. eigenvalues --   -0.79355
 Alpha virt. eigenvalues --   -0.68513  -0.64976  -0.37968  -0.35217  -0.33839
 Alpha virt. eigenvalues --   -0.32176  -0.30856  -0.29504  -0.26166  -0.25873
 Alpha virt. eigenvalues --   -0.22652  -0.21880  -0.21664  -0.21095  -0.17880

  Beta  occ. eigenvalues --  -10.86853 -10.81382 -10.76663  -1.35615  -1.19230
  Beta  occ. eigenvalues --   -1.06112  -0.98098  -0.97170  -0.93355
  Beta virt. eigenvalues --   -0.71459  -0.64640  -0.63858  -0.58063  -0.37591
  Beta virt. eigenvalues --   -0.34290  -0.33278  -0.30795  -0.30331  -0.28788
  Beta virt. eigenvalues --   -0.25972  -0.24575  -0.21991  -0.20927  -0.20659

 Mulliken charges and spin densities:
               1          2
     1  C    0.482192   1.754676
     2  C    0.206426   0.122017
     3  C    0.078270   0.083003
     4  H    0.318962   0.013548
     5  H    0.318962   0.013548
     6  H    0.296803   0.010579
     7  H    0.298386   0.002629
 Sum of Mulliken charges =   2.00000   2.00000

 Dipole moment (field-independent basis, Debye):
    X=             -0.2027    Y=             -0.0697    Z=              0.0000  Tot=              0.2143
 Quadrupole moment (field-independent basis, Debye-Ang):
   XX=              0.2820   YY=             -6.5423   ZZ=            -12.8417
   XY=              3.6792   XZ=             -0.0000   YZ=              0.0000

  Exact polarizability:  37.046   4.848  26.375  -0.000   0.000  18.416
 Approx polarizability:  57.625   8.116  39.947  -0.000   0.000  27.207

                      1                      2                      3
                     A"                     A'                     A"
 Frequencies --    107.1535               369.4801               643.4366
 Red. masses --      1.0423                 3.8297                 1.4786
 Frc consts  --      0.0071                 0.3080                 0.3607
 IR Inten    --     24.7656                 2.3357                15.4460

                      4                      5                      6
                     A'                     A'                     A'
 Frequencies --    754.5146               949.2706              1055.0996
 Red. masses --      5.6934                 1.2646                 2.0996
 Frc consts  --      1.9097                 0.6714                 1.3771
 IR Inten    --     10.5596                 3.0763                40.6795

                      7                      8                      9
                     A'                     A'                     A"
 Frequencies --   1168.5301              1212.0608              1236.6066
 Red. masses --      1.2028                 1.6047                 1.2138
 Frc consts  --      0.9677                 1.3889                 1.0936
 IR Inten    --    156.0528                 4.8880                 7.8768

                     10                     11                     12
                     A"                     A'                     A'
 Frequencies --   1326.4932              1445.3032              2689.4762
 Red. masses --      1.2254                 1.1251                 1.0532
 Frc consts  --      1.2703                 1.3847                 4.4883
 IR Inten    --     12.0062                15.1441               326.8465

                     13                     14                     15
                     A"                     A'                     A'
 Frequencies --   2731.4075              2994.5148              3117.9887
 Red. masses --      1.1027                 1.0540                 1.1245
 Frc consts  --      4.8472                 5.5685                 6.4412
 IR Inten    --    205.4868               178.2698               135.0514

 - Thermochemistry -
 -------------------
 Temperature   298.150 Kelvin.  Pressure   1.00000 Atm.
 Atom     1 has atomic number  6 and mass  12.00000

 Molecular mass:    40.03130 amu.
 Principal axes and moments of inertia in atomic units:
                           1         2         3
     Eigenvalues --    37.19930 169.35611 194.86135
           X            0.93572  -0.35274   0.00000
           Y            0.35274   0.93572   0.00000
           Z           -0.00000  -0.00000   1.00000
 This molecule is an asymmetric top.
 Rotational symmetry number  1.
 Rotational temperatures (Kelvin)      2.32837     0.51143     0.44449
 Rotational constants (GHZ):          48.51546    10.65649     9.26167
 Zero-point vibrational energy     130400.9 (Joules/Mol)
                                   31.16657 (Kcal/Mol)
 Warning -- explicit consideration of   2 degrees of freedom as
           vibrations may cause significant error
 Vibrational temperatures:    154.17   531.60   925.76  1085.58  1365.79
          (Kelvin)           1518.05  1681.25  1743.88  1779.20  1908.53
                             2079.47  3869.55  3929.88  4308.43  4486.08

 Zero-point correction=                           0.049667 (Hartree/Particle)
 Thermal correction to Energy=                    0.053931
 Thermal correction to Enthalpy=                  0.054876
 Thermal correction to Gibbs Free Energy=         0.023380
 Sum of electronic and zero-point Energies=           -115.514540
 Sum of electronic and thermal Energies=              -115.510276
 Sum of electronic and thermal Enthalpies=            -115.509331
 Sum of electronic and thermal Free Energies=         -115.540827

                     E (Thermal)             CV                S
                      KCal/Mol        Cal/Mol-Kelvin    Cal/Mol-Kelvin
 Total                   33.842             12.700             66.287
 Electronic               0.000              0.000              2.183
 Translational            0.889              2.981             36.989
 Rotational               0.889              2.981             21.734
 Vibrational             32.065              6.739              5.381
 Vibration     1          0.606              1.944              3.320
 Vibration     2          0.742              1.535              1.082

 Optimization completed.
    -- Stationary point found.
 Normal termination of Gaussian 09 at Tue Jul 19 17:30:32 2016.
