 Gaussian 09, Revision E.01,
 Gaussian 09:  EM64L-G09RevE.01 30-Nov-2015

 ------------------------------------------------------
 #p b3lyp/6-311++G(3df,2p) freq IOp(2/17=3) IOp(2/18=3)
 ------------------------------------------------------

 ---------
 b3lyp opt
 ---------
 Symbolic Z-matrix:
 Charge =  1 Multiplicity = 2

                         Standard orientation:
 ---------------------------------------------------------------------
 Center     Atomic      Atomic             Coordinates (Angstroms)
 Number     Number       Type             X           Y           Z
 ---------------------------------------------------------------------
      1          6           0        1.310461   -0.000000    0.000000
      2          1           0        1.873488    0.849149   -0.388661
      3          1           0        1.873488   -0.849149    0.388661
      4          6           0        0.000000    0.000000    0.000000
      5          6           0       -1.310461    0.000000    0.000000
      6          1           0       -1.873488   -0.849149   -0.388661
      7          1           0       -1.873488    0.849149    0.388661
 ---------------------------------------------------------------------

 SCF Done:  E(UB3LYP) =  -116.353991964     A.U. after   12 cycles

 The electronic state is 2-B2.
 Alpha  occ. eigenvalues --  -10.50893 -10.47702 -10.47692  -1.09330  -1.00046
 Alpha  occ. eigenvalues --   -0.80079  -0.73858  -0.73442  -0.70571  -0.59485
 Alpha  occ. eigenvalues --   -0.52460
 Alpha virt. eigenvalues --   -0.32802  -0.22729  -0.17552  -0.13636  -0.11984
 Alpha virt. eigenvalues --   -0.10647  -0.09814  -0.08772  -0.06958  -0.06428
 Alpha virt. eigenvalues --   -0.05816  -0.03143  -0.03106  -0.01439  -0.00138

  Beta  occ. eigenvalues --  -10.50555 -10.47167 -10.47158  -1.07382  -0.98200
  Beta  occ. eigenvalues --   -0.78850  -0.73046  -0.72036  -0.69378  -0.57420
  Beta virt. eigenvalues --   -0.42103  -0.29713  -0.20584  -0.17230  -0.13387
  Beta virt. eigenvalues --   -0.11900  -0.10186  -0.09656  -0.08465  -0.06750
  Beta virt. eigenvalues --   -0.05867  -0.05459  -0.02761  -0.02592  -0.01189

 Mulliken charges and spin densities:
               1          2
     1  C   -0.319721   0.362675
     2  H    0.254512   0.013756
     3  H    0.254512   0.013756
     4  C    0.621394   0.219628
     5  C   -0.319721   0.362675
     6  H    0.254512   0.013756
     7  H    0.254512   0.013756
 Sum of Mulliken charges =   1.00000   1.00000

 Dipole moment (field-independent basis, Debye):
    X=             -0.0000    Y=             -0.0000    Z=             -0.0000  Tot=              0.0000
 Quadrupole moment (field-independent basis, Debye-Ang):
   XX=             -2.6122   YY=            -13.6810   ZZ=            -17.1065
   XY=              0.0000   XZ=             -0.0000   YZ=             -0.0000

  Exact polarizability:  55.150  -0.000  23.154   0.000   0.000  20.700
 Approx polarizability:  91.116  -0.000  31.967  -0.000  -0.000  28.012

                      1                      2                      3
                     B2                     B1                     B1
 Frequencies --    323.4960               340.3249               782.5868
 Red. masses --      1.9110                 3.1347                 1.2832
 Frc consts  --      0.1178                 0.2139                 0.4630
 IR Inten    --     10.1543                15.5671                 6.5540

                      4                      5                      6
                      A                     B2                     B1
 Frequencies --    805.2419               912.1296               934.9695
 Red. masses --      1.0112                 1.4180                 1.4187
 Frc consts  --      0.3863                 0.6951                 0.7307
 IR Inten    --      0.0000                22.7584                49.7603

                      7                      8                      9
                     B2                      A                     B3
 Frequencies --    996.7779              1070.4590              1353.4437
 Red. masses --      1.6559                 2.5296                 1.0800
 Frc consts  --      0.9693                 1.7078                 1.1657
 IR Inten    --      0.1363                 0.0000                90.9698

                     10                     11                     12
                      A                     B3                     B3
 Frequencies --   1398.9178              1635.2914              3056.9932
 Red. masses --      1.3707                10.3154                 1.0488
 Frc consts  --      1.5805                16.2528                 5.7749
 IR Inten    --      0.0000                18.6745               204.9536

                     13                     14                     15
                      A                     B1                     B2
 Frequencies --   3074.3921              3147.5343              3149.9091
 Red. masses --      1.0568                 1.1120                 1.1155
 Frc consts  --      5.8852                 6.4906                 6.5212
 IR Inten    --      0.0000                29.0664               121.4543

 - Thermochemistry -
 -------------------
 Temperature   298.150 Kelvin.  Pressure   1.00000 Atm.
 Atom     1 has atomic number  6 and mass  12.00000

 Molecular mass:    40.03130 amu.
 Principal axes and moments of inertia in atomic units:
                           1         2         3
     Eigenvalues --    12.55495 199.88692 208.09261
           X            1.00000   0.00000   0.00000
           Y           -0.00000   1.00000   0.00000
           Z            0.00000  -0.00000   1.00000
 This molecule is an asymmetric top.
 Rotational symmetry number  4.
 Rotational temperatures (Kelvin)      6.89878     0.43331     0.41623
 Rotational constants (GHZ):         143.74734     9.02881     8.67278
 Zero-point vibrational energy     137465.7 (Joules/Mol)
                                   32.85509 (Kcal/Mol)
 Warning -- explicit consideration of   2 degrees of freedom as
           vibrations may cause significant error
 Vibrational temperatures:    465.44   489.65  1125.97  1158.56  1312.35
          (Kelvin)           1345.21  1434.14  1540.15  1947.30  2012.73
                             2352.82  4398.33  4423.36  4528.59  4532.01

 Zero-point correction=                           0.052358 (Hartree/Particle)
 Thermal correction to Energy=                    0.056298
 Thermal correction to Enthalpy=                  0.057242
 Thermal correction to Gibbs Free Energy=         0.028786
 Sum of electronic and zero-point Energies=           -116.301634
 Sum of electronic and thermal Energies=              -116.297694
 Sum of electronic and thermal Enthalpies=            -116.296750
 Sum of electronic and thermal Free Energies=         -116.325206

                     E (Thermal)             CV                S
                      KCal/Mol        Cal/Mol-Kelvin    Cal/Mol-Kelvin
 Total                   35.328             12.409             59.890
 Electronic               0.000              0.000              1.377
 Translational            0.889              2.981             36.989
 Rotational               0.889              2.981             18.130
 Vibrational             33.550              6.447              3.394
 Vibration     1          0.708              1.628              1.292
 Vibration     2          0.720              1.595              1.211

 Optimization completed.
    -- Stationary point found.
 Normal termination of Gaussian 09 at Thu Jan 31 06:04:48 2019.
