 Gaussian 09, Revision E.01,
 Gaussian 09:  EM64L-G09RevE.01 30-Nov-2015

 ---------------------------------------------
 #p b3lyp/6-311++G(3df,2p) freq symmetry=Loose
 ---------------------------------------------

 ---------
 b3lyp opt
 ---------
 Symbolic Z-matrix:
 Charge =  0 Multiplicity = 3

                         Standard orientation:
 ---------------------------------------------------------------------
 Center     Atomic      Atomic             Coordinates (Angstroms)
 Number     Number       Type             X           Y           Z
 ---------------------------------------------------------------------
      1          6           0       -1.118743    0.000032    0.229797
      2          1           0       -1.735749   -0.000434    1.119604
      3          6           0       -0.000007    0.807769   -0.236833
      4          1           0        0.000440    1.490698   -1.075818
      5          6           0       -0.000128   -0.807666   -0.236998
      6          1           0       -0.000349   -1.489683   -1.077344
      7          6           0        1.118721   -0.000031    0.229777
      8          1           0        1.736600   -0.001203    1.119096
 ---------------------------------------------------------------------

 SCF Done:  E(UB3LYP) =  -154.647803883     A.U. after   13 cycles

 The electronic state is 3-A.
 Alpha  occ. eigenvalues --  -10.21913 -10.21899 -10.20299 -10.20294  -0.94671
 Alpha  occ. eigenvalues --   -0.68438  -0.61468  -0.57494  -0.51724  -0.46135
 Alpha  occ. eigenvalues --   -0.37061  -0.35801  -0.34807  -0.20416  -0.19469
 Alpha virt. eigenvalues --   -0.00004   0.00205   0.00890   0.02038   0.02700
 Alpha virt. eigenvalues --    0.07085   0.07390   0.07459   0.07927   0.07964
 Alpha virt. eigenvalues --    0.11434   0.11984   0.12188   0.12360   0.12581

  Beta  occ. eigenvalues --  -10.21799 -10.21788 -10.18901 -10.18898  -0.92788
  Beta  occ. eigenvalues --   -0.64739  -0.60774  -0.55451  -0.50166  -0.44530
  Beta  occ. eigenvalues --   -0.35687  -0.34710  -0.30469
  Beta virt. eigenvalues --   -0.07614  -0.05703   0.00075   0.00583   0.01129
  Beta virt. eigenvalues --    0.02561   0.03542   0.07514   0.07952   0.07988
  Beta virt. eigenvalues --    0.08164   0.08204   0.11626   0.12244   0.12281

 Mulliken charges and spin densities:
               1          2
     1  C   -0.368034   0.966762
     2  H    0.184954   0.046548
     3  C    0.010188  -0.030670
     4  H    0.173298   0.017065
     5  C    0.009698  -0.030274
     6  H    0.172963   0.017152
     7  C   -0.368037   0.966933
     8  H    0.184970   0.046483
 Sum of Mulliken charges =  -0.00000   2.00000

 Dipole moment (field-independent basis, Debye):
    X=              0.0005    Y=              0.0002    Z=             -0.0138  Tot=              0.0138
 Quadrupole moment (field-independent basis, Debye-Ang):
   XX=            -26.5390   YY=            -24.0484   ZZ=            -23.1224
   XY=              0.0001   XZ=              0.0005   YZ=             -0.0024

  Exact polarizability:  54.482   0.001  44.870   0.002   0.003  40.646
 Approx polarizability:  74.261   0.004  74.477   0.003   0.001  54.897

                      1                      2                      3
                      A                      A                      A
 Frequencies --    478.5674               672.3878               676.6744
 Red. masses --      1.8144                 1.9697                 1.2463
 Frc consts  --      0.2448                 0.5247                 0.3362
 IR Inten    --      1.3976                 1.6377                24.2547

                      4                      5                      6
                      A                      A                      A
 Frequencies --    789.7597               802.2380               829.4864
 Red. masses --      1.6881                 1.9581                 2.2349
 Frc consts  --      0.6203                 0.7425                 0.9060
 IR Inten    --      8.1732                 0.2255                51.0979

                      7                      8                      9
                      A                      A                      A
 Frequencies --    830.1540               975.1265              1009.2481
 Red. masses --      8.8192                 1.1197                 1.2264
 Frc consts  --      3.5809                 0.6273                 0.7360
 IR Inten    --      1.3024                 0.0001                 6.0450

                     10                     11                     12
                      A                      A                      A
 Frequencies --   1092.5233              1118.4918              1122.5558
 Red. masses --      2.0361                 1.1149                 1.3373
 Frc consts  --      1.4319                 0.8218                 0.9929
 IR Inten    --      6.7159                 0.0069                 0.3245

                     13                     14                     15
                      A                      A                      A
 Frequencies --   1281.1064              1307.2526              3133.0002
 Red. masses --      6.2637                 3.3376                 1.0941
 Frc consts  --      6.0570                 3.3605                 6.3274
 IR Inten    --      0.0035                 5.2650                32.3493

                     16                     17                     18
                      A                      A                      A
 Frequencies --   3140.5214              3159.8842              3167.8656
 Red. masses --      1.0944                 1.0880                 1.0941
 Frc consts  --      6.3597                 6.4005                 6.4691
 IR Inten    --      8.0508                 2.2345                 2.0701

 - Thermochemistry -
 -------------------
 Temperature   298.150 Kelvin.  Pressure   1.00000 Atm.
 Atom     1 has atomic number  6 and mass  12.00000

 Molecular mass:    52.03130 amu.
 Principal axes and moments of inertia in atomic units:
                           1         2         3
     Eigenvalues --    98.59628 155.65967 200.86212
           X            1.00000  -0.00001  -0.00000
           Y            0.00001   1.00000  -0.00005
           Z            0.00000   0.00005   1.00000
 This molecule is an asymmetric top.
 Rotational symmetry number  1.
 Rotational temperatures (Kelvin)      0.87847     0.55643     0.43121
 Rotational constants (GHZ):          18.30435    11.59415     8.98498
 Zero-point vibrational energy     153043.3 (Joules/Mol)
                                   36.57823 (Kcal/Mol)
 Warning -- explicit consideration of   1 degrees of freedom as
           vibrations may cause significant error
 Vibrational temperatures:    688.55   967.41   973.58  1136.29  1154.24
          (Kelvin)           1193.44  1194.40  1402.99  1452.08  1571.90
                             1609.26  1615.11  1843.22  1880.84  4507.68
                             4518.50  4546.36  4557.85

 Zero-point correction=                           0.058291 (Hartree/Particle)
 Thermal correction to Energy=                    0.062081
 Thermal correction to Enthalpy=                  0.063025
 Thermal correction to Gibbs Free Energy=         0.032042
 Sum of electronic and zero-point Energies=           -154.589513
 Sum of electronic and thermal Energies=              -154.585723
 Sum of electronic and thermal Enthalpies=            -154.584779
 Sum of electronic and thermal Free Energies=         -154.615762

                     E (Thermal)             CV                S
                      KCal/Mol        Cal/Mol-Kelvin    Cal/Mol-Kelvin
 Total                   38.956             13.424             65.210
 Electronic               0.000              0.000              2.183
 Translational            0.889              2.981             37.771
 Rotational               0.889              2.981             22.649
 Vibrational             37.179              7.463              2.608
 Vibration     1          0.835              1.298              0.714

 Normal termination of Gaussian 09 at Tue Jun 21 21:41:18 2016.
