 Gaussian 09, Revision E.01,
 Gaussian 09:  EM64L-G09RevE.01 30-Nov-2015

 ------------------------------------------------------
 #p b3lyp/6-311++G(3df,2p) freq IOp(2/17=3) IOp(2/18=3)
 ------------------------------------------------------

 ---------
 b3lyp opt
 ---------
 Symbolic Z-matrix:
 Charge =  1 Multiplicity = 2

                         Standard orientation:
 ---------------------------------------------------------------------
 Center     Atomic      Atomic             Coordinates (Angstroms)
 Number     Number       Type             X           Y           Z
 ---------------------------------------------------------------------
      1          6           0        0.000000   -0.772556    0.000000
      2          6           0       -1.229938    0.000000    0.000000
      3          6           0        0.000000    0.772556    0.000000
      4          6           0        1.229938   -0.000000    0.000000
      5          1           0       -1.852547    0.000000    0.906724
      6          1           0       -1.852547    0.000000   -0.906724
      7          1           0        1.852547   -0.000000    0.906724
      8          1           0        1.852547    0.000000   -0.906724
 ---------------------------------------------------------------------

 SCF Done:  E(UB3LYP) =  -154.350329767     A.U. after   10 cycles

 The electronic state is 2-B1U.
 Alpha  occ. eigenvalues --  -10.52693 -10.52668 -10.49260 -10.49257  -1.24994
 Alpha  occ. eigenvalues --   -1.01350  -0.84128  -0.79737  -0.76981  -0.72255
 Alpha  occ. eigenvalues --   -0.69434  -0.65679  -0.55060  -0.49554
 Alpha virt. eigenvalues --   -0.34468  -0.28080  -0.17535  -0.13799  -0.13291
 Alpha virt. eigenvalues --   -0.13099  -0.10931  -0.10746  -0.09069  -0.06870
 Alpha virt. eigenvalues --   -0.05881  -0.04735  -0.03127  -0.02892  -0.02200

  Beta  occ. eigenvalues --  -10.52095 -10.52074 -10.49332 -10.49329  -1.23463
  Beta  occ. eigenvalues --   -1.00902  -0.82582  -0.78365  -0.74380  -0.71128
  Beta  occ. eigenvalues --   -0.67336  -0.65570  -0.53992
  Beta virt. eigenvalues --   -0.39724  -0.29893  -0.27805  -0.17141  -0.13591
  Beta virt. eigenvalues --   -0.12944  -0.12907  -0.10606  -0.10485  -0.08928
  Beta virt. eigenvalues --   -0.06595  -0.05592  -0.04247  -0.03153  -0.02578

 Mulliken charges and spin densities:
               1          2
     1  C    0.341981   0.405459
     2  C   -0.317965  -0.103218
     3  C    0.341981   0.405459
     4  C   -0.317965  -0.103218
     5  H    0.237992   0.098879
     6  H    0.237992   0.098879
     7  H    0.237992   0.098879
     8  H    0.237992   0.098879
 Sum of Mulliken charges =   1.00000   1.00000

 Dipole moment (field-independent basis, Debye):
    X=              0.0000    Y=             -0.0000    Z=              0.0000  Tot=              0.0000
 Quadrupole moment (field-independent basis, Debye-Ang):
   XX=             -9.4583   YY=            -23.7860   ZZ=            -18.5127
   XY=              0.0000   XZ=             -0.0000   YZ=             -0.0000

  Exact polarizability:  47.829   0.000  35.452  -0.000   0.000  29.612
 Approx polarizability:  70.809  -0.000  84.345  -0.000  -0.000  43.952

                      1                      2                      3
                     B1U                    B2U                    AU
 Frequencies --    248.8199               543.1327               838.7527
 Red. masses --      2.3937                 5.0581                 1.0078
 Frc consts  --      0.0873                 0.8791                 0.4177
 IR Inten    --     17.4887                98.5918                 0.0000

                      4                      5                      6
                     AG                     B3G                    B2G
 Frequencies --    850.0783               868.1927               884.1874
 Red. masses --      8.7422                 1.2174                 1.2733
 Frc consts  --      3.7221                 0.5406                 0.5865
 IR Inten    --      0.0000                 0.0000                 0.0000

                      7                      8                      9
                     B1G                    B1U                    B2U
 Frequencies --    942.1931               951.9176              1074.2919
 Red. masses --      9.9097                 1.4645                 1.2385
 Frc consts  --      5.1831                 0.7819                 0.8421
 IR Inten    --      0.0000                 3.6057                41.5154

                     10                     11                     12
                     B1G                    AG                     B3U
 Frequencies --   1120.1596              1143.4696              1326.4128
 Red. masses --      1.2827                 5.9915                 2.1982
 Frc consts  --      0.9483                 4.6157                 2.2786
 IR Inten    --      0.0000                 0.0000                37.4057

                     13                     14                     15
                     AG                     B3U                    B3U
 Frequencies --   1397.7255              1418.3063              2927.9095
 Red. masses --      1.0860                 1.7056                 1.0458
 Frc consts  --      1.2501                 2.0215                 5.2824
 IR Inten    --      0.0000                56.9802               140.1094

                     16                     17                     18
                     AG                     B2G                    B1U
 Frequencies --   2959.1322              2979.5380              2988.5451
 Red. masses --      1.0537                 1.1019                 1.1151
 Frc consts  --      5.4360                 5.7636                 5.8678
 IR Inten    --      0.0000                 0.0000               104.1133

 - Thermochemistry -
 -------------------
 Temperature   298.150 Kelvin.  Pressure   1.00000 Atm.
 Atom     1 has atomic number  6 and mass  12.00000

 Molecular mass:    52.03130 amu.
 Principal axes and moments of inertia in atomic units:
                           1         2         3
     Eigenvalues --    62.98847 190.89280 230.20995
           X            1.00000   0.00000   0.00000
           Y           -0.00000   1.00000   0.00000
           Z            0.00000  -0.00000   1.00000
 This molecule is an asymmetric top.
 Rotational symmetry number  4.
 Rotational temperatures (Kelvin)      1.37507     0.45373     0.37624
 Rotational constants (GHZ):          28.65193     9.45421     7.83954
 Zero-point vibrational energy     152301.2 (Joules/Mol)
                                   36.40085 (Kcal/Mol)
 Warning -- explicit consideration of   2 degrees of freedom as
           vibrations may cause significant error
 Vibrational temperatures:    358.00   781.45  1206.78  1223.07  1249.13
          (Kelvin)           1272.15  1355.60  1369.60  1545.66  1611.66
                             1645.20  1908.41  2011.01  2040.62  4212.60
                             4257.53  4286.89  4299.84

 Zero-point correction=                           0.058008 (Hartree/Particle)
 Thermal correction to Energy=                    0.061961
 Thermal correction to Enthalpy=                  0.062905
 Thermal correction to Gibbs Free Energy=         0.033277
 Sum of electronic and zero-point Energies=           -154.292321
 Sum of electronic and thermal Energies=              -154.288369
 Sum of electronic and thermal Enthalpies=            -154.287425
 Sum of electronic and thermal Free Energies=         -154.317053

                     E (Thermal)             CV                S
                      KCal/Mol        Cal/Mol-Kelvin    Cal/Mol-Kelvin
 Total                   38.881             13.140             62.357
 Electronic               0.000              0.000              1.377
 Translational            0.889              2.981             37.771
 Rotational               0.889              2.981             19.787
 Vibrational             37.104              7.178              3.422
 Vibration     1          0.662              1.765              1.739
 Vibration     2          0.898              1.155              0.559

 Optimization completed.
    -- Stationary point found.
 Normal termination of Gaussian 09 at Thu Jan 31 06:15:40 2019.
