 Gaussian 09, Revision E.01,
 Gaussian 09:  EM64L-G09RevE.01 30-Nov-2015

 ---------------------------------------------
 #p b3lyp/6-311++G(3df,2p) freq symmetry=Loose
 ---------------------------------------------

 ---------
 b3lyp opt
 ---------
 Symbolic Z-matrix:
 Charge =  3 Multiplicity = 2

                         Standard orientation:
 ---------------------------------------------------------------------
 Center     Atomic      Atomic             Coordinates (Angstroms)
 Number     Number       Type             X           Y           Z
 ---------------------------------------------------------------------
      1          6           0       -1.231625    1.277884    0.000000
      2          1           0       -1.712709    1.636911    0.963403
      3          1           0       -1.712709    1.636911   -0.963403
      4          6           0        0.000000    0.565320   -0.000000
      5          1           0        0.851534    1.319121   -0.000000
      6          6           0        1.437810   -1.489455   -0.000000
      7          6           0        0.299697   -0.834672    0.000000
      8          1           0       -0.461404   -1.707401    0.000000
 ---------------------------------------------------------------------

 SCF Done:  E(UB3LYP) =  -152.912671927     A.U. after   16 cycles

 The electronic state is 2-A'.
 Alpha  occ. eigenvalues --  -11.14879 -11.04798 -11.03714 -10.98973  -1.60745
 Alpha  occ. eigenvalues --   -1.53588  -1.37951  -1.27029  -1.21942  -1.17873
 Alpha  occ. eigenvalues --   -1.17328  -1.13391  -1.08428
 Alpha virt. eigenvalues --   -0.88947  -0.88240  -0.85477  -0.70141  -0.56764
 Alpha virt. eigenvalues --   -0.52879  -0.51636  -0.48024  -0.47290  -0.45974
 Alpha virt. eigenvalues --   -0.44458  -0.42837  -0.40576  -0.39913  -0.38895

  Beta  occ. eigenvalues --  -11.12318 -11.04930 -11.03700 -10.98809  -1.59912
  Beta  occ. eigenvalues --   -1.52315  -1.37244  -1.26454  -1.21857  -1.17671
  Beta  occ. eigenvalues --   -1.15310  -1.06848
  Beta virt. eigenvalues --   -0.92632  -0.87538  -0.86328  -0.83249  -0.68326
  Beta virt. eigenvalues --   -0.56724  -0.52921  -0.51409  -0.47841  -0.47371
  Beta virt. eigenvalues --   -0.45789  -0.44168  -0.42910  -0.40408  -0.39824

 Mulliken charges and spin densities:
               1          2
     1  C    0.121886   0.011741
     2  H    0.372763  -0.006878
     3  H    0.372763  -0.006878
     4  C    0.497192  -0.100931
     5  H    0.320367   0.001527
     6  C    0.531391   1.101731
     7  C    0.471818   0.003466
     8  H    0.311821  -0.003779
 Sum of Mulliken charges =   3.00000   1.00000

 Dipole moment (field-independent basis, Debye):
    X=             -0.7997    Y=              0.7239    Z=             -0.0000  Tot=              1.0787
 Quadrupole moment (field-independent basis, Debye-Ang):
   XX=              6.8741   YY=             13.4409   ZZ=            -15.5142
   XY=            -18.8967   XZ=              0.0000   YZ=             -0.0000

  Exact polarizability:  41.806 -16.798  44.624   0.000   0.000  21.481
 Approx polarizability:  81.421 -36.453  75.232   0.000  -0.000  29.562

                      1                      2                      3
                     A"                     A'                     A'
 Frequencies --    189.5589               265.8555               387.8907
 Red. masses --      3.2498                 4.6827                 3.7300
 Frc consts  --      0.0688                 0.1950                 0.3307
 IR Inten    --      7.0259                16.9970                 2.2533

                      4                      5                      6
                     A"                     A"                     A"
 Frequencies --    483.7925               629.1645               724.7692
 Red. masses --      1.1376                 1.4640                 1.1580
 Frc consts  --      0.1569                 0.3415                 0.3584
 IR Inten    --     13.9278                14.2167                55.1457

                      7                      8                      9
                     A'                     A'                     A"
 Frequencies --    800.8262               931.4471               996.9525
 Red. masses --      3.9861                 1.1722                 1.6297
 Frc consts  --      1.5062                 0.5992                 0.9543
 IR Inten    --      2.4380                38.2631                 4.8574

                     10                     11                     12
                     A'                     A'                     A'
 Frequencies --   1125.4350              1140.8186              1247.4192
 Red. masses --      1.4355                 1.7645                 1.0974
 Frc consts  --      1.0713                 1.3531                 1.0061
 IR Inten    --     47.7319                 5.8936               174.6746

                     13                     14                     15
                     A'                     A'                     A'
 Frequencies --   1364.1922              1564.6432              2489.5640
 Red. masses --      2.5594                 8.1505                 1.0735
 Frc consts  --      2.8064                11.7562                 3.9200
 IR Inten    --     16.9350               387.9495               499.2465

                     16                     17                     18
                     A'                     A'                     A"
 Frequencies --   2648.0735              2672.6045              2725.1744
 Red. masses --      1.0533                 1.0726                 1.1161
 Frc consts  --      4.3517                 4.5141                 4.8836
 IR Inten    --    947.7827               283.9254               392.8214

 - Thermochemistry -
 -------------------
 Temperature   298.150 Kelvin.  Pressure   1.00000 Atm.
 Atom     1 has atomic number  6 and mass  12.00000

 Molecular mass:    52.03130 amu.
 Principal axes and moments of inertia in atomic units:
                           1         2         3
     Eigenvalues --    34.05022 404.69564 425.38424
           X           -0.64446   0.76464   0.00000
           Y            0.76464   0.64446   0.00000
           Z            0.00000   0.00000   1.00000
 This molecule is an asymmetric top.
 Rotational symmetry number  1.
 Rotational temperatures (Kelvin)      2.54371     0.21402     0.20361
 Rotational constants (GHZ):          53.00234     4.45950     4.24261
 Zero-point vibrational energy     133911.1 (Joules/Mol)
                                   32.00551 (Kcal/Mol)
 Warning -- explicit consideration of   4 degrees of freedom as
           vibrations may cause significant error
 Vibrational temperatures:    272.73   382.51   558.09   696.07   905.23
          (Kelvin)           1042.78  1152.21  1340.14  1434.39  1619.25
                             1641.38  1794.76  1962.77  2251.17  3581.92
                             3809.98  3845.28  3920.91

 Zero-point correction=                           0.051004 (Hartree/Particle)
 Thermal correction to Energy=                    0.055917
 Thermal correction to Enthalpy=                  0.056862
 Thermal correction to Gibbs Free Energy=         0.023946
 Sum of electronic and zero-point Energies=           -152.861668
 Sum of electronic and thermal Energies=              -152.856755
 Sum of electronic and thermal Enthalpies=            -152.855810
 Sum of electronic and thermal Free Energies=         -152.888726

                     E (Thermal)             CV                S
                      KCal/Mol        Cal/Mol-Kelvin    Cal/Mol-Kelvin
 Total                   35.089             16.440             69.276
 Electronic               0.000              0.000              1.377
 Translational            0.889              2.981             37.771
 Rotational               0.889              2.981             23.287
 Vibrational             33.311             10.479              6.841
 Vibration     1          0.633              1.854              2.232
 Vibration     2          0.672              1.736              1.623
 Vibration     3          0.756              1.496              1.008
 Vibration     4          0.840              1.286              0.700

 Optimization completed.
    -- Stationary point found.
 Normal termination of Gaussian 09 at Tue Jul 19 20:55:51 2016.
