 Gaussian 09, Revision E.01,
 Gaussian 09:  EM64L-G09RevE.01 30-Nov-2015

 ---------------------------------------------
 #p b3lyp/6-311++G(3df,2p) freq symmetry=Loose
 ---------------------------------------------

 ---------
 b3lyp opt
 ---------
 Symbolic Z-matrix:
 Charge =  2 Multiplicity = 3

                         Standard orientation:
 ---------------------------------------------------------------------
 Center     Atomic      Atomic             Coordinates (Angstroms)
 Number     Number       Type             X           Y           Z
 ---------------------------------------------------------------------
      1          6           0       -1.504216   -0.118247    0.000447
      2          1           0       -1.884887   -0.439355   -1.011884
      3          1           0       -2.253333    0.793235   -0.005127
      4          1           0       -1.884276   -0.428787    1.015957
      5          6           0       -0.062474   -0.038786   -0.000003
      6          6           0        0.998609    0.857705   -0.000559
      7          6           0        1.247739   -0.468754    0.000119
      8          1           0        1.944543   -1.316601    0.001028
 ---------------------------------------------------------------------

 SCF Done:  E(UB3LYP) =  -153.746904791     A.U. after   14 cycles

 The electronic state is 3-A.
 Alpha  occ. eigenvalues --  -10.79184 -10.77954 -10.75546 -10.74695  -1.47204
 Alpha  occ. eigenvalues --   -1.28789  -1.07622  -1.06119  -0.97937  -0.97767
 Alpha  occ. eigenvalues --   -0.91987  -0.88134  -0.86180  -0.79541
 Alpha virt. eigenvalues --   -0.53081  -0.51228  -0.41448  -0.37377  -0.31232
 Alpha virt. eigenvalues --   -0.30613  -0.29491  -0.28978  -0.28116  -0.26116
 Alpha virt. eigenvalues --   -0.25521  -0.23305  -0.23212  -0.20638  -0.20376

  Beta  occ. eigenvalues --  -10.77704 -10.76982 -10.75350 -10.73952  -1.45401
  Beta  occ. eigenvalues --   -1.25944  -1.05608  -1.03246  -0.96359  -0.93724
  Beta  occ. eigenvalues --   -0.87354  -0.86896
  Beta virt. eigenvalues --   -0.73353  -0.62816  -0.52446  -0.48596  -0.38375
  Beta virt. eigenvalues --   -0.36266  -0.30106  -0.29663  -0.29140  -0.28166
  Beta virt. eigenvalues --   -0.27362  -0.25013  -0.23938  -0.22861  -0.22472

 Mulliken charges and spin densities:
               1          2
     1  C   -0.281532   0.428488
     2  H    0.322349   0.068509
     3  H    0.343879   0.197353
     4  H    0.322314   0.067646
     5  C    0.261555  -0.018856
     6  C    0.229649   1.139130
     7  C    0.421086   0.085366
     8  H    0.380701   0.032364
 Sum of Mulliken charges =   2.00000   2.00000

 Dipole moment (field-independent basis, Debye):
    X=             -2.9761    Y=             -0.6292    Z=             -0.0034  Tot=              3.0418
 Quadrupole moment (field-independent basis, Debye-Ang):
   XX=              7.3026   YY=            -13.7020   ZZ=            -16.7309
   XY=             -3.0618   XZ=              0.0132   YZ=              0.0036

  Exact polarizability:  61.982  -0.475  30.162   0.013   0.005  24.128
 Approx polarizability: 102.528   4.613  51.774   0.016   0.009  35.959

                      1                      2                      3
                      A                      A                      A
 Frequencies --    143.5903               175.5328               289.5479
 Red. masses --      1.2326                 1.3375                 2.7788
 Frc consts  --      0.0150                 0.0243                 0.1373
 IR Inten    --      3.6486               244.0893               116.9943

                      4                      5                      6
                      A                      A                      A
 Frequencies --    391.1886               707.1729               745.3230
 Red. masses --      2.6289                 1.5578                 1.6883
 Frc consts  --      0.2370                 0.4590                 0.5526
 IR Inten    --     15.8695               529.3400                50.1401

                      7                      8                      9
                      A                      A                      A
 Frequencies --    847.9479               856.1871               971.3236
 Red. masses --      2.5539                 1.2676                 1.4039
 Frc consts  --      1.0819                 0.5475                 0.7804
 IR Inten    --    278.8017                21.1452                23.9606

                     10                     11                     12
                      A                      A                      A
 Frequencies --   1095.4108              1199.1578              1210.1269
 Red. masses --      1.2095                 2.3873                 1.6349
 Frc consts  --      0.8551                 2.0226                 1.4106
 IR Inten    --     31.3759                40.2044                70.1136

                     13                     14                     15
                      A                      A                      A
 Frequencies --   1292.5650              1696.5984              2211.2031
 Red. masses --      2.8167                 6.5705                 1.0682
 Frc consts  --      2.7727                11.1432                 3.0773
 IR Inten    --     24.4795                66.6443               504.7948

                     16                     17                     18
                      A                      A                      A
 Frequencies --   2704.1131              2737.1723              3077.7350
 Red. masses --      1.0411                 1.0997                 1.1274
 Frc consts  --      4.4855                 4.8544                 6.2918
 IR Inten    --    486.9545               336.3798               370.0913

 - Thermochemistry -
 -------------------
 Temperature   298.150 Kelvin.  Pressure   1.00000 Atm.
 Atom     1 has atomic number  6 and mass  12.00000

 Molecular mass:    52.03130 amu.
 Principal axes and moments of inertia in atomic units:
                           1         2         3
     Eigenvalues --    58.33211 270.70323 314.23542
           X            0.99905  -0.04347   0.00008
           Y            0.04347   0.99905   0.00027
           Z           -0.00009  -0.00026   1.00000
 This molecule is an asymmetric top.
 Rotational symmetry number  1.
 Rotational temperatures (Kelvin)      1.48484     0.31996     0.27563
 Rotational constants (GHZ):          30.93907     6.66686     5.74328
 Zero-point vibrational energy     133694.0 (Joules/Mol)
                                   31.95364 (Kcal/Mol)
 Warning -- explicit consideration of   4 degrees of freedom as
           vibrations may cause significant error
 Vibrational temperatures:    206.59   252.55   416.59   562.83  1017.46
          (Kelvin)           1072.35  1220.01  1231.86  1397.52  1576.05
                             1725.32  1741.10  1859.71  2441.02  3181.42
                             3890.61  3938.18  4428.17

 Zero-point correction=                           0.050921 (Hartree/Particle)
 Thermal correction to Energy=                    0.056208
 Thermal correction to Enthalpy=                  0.057152
 Thermal correction to Gibbs Free Energy=         0.023012
 Sum of electronic and zero-point Energies=           -153.695983
 Sum of electronic and thermal Energies=              -153.690697
 Sum of electronic and thermal Enthalpies=            -153.689752
 Sum of electronic and thermal Free Energies=         -153.723893

                     E (Thermal)             CV                S
                      KCal/Mol        Cal/Mol-Kelvin    Cal/Mol-Kelvin
 Total                   35.271             16.917             71.854
 Electronic               0.000              0.000              2.183
 Translational            0.889              2.981             37.771
 Rotational               0.889              2.981             23.122
 Vibrational             33.494             10.955              8.779
 Vibration     1          0.616              1.910              2.755
 Vibration     2          0.627              1.873              2.375
 Vibration     3          0.686              1.693              1.477
 Vibration     4          0.759              1.489              0.996

 Normal termination of Gaussian 09 at Tue Jun 21 23:55:05 2016.
