 Gaussian 09, Revision E.01,
 Gaussian 09:  EM64L-G09RevE.01 30-Nov-2015

 ---------------------------------------------
 #p b3lyp/6-311++G(3df,2p) freq symmetry=Loose
 ---------------------------------------------

 ---------
 b3lyp opt
 ---------
 Symbolic Z-matrix:
 Charge =  1 Multiplicity = 2

                         Standard orientation:
 ---------------------------------------------------------------------
 Center     Atomic      Atomic             Coordinates (Angstroms)
 Number     Number       Type             X           Y           Z
 ---------------------------------------------------------------------
      1          6           0       -1.617972   -0.268662   -0.000243
      2          1           0       -2.203782    0.074400    0.866772
      3          1           0       -1.511163   -1.347331   -0.002059
      4          1           0       -2.206438    0.077658   -0.863992
      5          6           0       -0.355136    0.467930   -0.000121
      6          1           0       -0.390518    1.561524   -0.000196
      7          6           0        0.868544   -0.086211    0.000718
      8          6           0        2.156548   -0.174098   -0.000442
 ---------------------------------------------------------------------

 SCF Done:  E(UB3LYP) =  -154.356977791     A.U. after   18 cycles

 The electronic state is 2-A.
 Alpha  occ. eigenvalues --  -10.53085 -10.52449 -10.48687 -10.41798  -1.10736
 Alpha  occ. eigenvalues --   -1.02355  -0.91686  -0.78380  -0.70053  -0.66884
 Alpha  occ. eigenvalues --   -0.63357  -0.59921  -0.58854  -0.56223
 Alpha virt. eigenvalues --   -0.39033  -0.27262  -0.18123  -0.15949  -0.13727
 Alpha virt. eigenvalues --   -0.12789  -0.11782  -0.09588  -0.09140  -0.08194
 Alpha virt. eigenvalues --   -0.06940  -0.05865  -0.05069  -0.03874  -0.03563

  Beta  occ. eigenvalues --  -10.52526 -10.51938 -10.48061 -10.41725  -1.09517
  Beta  occ. eigenvalues --   -1.00142  -0.90916  -0.77772  -0.69048  -0.66947
  Beta  occ. eigenvalues --   -0.63141  -0.58047  -0.55095
  Beta virt. eigenvalues --   -0.44138  -0.38367  -0.23385  -0.17071  -0.15536
  Beta virt. eigenvalues --   -0.13629  -0.12573  -0.11758  -0.09418  -0.09094
  Beta virt. eigenvalues --   -0.08150  -0.06534  -0.05738  -0.04929  -0.03594

 Mulliken charges and spin densities:
               1          2
     1  C   -0.376810   0.040056
     2  H    0.229356  -0.000683
     3  H    0.209659  -0.002298
     4  H    0.228983  -0.000663
     5  C   -0.030232  -0.157949
     6  H    0.238414   0.017285
     7  C    0.629509   0.373688
     8  C   -0.128880   0.730563
 Sum of Mulliken charges =   1.00000   1.00000

 Dipole moment (field-independent basis, Debye):
    X=             -1.7320    Y=              0.5138    Z=              0.0013  Tot=              1.8066
 Quadrupole moment (field-independent basis, Debye-Ang):
   XX=            -11.6300   YY=            -18.3069   ZZ=            -21.2683
   XY=             -1.6113   XZ=             -0.0020   YZ=             -0.0004

  Exact polarizability:  88.385  -6.088  32.794  -0.019  -0.001  29.176
 Approx polarizability: 151.721 -10.808  46.824  -0.044  -0.007  42.285

                      1                      2                      3
                      A                      A                      A
 Frequencies --    138.9968               208.7176               227.0704
 Red. masses --      1.2782                 4.3753                 4.9088
 Frc consts  --      0.0145                 0.1123                 0.1491
 IR Inten    --      2.4471                 3.2868                 0.3762

                      4                      5                      6
                      A                      A                      A
 Frequencies --    473.5607               780.6649               841.6179
 Red. masses --      5.3004                 1.1025                 2.1659
 Frc consts  --      0.7003                 0.3959                 0.9039
 IR Inten    --     32.9896                 5.2350                 5.5408

                      7                      8                      9
                      A                      A                      A
 Frequencies --   1023.2915              1081.2038              1156.9297
 Red. masses --      1.8518                 1.9035                 3.0084
 Frc consts  --      1.1425                 1.3111                 2.3725
 IR Inten    --      2.2493                56.8642                91.1739

                     10                     11                     12
                      A                      A                      A
 Frequencies --   1268.6029              1280.4752              1416.2267
 Red. masses --      1.6686                 1.2299                 1.0490
 Frc consts  --      1.5822                 1.1881                 1.2397
 IR Inten    --     22.5774               107.8317                18.4401

                     13                     14                     15
                      A                      A                      A
 Frequencies --   1441.9924              1518.7467              2965.2473
 Red. masses --      1.4265                 2.2676                 1.0433
 Frc consts  --      1.7476                 3.0816                 5.4049
 IR Inten    --      3.3457                36.3267               127.1604

                     16                     17                     18
                      A                      A                      A
 Frequencies --   2989.4781              3070.7349              3171.3199
 Red. masses --      1.0900                 1.0845                 1.0995
 Frc consts  --      5.7392                 6.0249                 6.5153
 IR Inten    --     25.9830                67.8024                15.0564

 - Thermochemistry -
 -------------------
 Temperature   298.150 Kelvin.  Pressure   1.00000 Atm.
 Atom     1 has atomic number  6 and mass  12.00000

 Molecular mass:    52.03130 amu.
 Principal axes and moments of inertia in atomic units:
                           1         2         3
     Eigenvalues --    34.78738 395.71328 419.71955
           X            0.99995   0.01028  -0.00001
           Y           -0.01028   0.99995  -0.00002
           Z            0.00001   0.00002   1.00000
 This molecule is an asymmetric top.
 Rotational symmetry number  1.
 Rotational temperatures (Kelvin)      2.48981     0.21888     0.20636
 Rotational constants (GHZ):          51.87919     4.56073     4.29987
 Zero-point vibrational energy     149861.4 (Joules/Mol)
                                   35.81774 (Kcal/Mol)
 Warning -- explicit consideration of   4 degrees of freedom as
           vibrations may cause significant error
 Vibrational temperatures:    199.99   300.30   326.70   681.35  1123.20
          (Kelvin)           1210.90  1472.29  1555.61  1664.56  1825.23
                             1842.32  2037.63  2074.70  2185.14  4266.32
                             4301.19  4418.10  4562.82

 Zero-point correction=                           0.057079 (Hartree/Particle)
 Thermal correction to Energy=                    0.062160
 Thermal correction to Enthalpy=                  0.063104
 Thermal correction to Gibbs Free Energy=         0.029547
 Sum of electronic and zero-point Energies=           -154.299899
 Sum of electronic and thermal Energies=              -154.294818
 Sum of electronic and thermal Enthalpies=            -154.293874
 Sum of electronic and thermal Free Energies=         -154.327431

                     E (Thermal)             CV                S
                      KCal/Mol        Cal/Mol-Kelvin    Cal/Mol-Kelvin
 Total                   39.006             15.548             70.628
 Electronic               0.000              0.000              1.377
 Translational            0.889              2.981             37.771
 Rotational               0.889              2.981             23.273
 Vibrational             37.229              9.586              8.207
 Vibration     1          0.615              1.914              2.818
 Vibration     2          0.642              1.827              2.055
 Vibration     3          0.651              1.800              1.902
 Vibration     4          0.830              1.309              0.728

 Normal termination of Gaussian 09 at Tue Jun 21 22:19:10 2016.
