 Gaussian 09, Revision E.01,
 Gaussian 09:  EM64L-G09RevE.01 30-Nov-2015

 ---------------------------------------------
 #p b3lyp/6-311++G(3df,2p) freq symmetry=Loose
 ---------------------------------------------

 ---------
 b3lyp opt
 ---------
 Symbolic Z-matrix:
 Charge =  2 Multiplicity = 1

                         Standard orientation:
 ---------------------------------------------------------------------
 Center     Atomic      Atomic             Coordinates (Angstroms)
 Number     Number       Type             X           Y           Z
 ---------------------------------------------------------------------
      1          6           0        0.000000    0.635841   -0.000000
      2          6           0        0.457464   -0.609485   -0.000000
      3          6           0        0.948868   -1.741993   -0.000000
      4          1           0        1.365263   -2.745289   -0.000000
      5          1           0        0.761055    1.488882   -0.000000
      6          6           0       -1.211144    1.352830    0.000000
      7          1           0       -1.648723    1.716621    0.948755
      8          1           0       -1.648723    1.716621   -0.948755
 ---------------------------------------------------------------------

 SCF Done:  E(RB3LYP) =  -153.851176818     A.U. after   14 cycles

 The electronic state is 1-A'.
 Alpha  occ. eigenvalues --  -10.79994 -10.76445 -10.71786 -10.67572  -1.33934
 Alpha  occ. eigenvalues --   -1.24811  -1.15138  -1.02607  -0.97004  -0.96649
 Alpha  occ. eigenvalues --   -0.95889  -0.80594  -0.75763
 Alpha virt. eigenvalues --   -0.63385  -0.61642  -0.44805  -0.37931  -0.34082
 Alpha virt. eigenvalues --   -0.32640  -0.29066  -0.28769  -0.27691  -0.25135
 Alpha virt. eigenvalues --   -0.24555  -0.22945  -0.21784  -0.21231  -0.19072

 Mulliken charges:
               1
     1  C   -0.015706
     2  C    0.250389
     3  C    0.504017
     4  H    0.437360
     5  H    0.281682
     6  C   -0.111925
     7  H    0.327092
     8  H    0.327092
 Sum of Mulliken charges =   2.00000

 Dipole moment (field-independent basis, Debye):
    X=             -1.6208    Y=              2.2677    Z=             -0.0000  Tot=              2.7874
 Quadrupole moment (field-independent basis, Debye-Ang):
   XX=             -5.6156   YY=             10.0853   ZZ=            -17.4236
   XY=            -16.5271   XZ=              0.0000   YZ=             -0.0000

  Exact polarizability:  39.465 -20.979  59.624  -0.000   0.000  22.815
 Approx polarizability:  67.479 -46.719 121.199   0.000  -0.000  31.720

                      1                      2                      3
                     A'                     A"                     A'
 Frequencies --    147.1461               231.6585               354.1619
 Red. masses --      3.3990                 2.0254                 3.8374
 Frc consts  --      0.0434                 0.0640                 0.2836
 IR Inten    --     35.0199                35.9348                 6.3783

                      4                      5                      6
                     A"                     A"                     A'
 Frequencies --    366.9366               642.0981               709.0852
 Red. masses --      1.4678                 1.1863                 1.2340
 Frc consts  --      0.1164                 0.2882                 0.3656
 IR Inten    --      5.1092                18.4387                45.0417

                      7                      8                      9
                     A'                     A"                     A"
 Frequencies --    817.1649               917.6458               980.6784
 Red. masses --      3.2497                 1.3751                 1.6928
 Frc consts  --      1.2785                 0.6822                 0.9592
 IR Inten    --     28.4240                 6.0832                 2.1910

                     10                     11                     12
                     A'                     A'                     A'
 Frequencies --   1023.7800              1176.1922              1374.5308
 Red. masses --      1.4005                 1.4505                 1.1291
 Frc consts  --      0.8649                 1.1823                 1.2569
 IR Inten    --      7.7359                 7.7479                44.6869

                     13                     14                     15
                     A'                     A'                     A'
 Frequencies --   1494.3620              2117.1559              2633.1465
 Red. masses --      5.3991                 6.3032                 1.0769
 Frc consts  --      7.1036                16.6463                 4.3991
 IR Inten    --     14.3848               759.8039               297.1183

                     16                     17                     18
                     A'                     A"                     A'
 Frequencies --   2928.3899              3028.8680              3239.1332
 Red. masses --      1.0502                 1.1195                 1.1673
 Frc consts  --      5.3064                 6.0512                 7.2160
 IR Inten    --    299.3410               174.7226               204.6657

 - Thermochemistry -
 -------------------
 Temperature   298.150 Kelvin.  Pressure   1.00000 Atm.
 Atom     1 has atomic number  6 and mass  12.00000

 Molecular mass:    52.03130 amu.
 Principal axes and moments of inertia in atomic units:
                           1         2         3
     Eigenvalues --    25.50369 423.83364 436.37894
           X           -0.54807   0.83643   0.00000
           Y            0.83643   0.54807   0.00000
           Z            0.00000   0.00000   1.00000
 This molecule is an asymmetric top.
 Rotational symmetry number  1.
 Rotational temperatures (Kelvin)      3.39613     0.20436     0.19848
 Rotational constants (GHZ):          70.76394     4.25814     4.13572
 Zero-point vibrational energy     144641.3 (Joules/Mol)
                                   34.57010 (Kcal/Mol)
 Warning -- explicit consideration of   4 degrees of freedom as
           vibrations may cause significant error
 Vibrational temperatures:    211.71   333.30   509.56   527.94   923.83
          (Kelvin)           1020.21  1175.72  1320.29  1410.98  1472.99
                             1692.28  1977.64  2150.05  3046.11  3788.51
                             4213.29  4357.86  4660.38

 Zero-point correction=                           0.055091 (Hartree/Particle)
 Thermal correction to Energy=                    0.060261
 Thermal correction to Enthalpy=                  0.061205
 Thermal correction to Gibbs Free Energy=         0.028457
 Sum of electronic and zero-point Energies=           -153.796086
 Sum of electronic and thermal Energies=              -153.790916
 Sum of electronic and thermal Enthalpies=            -153.789972
 Sum of electronic and thermal Free Energies=         -153.822720

                     E (Thermal)             CV                S
                      KCal/Mol        Cal/Mol-Kelvin    Cal/Mol-Kelvin
 Total                   37.814             16.795             68.924
 Electronic               0.000              0.000              0.000
 Translational            0.889              2.981             37.771
 Rotational               0.889              2.981             23.071
 Vibrational             36.037             10.833              8.082
 Vibration     1          0.617              1.906              2.709
 Vibration     2          0.653              1.793              1.866
 Vibration     3          0.730              1.567              1.148
 Vibration     4          0.740              1.540              1.093

 Normal termination of Gaussian 09 at Tue Jul 19 18:41:52 2016.
