 Gaussian 09, Revision E.01,
 Gaussian 09:  EM64L-G09RevE.01 30-Nov-2015

 ---------------------------------------------
 #p b3lyp/6-311++G(3df,2p) freq symmetry=Loose
 ---------------------------------------------

 ---------
 b3lyp opt
 ---------
 Symbolic Z-matrix:
 Charge =  1 Multiplicity = 2

                         Standard orientation:
 ---------------------------------------------------------------------
 Center     Atomic      Atomic             Coordinates (Angstroms)
 Number     Number       Type             X           Y           Z
 ---------------------------------------------------------------------
      1          6           0        0.000000   -0.000000    0.629220
      2          6           0        0.000000   -0.000000   -0.629220
      3          6           0       -0.000000    0.000000   -1.952936
      4          6           0       -0.000000    0.000000    1.952936
      5          1           0       -0.318465    0.876366    2.512621
      6          1           0        0.318465   -0.876366    2.512621
      7          1           0        0.318465    0.876366   -2.512621
      8          1           0       -0.318465   -0.876366   -2.512621
 ---------------------------------------------------------------------

 SCF Done:  E(UB3LYP) =  -154.461471131     A.U. after   13 cycles

 The electronic state is 2-B2.
 Alpha  occ. eigenvalues --  -10.46509 -10.46366 -10.46160 -10.46157  -1.07416
 Alpha  occ. eigenvalues --   -1.01433  -0.92462  -0.75324  -0.72594  -0.70571
 Alpha  occ. eigenvalues --   -0.69023  -0.60709  -0.54473  -0.48610
 Alpha virt. eigenvalues --   -0.33928  -0.21020  -0.16004  -0.13615  -0.13255
 Alpha virt. eigenvalues --   -0.11105  -0.09769  -0.09585  -0.07645  -0.05861
 Alpha virt. eigenvalues --   -0.05050  -0.04943  -0.03641  -0.03165  -0.01178

  Beta  occ. eigenvalues --  -10.46275 -10.46127 -10.45671 -10.45670  -1.06066
  Beta  occ. eigenvalues --   -0.99775  -0.91288  -0.74459  -0.71922  -0.69467
  Beta  occ. eigenvalues --   -0.68202  -0.58582  -0.53111
  Beta virt. eigenvalues --   -0.39568  -0.30845  -0.19444  -0.15838  -0.13316
  Beta virt. eigenvalues --   -0.12029  -0.11033  -0.09662  -0.09473  -0.07211
  Beta virt. eigenvalues --   -0.05839  -0.04694  -0.04249  -0.03278  -0.02851

 Mulliken charges and spin densities:
               1          2
     1  C    0.377914   0.191218
     2  C    0.377914   0.191218
     3  C   -0.381032   0.296327
     4  C   -0.381032   0.296327
     5  H    0.251559   0.006228
     6  H    0.251559   0.006228
     7  H    0.251559   0.006228
     8  H    0.251559   0.006228
 Sum of Mulliken charges =   1.00000   1.00000

 Dipole moment (field-independent basis, Debye):
    X=              0.0000    Y=              0.0000    Z=             -0.0000  Tot=              0.0000
 Quadrupole moment (field-independent basis, Debye-Ang):
   XX=            -22.3453   YY=            -19.4063   ZZ=              2.5584
   XY=              0.0000   XZ=             -0.0000   YZ=             -0.0000

  Exact polarizability:  25.366  -0.000  28.726  -0.000  -0.000  95.684
 Approx polarizability:  35.167   0.000  39.455  -0.000  -0.000 177.704

                      1                      2                      3
                     B3                     B2                     B3
 Frequencies --    204.9978               211.7837               377.4198
 Red. masses --      3.6389                 2.5856                 3.3610
 Frc consts  --      0.0901                 0.0683                 0.2821
 IR Inten    --     13.4964                13.8617                 0.2833

                      4                      5                      6
                     B2                      A                      A
 Frequencies --    502.9893               695.9911               882.0104
 Red. masses --      5.1751                 1.0173                 3.7448
 Frc consts  --      0.7714                 0.2903                 1.7165
 IR Inten    --      0.3194                 0.0000                 0.0000

                      7                      8                      9
                     B2                     B3                     B3
 Frequencies --    953.9618               954.1413               991.1773
 Red. masses --      1.4399                 1.4438                 1.4046
 Frc consts  --      0.7721                 0.7744                 0.8130
 IR Inten    --      1.0884                27.6419                27.1639

                     10                     11                     12
                     B2                     B1                      A
 Frequencies --    999.9063              1370.4364              1424.7415
 Red. masses --      1.3932                 1.1677                 1.1719
 Frc consts  --      0.8207                 1.2921                 1.4016
 IR Inten    --      3.0379                69.5973                 0.0000

                     13                     14                     15
                     B1                      A                      A
 Frequencies --   1562.0453              1898.4770              3091.5551
 Red. masses --      5.1501                11.2800                 1.0511
 Frc consts  --      7.4038                23.9535                 5.9188
 IR Inten    --      2.4380                 0.0000                 0.0000

                     16                     17                     18
                     B1                     B3                     B2
 Frequencies --   3093.2845              3183.2973              3183.3029
 Red. masses --      1.0562                 1.1163                 1.1167
 Frc consts  --      5.9541                 6.6649                 6.6671
 IR Inten    --    165.0511                 9.6485                76.5970

 - Thermochemistry -
 -------------------
 Temperature   298.150 Kelvin.  Pressure   1.00000 Atm.
 Atom     1 has atomic number  6 and mass  12.00000

 Molecular mass:    52.03130 amu.
 Principal axes and moments of inertia in atomic units:
                           1         2         3
     Eigenvalues --    12.51643 453.15579 462.75214
           X           -0.00000  -0.00000   1.00000
           Y           -0.00000   1.00000   0.00000
           Z            1.00000   0.00000   0.00000
 This molecule is an asymmetric top.
 Rotational symmetry number  4.
 Rotational temperatures (Kelvin)      6.92001     0.19113     0.18717
 Rotational constants (GHZ):         144.18975     3.98261     3.90002
 Zero-point vibrational energy     153011.5 (Joules/Mol)
                                   36.57062 (Kcal/Mol)
 Warning -- explicit consideration of   4 degrees of freedom as
           vibrations may cause significant error
 Vibrational temperatures:    294.95   304.71   543.02   723.69  1001.37
          (Kelvin)           1269.01  1372.54  1372.79  1426.08  1438.64
                             1971.75  2049.88  2247.43  2731.48  4448.05
                             4450.54  4580.05  4580.06

 Zero-point correction=                           0.058279 (Hartree/Particle)
 Thermal correction to Energy=                    0.063116
 Thermal correction to Enthalpy=                  0.064060
 Thermal correction to Gibbs Free Energy=         0.032881
 Sum of electronic and zero-point Energies=           -154.403192
 Sum of electronic and thermal Energies=              -154.398355
 Sum of electronic and thermal Enthalpies=            -154.397411
 Sum of electronic and thermal Free Energies=         -154.428591

                     E (Thermal)             CV                S
                      KCal/Mol        Cal/Mol-Kelvin    Cal/Mol-Kelvin
 Total                   39.606             15.658             65.622
 Electronic               0.000              0.000              1.377
 Translational            0.889              2.981             37.771
 Rotational               0.889              2.981             19.734
 Vibrational             37.828              9.697              6.740
 Vibration     1          0.640              1.833              2.088
 Vibration     2          0.643              1.823              2.028
 Vibration     3          0.748              1.518              1.049
 Vibration     4          0.858              1.243              0.651

 Optimization completed.
    -- Stationary point found.
 Normal termination of Gaussian 09 at Tue Jul 19 23:24:25 2016.
