 Gaussian 09, Revision E.01,
 Gaussian 09:  EM64L-G09RevE.01 30-Nov-2015

 ---------------------------------------------
 #p b3lyp/6-311++G(3df,2p) freq symmetry=Loose
 ---------------------------------------------

 ---------
 b3lyp opt
 ---------
 Symbolic Z-matrix:
 Charge =  0 Multiplicity = 3

                         Standard orientation:
 ---------------------------------------------------------------------
 Center     Atomic      Atomic             Coordinates (Angstroms)
 Number     Number       Type             X           Y           Z
 ---------------------------------------------------------------------
      1          6           0        1.699854   -0.375777    0.000118
      2          1           0        2.129778   -0.736136   -0.926678
      3          1           0        2.131203   -0.733426    0.927355
      4          6           0        0.573611    0.552363   -0.000569
      5          1           0        0.766215    1.623549    0.000028
      6          6           0       -0.734615    0.136051    0.000219
      7          6           0       -1.892938   -0.243259    0.000156
      8          1           0       -2.902667   -0.570258   -0.000247
 ---------------------------------------------------------------------

 SCF Done:  E(UB3LYP) =  -154.705514353     A.U. after   15 cycles

 The electronic state is 3-A.
 Alpha  occ. eigenvalues --  -10.21080 -10.19811 -10.18686 -10.18376  -0.81784
 Alpha  occ. eigenvalues --   -0.74581  -0.65036  -0.54192  -0.48894  -0.45517
 Alpha  occ. eigenvalues --   -0.45039  -0.34038  -0.28967  -0.23362  -0.21286
 Alpha virt. eigenvalues --   -0.00618   0.00827   0.01506   0.02563   0.02908
 Alpha virt. eigenvalues --    0.04618   0.05667   0.07605   0.08204   0.09179
 Alpha virt. eigenvalues --    0.09539   0.10033   0.10915   0.11958   0.12987

  Beta  occ. eigenvalues --  -10.20090 -10.18880 -10.18448 -10.17684  -0.79564
  Beta  occ. eigenvalues --   -0.72054  -0.61971  -0.53192  -0.47403  -0.43635
  Beta  occ. eigenvalues --   -0.43439  -0.31108  -0.28390
  Beta virt. eigenvalues --   -0.09910  -0.08148  -0.00403   0.00956   0.01659
  Beta virt. eigenvalues --    0.02775   0.02965   0.05285   0.06142   0.07823
  Beta virt. eigenvalues --    0.08552   0.10046   0.10596   0.11297   0.11410

 Mulliken charges and spin densities:
               1          2
     1  C   -0.444650   1.007685
     2  H    0.161571   0.004103
     3  H    0.161509   0.004141
     4  C   -0.543819   0.689861
     5  H    0.149707   0.015751
     6  C   -0.136755  -0.185569
     7  C    0.335649   0.480081
     8  H    0.316788  -0.016054
 Sum of Mulliken charges =  -0.00000   2.00000

 Dipole moment (field-independent basis, Debye):
    X=              0.2836    Y=             -0.0167    Z=              0.0002  Tot=              0.2841
 Quadrupole moment (field-independent basis, Debye-Ang):
   XX=            -20.1356   YY=            -24.5670   ZZ=            -25.4214
   XY=              1.0060   XZ=              0.0040   YZ=              0.0033

  Exact polarizability:  76.554   4.695  41.241  -0.004  -0.003  35.534
 Approx polarizability: 113.684  14.140  57.717  -0.011  -0.004  48.476

                      1                      2                      3
                      A                      A                      A
 Frequencies --    198.3430               292.8890               424.5247
 Red. masses --      2.7981                 1.3917                 1.4667
 Frc consts  --      0.0649                 0.0703                 0.1557
 IR Inten    --      4.5995                 6.8994                32.7507

                      4                      5                      6
                      A                      A                      A
 Frequencies --    472.2245               477.8230               576.9235
 Red. masses --      2.8867                 1.2099                 5.2839
 Frc consts  --      0.3793                 0.1628                 1.0362
 IR Inten    --      5.3817                40.5850                19.8636

                      7                      8                      9
                      A                      A                      A
 Frequencies --    596.0862               643.8349               964.6717
 Red. masses --      1.1662                 1.2387                 1.3838
 Frc consts  --      0.2441                 0.3025                 0.7587
 IR Inten    --     23.2538                50.4468                 1.7512

                     10                     11                     12
                      A                      A                      A
 Frequencies --    969.6294              1157.3485              1350.3420
 Red. masses --      5.5412                 1.6346                 2.1901
 Frc consts  --      3.0695                 1.2900                 2.3529
 IR Inten    --      2.2750                 1.8667                 8.8418

                     13                     14                     15
                      A                      A                      A
 Frequencies --   1432.5559              2010.0879              3086.2025
 Red. masses --      1.1665                 6.7624                 1.0820
 Frc consts  --      1.4104                16.0984                 6.0718
 IR Inten    --      2.4147                 0.1099                 3.7920

                     16                     17                     18
                      A                      A                      A
 Frequencies --   3105.5780              3196.8104              3455.4651
 Red. masses --      1.0481                 1.1171                 1.1379
 Frc consts  --      5.9560                 6.7262                 8.0052
 IR Inten    --     11.8717                 3.1111                65.8249

 - Thermochemistry -
 -------------------
 Temperature   298.150 Kelvin.  Pressure   1.00000 Atm.
 Atom     1 has atomic number  6 and mass  12.00000

 Molecular mass:    52.03130 amu.
 Principal axes and moments of inertia in atomic units:
                           1         2         3
     Eigenvalues --    43.16979 385.59070 416.38909
           X            1.00000  -0.00257   0.00003
           Y            0.00257   1.00000   0.00025
           Z           -0.00003  -0.00025   1.00000
 This molecule is an asymmetric top.
 Rotational symmetry number  1.
 Rotational temperatures (Kelvin)      2.00635     0.22463     0.20801
 Rotational constants (GHZ):          41.80565     4.68046     4.33427
 Zero-point vibrational energy     146012.2 (Joules/Mol)
                                   34.89776 (Kcal/Mol)
 Warning -- explicit consideration of   7 degrees of freedom as
           vibrations may cause significant error
 Vibrational temperatures:    285.37   421.40   610.80   679.42   687.48
          (Kelvin)            830.06   857.63   926.33  1387.95  1395.08
                             1665.16  1942.84  2061.13  2892.06  4440.35
                             4468.23  4599.49  4971.64

 Zero-point correction=                           0.055613 (Hartree/Particle)
 Thermal correction to Energy=                    0.060803
 Thermal correction to Enthalpy=                  0.061747
 Thermal correction to Gibbs Free Energy=         0.028029
 Sum of electronic and zero-point Energies=           -154.649901
 Sum of electronic and thermal Energies=              -154.644711
 Sum of electronic and thermal Enthalpies=            -154.643767
 Sum of electronic and thermal Free Energies=         -154.677486

                     E (Thermal)             CV                S
                      KCal/Mol        Cal/Mol-Kelvin    Cal/Mol-Kelvin
 Total                   38.155             17.876             70.967
 Electronic               0.000              0.000              2.183
 Translational            0.889              2.981             37.771
 Rotational               0.889              2.981             23.454
 Vibrational             36.377             11.914              7.559
 Vibration     1          0.637              1.842              2.148
 Vibration     2          0.688              1.687              1.457
 Vibration     3          0.787              1.417              0.877
 Vibration     4          0.829              1.312              0.731
 Vibration     5          0.834              1.299              0.716
 Vibration     6          0.933              1.081              0.491
 Vibration     7          0.954              1.040              0.456

 Normal termination of Gaussian 09 at Tue Jun 21 21:53:13 2016.
