 Gaussian 09, Revision E.01,
 Gaussian 09:  EM64L-G09RevE.01 30-Nov-2015

 ---------------------------------------------
 #p b3lyp/6-311++G(3df,2p) freq symmetry=Loose
 ---------------------------------------------

 ---------
 b3lyp opt
 ---------
 Symbolic Z-matrix:
 Charge =  2 Multiplicity = 3

                         Standard orientation:
 ---------------------------------------------------------------------
 Center     Atomic      Atomic             Coordinates (Angstroms)
 Number     Number       Type             X           Y           Z
 ---------------------------------------------------------------------
      1          6           0       -0.727814   -0.665204    0.000312
      2          1           0       -1.419830   -1.523421    0.000461
      3          6           0        1.005156    0.652055   -0.000042
      4          1           0        1.559792    1.602134    0.001419
      5          6           0       -1.005143    0.652149   -0.000230
      6          6           0        0.727764   -0.665220   -0.000130
      7          1           0       -1.559561    1.602082   -0.000683
      8          1           0        1.419820   -1.523478   -0.000663
 ---------------------------------------------------------------------

 SCF Done:  E(UB3LYP) =  -153.783487094     A.U. after   13 cycles

 The electronic state is 3-A.
 Alpha  occ. eigenvalues --  -10.80172 -10.80171 -10.74930 -10.74896  -1.42000
 Alpha  occ. eigenvalues --   -1.24419  -1.14637  -1.04896  -1.02988  -0.97091
 Alpha  occ. eigenvalues --   -0.94077  -0.90022  -0.80770  -0.77620
 Alpha virt. eigenvalues --   -0.59588  -0.56748  -0.45358  -0.36580  -0.32861
 Alpha virt. eigenvalues --   -0.31903  -0.31687  -0.29043  -0.27139  -0.25486
 Alpha virt. eigenvalues --   -0.22798  -0.22626  -0.21575  -0.20756  -0.20726

  Beta  occ. eigenvalues --  -10.78806 -10.78804 -10.74690 -10.74656  -1.39151
  Beta  occ. eigenvalues --   -1.21043  -1.11537  -1.02778  -1.01277  -0.95000
  Beta  occ. eigenvalues --   -0.92508  -0.85604
  Beta virt. eigenvalues --   -0.68914  -0.66280  -0.55372  -0.50575  -0.41852
  Beta virt. eigenvalues --   -0.34988  -0.31539  -0.31348  -0.31058  -0.28532
  Beta virt. eigenvalues --   -0.26670  -0.25195  -0.22219  -0.21916  -0.20980

 Mulliken charges and spin densities:
               1          2
     1  C    0.228956   0.076005
     2  H    0.306084   0.054118
     3  C    0.029795   0.858821
     4  H    0.434916   0.010962
     5  C    0.029968   0.858991
     6  C    0.229211   0.076018
     7  H    0.435016   0.010954
     8  H    0.306053   0.054132
 Sum of Mulliken charges =   2.00000   2.00000

 Dipole moment (field-independent basis, Debye):
    X=              0.0005    Y=              1.2754    Z=              0.0005  Tot=              1.2754
 Quadrupole moment (field-independent basis, Debye-Ang):
   XX=             -2.6727   YY=             -3.7087   ZZ=            -20.5604
   XY=              0.0010   XZ=              0.0028   YZ=              0.0017

  Exact polarizability:  46.717   0.000  39.074   0.000  -0.001  20.398
 Approx polarizability:  86.811  -0.001  68.617  -0.002  -0.009  30.067

                      1                      2                      3
                      A                      A                      A
 Frequencies --    290.9623               377.3979               454.7007
 Red. masses --      3.9873                 2.5187                 3.3919
 Frc consts  --      0.1989                 0.2114                 0.4132
 IR Inten    --      4.6275                 0.0001                 8.6861

                      4                      5                      6
                      A                      A                      A
 Frequencies --    593.5294               682.6418               690.7404
 Red. masses --      1.1027                 1.3979                 1.3010
 Frc consts  --      0.2289                 0.3838                 0.3657
 IR Inten    --    136.4897                 3.5397                 0.0000

                      7                      8                      9
                      A                      A                      A
 Frequencies --    836.7653               884.8861               934.0647
 Red. masses --      1.4015                 1.1818                 1.3800
 Frc consts  --      0.5782                 0.5452                 0.7094
 IR Inten    --      0.6923                31.7915                 0.0001

                     10                     11                     12
                      A                      A                      A
 Frequencies --   1013.0042              1097.3265              1174.1363
 Red. masses --      1.2302                 1.3465                 3.6126
 Frc consts  --      0.7438                 0.9553                 2.9343
 IR Inten    --     14.9897                 7.1904                71.3844

                     13                     14                     15
                      A                      A                      A
 Frequencies --   1427.0020              1469.8636              2958.9894
 Red. masses --      3.7561                 6.3138                 1.0792
 Frc consts  --      4.5064                 8.0371                 5.5674
 IR Inten    --    151.1368                11.0611               121.7969

                     16                     17                     18
                      A                      A                      A
 Frequencies --   3001.9549              3046.8086              3074.9031
 Red. masses --      1.0961                 1.1135                 1.1221
 Frc consts  --      5.8197                 6.0903                 6.2509
 IR Inten    --    489.3662               356.6851               201.7076

 - Thermochemistry -
 -------------------
 Temperature   298.150 Kelvin.  Pressure   1.00000 Atm.
 Atom     1 has atomic number  6 and mass  12.00000

 Molecular mass:    52.03130 amu.
 Principal axes and moments of inertia in atomic units:
                           1         2         3
     Eigenvalues --   109.55020 164.00710 273.55726
           X            1.00000   0.00003  -0.00000
           Y           -0.00003   1.00000   0.00007
           Z            0.00000  -0.00007   1.00000
 This molecule is an asymmetric top.
 Rotational symmetry number  1.
 Rotational temperatures (Kelvin)      0.79063     0.52811     0.31662
 Rotational constants (GHZ):          16.47410    11.00404     6.59731
 Zero-point vibrational energy     143609.8 (Joules/Mol)
                                   34.32356 (Kcal/Mol)
 Warning -- explicit consideration of   4 degrees of freedom as
           vibrations may cause significant error
 Vibrational temperatures:    418.63   542.99   654.21   853.96   982.17
          (Kelvin)            993.82  1203.92  1273.15  1343.91  1457.49
                             1578.81  1689.32  2053.13  2114.80  4257.32
                             4319.14  4383.67  4424.09

 Zero-point correction=                           0.054698 (Hartree/Particle)
 Thermal correction to Energy=                    0.059218
 Thermal correction to Enthalpy=                  0.060162
 Thermal correction to Gibbs Free Energy=         0.027783
 Sum of electronic and zero-point Energies=           -153.728789
 Sum of electronic and thermal Energies=              -153.724269
 Sum of electronic and thermal Enthalpies=            -153.723325
 Sum of electronic and thermal Free Energies=         -153.755704

                     E (Thermal)             CV                S
                      KCal/Mol        Cal/Mol-Kelvin    Cal/Mol-Kelvin
 Total                   37.160             15.893             68.148
 Electronic               0.000              0.000              2.183
 Translational            0.889              2.981             37.771
 Rotational               0.889              2.981             23.112
 Vibrational             35.382              9.931              5.082
 Vibration     1          0.687              1.691              1.468
 Vibration     2          0.748              1.518              1.050
 Vibration     3          0.813              1.351              0.782
 Vibration     4          0.951              1.046              0.461

 Normal termination of Gaussian 09 at Tue Jun 21 23:28:33 2016.
