 Gaussian 09, Revision E.01,
 Gaussian 09:  EM64L-G09RevE.01 30-Nov-2015

 ------------------------------------------------------
 #p b3lyp/6-311++G(3df,2p) freq IOp(2/17=3) IOp(2/18=3)
 ------------------------------------------------------

 ---------
 b3lyp opt
 ---------
 Symbolic Z-matrix:
 Charge =  3 Multiplicity = 2

                         Standard orientation:
 ---------------------------------------------------------------------
 Center     Atomic      Atomic             Coordinates (Angstroms)
 Number     Number       Type             X           Y           Z
 ---------------------------------------------------------------------
      1          6           0       -0.323366    0.702959    0.000000
      2          1           0       -0.992560    0.977706    0.924234
      3          1           0       -0.992560    0.977706   -0.924234
      4          6           0        0.323366   -0.702959    0.000000
      5          1           0        0.992560   -0.977706   -0.924234
      6          1           0        0.992560   -0.977706    0.924234
      7          6           0        0.323366    1.954532    0.000000
      8          6           0       -0.323366   -1.954532    0.000000
 ---------------------------------------------------------------------

 SCF Done:  E(UB3LYP) =  -152.768789712     A.U. after   15 cycles

 The electronic state is 2-AG.
 Alpha  occ. eigenvalues --  -11.16043 -11.16042 -11.00124 -11.00107  -1.61926
 Alpha  occ. eigenvalues --   -1.56424  -1.33885  -1.26403  -1.22417  -1.18173
 Alpha  occ. eigenvalues --   -1.15264  -1.12145  -1.08970
 Alpha virt. eigenvalues --   -0.90110  -0.86117  -0.85937  -0.85403  -0.59692
 Alpha virt. eigenvalues --   -0.58621  -0.57502  -0.53091  -0.51000  -0.47675
 Alpha virt. eigenvalues --   -0.47173  -0.45442  -0.42633  -0.41773  -0.37741

  Beta  occ. eigenvalues --  -11.15099 -11.15097 -10.99971 -10.99954  -1.60961
  Beta  occ. eigenvalues --   -1.55033  -1.32505  -1.25267  -1.22309  -1.17211
  Beta  occ. eigenvalues --   -1.15055  -1.03857
  Beta virt. eigenvalues --   -0.97685  -0.88707  -0.84738  -0.84650  -0.84123
  Beta virt. eigenvalues --   -0.59211  -0.58588  -0.57231  -0.52170  -0.50800
  Beta virt. eigenvalues --   -0.47522  -0.46684  -0.45432  -0.42418  -0.40636

 Mulliken charges and spin densities:
               1          2
     1  C    0.160638   0.047213
     2  H    0.370959   0.004379
     3  H    0.370959   0.004379
     4  C    0.160638   0.047213
     5  H    0.370959   0.004379
     6  H    0.370959   0.004379
     7  C    0.597444   0.444029
     8  C    0.597444   0.444029
 Sum of Mulliken charges =   3.00000   1.00000

 Dipole moment (field-independent basis, Debye):
    X=             -0.0000    Y=              0.0000    Z=              0.0000  Tot=              0.0000
 Quadrupole moment (field-independent basis, Debye-Ang):
   XX=            -10.2031   YY=             16.8047   ZZ=            -12.1578
   XY=             -1.2711   XZ=             -0.0000   YZ=              0.0000

  Exact polarizability:  29.221   6.662 150.303   0.000  -0.000  26.678
 Approx polarizability:  62.188  77.156 515.108   0.000   0.000  43.477

                      1                      2                      3
                     AU                     BU                     AG
 Frequencies --    133.3518               248.0879               364.5745
 Red. masses --      2.9666                 7.8434                 5.2465
 Frc consts  --      0.0311                 0.2844                 0.4109
 IR Inten    --      2.4954                 7.2422                 0.0000

                      4                      5                      6
                     AU                     BG                     BU
 Frequencies --    453.9728               469.7219               693.5166
 Red. masses --      1.3447                 1.8434                 1.4145
 Frc consts  --      0.1633                 0.2396                 0.4008
 IR Inten    --     55.0103                 0.0000               285.5167

                      7                      8                      9
                     AG                     AU                     AG
 Frequencies --    707.0442               856.8600               942.1855
 Red. masses --      6.0927                 1.0107                 1.6652
 Frc consts  --      1.7945                 0.4372                 0.8709
 IR Inten    --      0.0000                 1.7560                 0.0000

                     10                     11                     12
                     BG                     AG                     BU
 Frequencies --   1055.3442              1091.7442              1126.6566
 Red. masses --      1.1540                 1.2851                 1.2237
 Frc consts  --      0.7573                 0.9024                 0.9152
 IR Inten    --      0.0000                 0.0000               202.9694

                     13                     14                     15
                     BU                     AG                     BU
 Frequencies --   1262.5173              1277.8320              2360.7617
 Red. masses --      2.4555                 2.0559                 1.0597
 Frc consts  --      2.3060                 1.9778                 3.4798
 IR Inten    --     56.3999                 0.0000              1522.9672

                     16                     17                     18
                     BG                     AU                     AG
 Frequencies --   2362.9916              2382.8554              2407.0841
 Red. masses --      1.0868                 1.0877                 1.0574
 Frc consts  --      3.5755                 3.6387                 3.6096
 IR Inten    --      0.0000               861.2135                 0.0000

 - Thermochemistry -
 -------------------
 Temperature   298.150 Kelvin.  Pressure   1.00000 Atm.
 Atom     1 has atomic number  6 and mass  12.00000

 Molecular mass:    52.03130 amu.
 Principal axes and moments of inertia in atomic units:
                           1         2         3
     Eigenvalues --    43.18657 397.03903 415.63120
           X            0.05865   0.99828   0.00000
           Y            0.99828  -0.05865   0.00000
           Z           -0.00000   0.00000   1.00000
 This molecule is an asymmetric top.
 Rotational symmetry number  2.
 Rotational temperatures (Kelvin)      2.00557     0.21815     0.20839
 Rotational constants (GHZ):          41.78941     4.54550     4.34217
 Zero-point vibrational energy     120805.5 (Joules/Mol)
                                   28.87321 (Kcal/Mol)
 Warning -- explicit consideration of   5 degrees of freedom as
           vibrations may cause significant error
 Vibrational temperatures:    191.86   356.94   524.54   653.16   675.82
          (Kelvin)            997.81  1017.28  1232.83  1355.59  1518.40
                             1570.77  1621.01  1816.48  1838.51  3396.61
                             3399.81  3428.39  3463.25

 Zero-point correction=                           0.046012 (Hartree/Particle)
 Thermal correction to Energy=                    0.051299
 Thermal correction to Enthalpy=                  0.052243
 Thermal correction to Gibbs Free Energy=         0.019140
 Sum of electronic and zero-point Energies=           -152.722777
 Sum of electronic and thermal Energies=              -152.717491
 Sum of electronic and thermal Enthalpies=            -152.716547
 Sum of electronic and thermal Free Energies=         -152.749650

                     E (Thermal)             CV                S
                      KCal/Mol        Cal/Mol-Kelvin    Cal/Mol-Kelvin
 Total                   32.190             17.729             69.671
 Electronic               0.000              0.000              1.377
 Translational            0.889              2.981             37.771
 Rotational               0.889              2.981             22.104
 Vibrational             30.413             11.768              8.419
 Vibration     1          0.613              1.920              2.897
 Vibration     2          0.662              1.766              1.744
 Vibration     3          0.738              1.545              1.103
 Vibration     4          0.812              1.352              0.784
 Vibration     5          0.827              1.317              0.738

 Optimization completed.
    -- Stationary point found.
 Normal termination of Gaussian 09 at Thu Jan 31 06:25:06 2019.
