 Gaussian 09, Revision E.01,
 Gaussian 09:  EM64L-G09RevE.01 30-Nov-2015

 ---------------------------------------------
 #p b3lyp/6-311++G(3df,2p) freq symmetry=Loose
 ---------------------------------------------

 ---------
 b3lyp opt
 ---------
 Symbolic Z-matrix:
 Charge =  3 Multiplicity = 4

                         Standard orientation:
 ---------------------------------------------------------------------
 Center     Atomic      Atomic             Coordinates (Angstroms)
 Number     Number       Type             X           Y           Z
 ---------------------------------------------------------------------
      1          6           0        0.750323    0.330510   -0.325766
      2          1           0        0.814631    1.088361   -1.165972
      3          6           0        1.841178   -0.353462    0.097466
      4          1           0        2.706926   -0.950590    0.494943
      5          6           0       -0.750320    0.330517    0.325766
      6          6           0       -1.841149   -0.353488   -0.097485
      7          1           0       -0.814782    1.088310    1.166032
      8          1           0       -2.706968   -0.950544   -0.494888
 ---------------------------------------------------------------------

 SCF Done:  E(UB3LYP) =  -152.909367737     A.U. after   13 cycles

 The electronic state is 4-A.
 Alpha  occ. eigenvalues --  -11.05563 -11.05562 -11.03318 -11.03307  -1.59419
 Alpha  occ. eigenvalues --   -1.54059  -1.35456  -1.27740  -1.21962  -1.20867
 Alpha  occ. eigenvalues --   -1.18847  -1.07736  -1.07466  -0.97244
 Alpha virt. eigenvalues --   -0.87359  -0.78555  -0.77497  -0.60687  -0.55866
 Alpha virt. eigenvalues --   -0.52022  -0.49868  -0.49091  -0.47066  -0.45013
 Alpha virt. eigenvalues --   -0.41848  -0.41798  -0.40746  -0.37729  -0.36961

  Beta  occ. eigenvalues --  -11.03849 -11.03849 -11.02419 -11.02406  -1.54504
  Beta  occ. eigenvalues --   -1.48107  -1.31758  -1.25192  -1.20343  -1.19082
  Beta  occ. eigenvalues --   -1.16486
  Beta virt. eigenvalues --   -0.92833  -0.92536  -0.84545  -0.79130  -0.70918
  Beta virt. eigenvalues --   -0.69764  -0.56867  -0.53835  -0.49875  -0.48793
  Beta virt. eigenvalues --   -0.48231  -0.46175  -0.44023  -0.40899  -0.40535

 Mulliken charges and spin densities:
               1          2
     1  C    0.109001   0.544823
     2  H    0.344765   0.007950
     3  C    0.542522   0.967986
     4  H    0.503730  -0.020735
     5  C    0.108981   0.544799
     6  C    0.542498   0.967966
     7  H    0.344764   0.007945
     8  H    0.503741  -0.020735
 Sum of Mulliken charges =   3.00000   3.00000

 Dipole moment (field-independent basis, Debye):
    X=             -0.0003    Y=             -0.8371    Z=              0.0001  Tot=              0.8371
 Quadrupole moment (field-independent basis, Debye-Ang):
   XX=             30.3202   YY=             -9.6974   ZZ=            -12.1711
   XY=             -0.0003   XZ=              2.0978   YZ=             -0.0000

  Exact polarizability:  96.634   0.001  25.939  -0.370   0.000  23.799
 Approx polarizability: 223.295   0.002  39.181   3.138   0.000  34.883

                      1                      2                      3
                      A                      A                      A
 Frequencies --    179.0031               336.9760               346.0704
 Red. masses --      2.4325                 2.5777                 2.0547
 Frc consts  --      0.0459                 0.1725                 0.1450
 IR Inten    --      5.6414                 1.5231                61.5120

                      4                      5                      6
                      A                      A                      A
 Frequencies --    424.9643               627.8902               660.9527
 Red. masses --      3.6959                 1.2777                 1.4119
 Frc consts  --      0.3933                 0.2968                 0.3634
 IR Inten    --      7.2170               133.9907                 0.0386

                      7                      8                      9
                      A                      A                      A
 Frequencies --    681.6393               712.8210               782.2388
 Red. masses --      1.3027                 1.2174                 1.9650
 Frc consts  --      0.3566                 0.3644                 0.7084
 IR Inten    --     70.0303                58.6097                 6.1210

                     10                     11                     12
                      A                      A                      A
 Frequencies --    791.3994              1056.8037              1076.1783
 Red. masses --      1.7458                 1.1005                 1.1599
 Frc consts  --      0.6442                 0.7241                 0.7915
 IR Inten    --     18.0274                 0.6296               129.8749

                     13                     14                     15
                      A                      A                      A
 Frequencies --   1371.8536              1445.9741              2669.6655
 Red. masses --      5.7326                 5.3951                 1.0870
 Frc consts  --      6.3565                 6.6462                 4.5645
 IR Inten    --     20.0759               113.3477               701.9005

                     16                     17                     18
                      A                      A                      A
 Frequencies --   2690.3894              2824.3524              2856.4447
 Red. masses --      1.0807                 1.1300                 1.1293
 Frc consts  --      4.6088                 5.3110                 5.4290
 IR Inten    --    532.1171              1900.3263               164.7448

 - Thermochemistry -
 -------------------
 Temperature   298.150 Kelvin.  Pressure   1.00000 Atm.
 Atom     1 has atomic number  6 and mass  12.00000

 Molecular mass:    52.03130 amu.
 Principal axes and moments of inertia in atomic units:
                           1         2         3
     Eigenvalues --    56.53413 417.76309 431.42005
           X            0.99997  -0.00000   0.00737
           Y            0.00000   1.00000  -0.00002
           Z           -0.00737   0.00002   0.99997
 This molecule is an asymmetric top.
 Rotational symmetry number  1.
 Rotational temperatures (Kelvin)      1.53206     0.20733     0.20076
 Rotational constants (GHZ):          31.92304     4.32001     4.18326
 Zero-point vibrational energy     128811.6 (Joules/Mol)
                                   30.78671 (Kcal/Mol)
 Warning -- explicit consideration of   4 degrees of freedom as
           vibrations may cause significant error
 Vibrational temperatures:    257.55   484.83   497.92   611.43   903.39
          (Kelvin)            950.96   980.73  1025.59  1125.47  1138.65
                             1520.50  1548.38  1973.79  2080.43  3841.05
                             3870.87  4063.61  4109.78

 Zero-point correction=                           0.049062 (Hartree/Particle)
 Thermal correction to Energy=                    0.054255
 Thermal correction to Enthalpy=                  0.055199
 Thermal correction to Gibbs Free Energy=         0.020998
 Sum of electronic and zero-point Energies=           -152.860306
 Sum of electronic and thermal Energies=              -152.855113
 Sum of electronic and thermal Enthalpies=            -152.854169
 Sum of electronic and thermal Free Energies=         -152.888369

                     E (Thermal)             CV                S
                      KCal/Mol        Cal/Mol-Kelvin    Cal/Mol-Kelvin
 Total                   34.045             18.154             71.981
 Electronic               0.000              0.000              2.755
 Translational            0.889              2.981             37.771
 Rotational               0.889              2.981             23.837
 Vibrational             32.268             12.192              7.619
 Vibration     1          0.629              1.868              2.339
 Vibration     2          0.718              1.602              1.226
 Vibration     3          0.724              1.583              1.184
 Vibration     4          0.787              1.416              0.875

 Optimization completed.
    -- Stationary point found.
 Normal termination of Gaussian 09 at Wed Jun 22 00:57:03 2016.
