 Gaussian 09, Revision E.01,
 Gaussian 09:  EM64L-G09RevE.01 30-Nov-2015

 ---------------------------------------------
 #p b3lyp/6-311++G(3df,2p) freq symmetry=Loose
 ---------------------------------------------

 ---------
 b3lyp opt
 ---------
 Symbolic Z-matrix:
 Charge =  0 Multiplicity = 3

                         Standard orientation:
 ---------------------------------------------------------------------
 Center     Atomic      Atomic             Coordinates (Angstroms)
 Number     Number       Type             X           Y           Z
 ---------------------------------------------------------------------
      1          1           0       -1.681447   -0.255531    0.893404
      2          6           0        0.202174   -1.043212    0.000000
      3          1           0       -0.088388    1.999808   -0.000000
      4          6           0       -0.000000    0.921400   -0.000000
      5          6           0        1.075728    0.037471    0.000000
      6          6           0       -1.060592   -0.189128    0.000000
      7          1           0        2.147417    0.152070   -0.000000
      8          1           0       -1.681447   -0.255531   -0.893404
 ---------------------------------------------------------------------

 SCF Done:  E(UB3LYP) =  -154.687204771     A.U. after   14 cycles

 The electronic state is 3-A".
 Alpha  occ. eigenvalues --  -10.21358 -10.19946 -10.19468 -10.18997  -0.89542
 Alpha  occ. eigenvalues --   -0.67871  -0.63698  -0.53419  -0.46731  -0.45803
 Alpha  occ. eigenvalues --   -0.40300  -0.37262  -0.31201  -0.25755  -0.19470
 Alpha virt. eigenvalues --   -0.00265   0.00541   0.01290   0.01793   0.02780
 Alpha virt. eigenvalues --    0.05481   0.06848   0.07494   0.08286   0.09768
 Alpha virt. eigenvalues --    0.09802   0.10500   0.12541   0.12981   0.13273

  Beta  occ. eigenvalues --  -10.19353 -10.19188 -10.19033 -10.18898  -0.87350
  Beta  occ. eigenvalues --   -0.67524  -0.59728  -0.53171  -0.44327  -0.42749
  Beta  occ. eigenvalues --   -0.38156  -0.36488  -0.29108
  Beta virt. eigenvalues --   -0.10073  -0.06269  -0.00179   0.01292   0.02173
  Beta virt. eigenvalues --    0.02420   0.03593   0.06047   0.06961   0.07529
  Beta virt. eigenvalues --    0.08211   0.10353   0.10705   0.10887   0.12552

 Mulliken charges and spin densities:
               1          2
     1  H    0.124724   0.007700
     2  C   -0.052613   1.620009
     3  H    0.197578   0.022238
     4  C   -0.017438   0.760764
     5  C   -0.136135  -0.346462
     6  C   -0.433185  -0.076901
     7  H    0.192345   0.004952
     8  H    0.124724   0.007700
 Sum of Mulliken charges =  -0.00000   2.00000

 Dipole moment (field-independent basis, Debye):
    X=             -0.2440    Y=              1.0886    Z=             -0.0000  Tot=              1.1156
 Quadrupole moment (field-independent basis, Debye-Ang):
   XX=            -21.5230   YY=            -25.4123   ZZ=            -25.8441
   XY=              0.5009   XZ=              0.0000   YZ=              0.0000

  Exact polarizability:  49.649  -0.544  51.886  -0.000  -0.000  35.217
 Approx polarizability:  70.891  -2.399  83.519   0.000   0.000  49.810

                      1                      2                      3
                     A"                     A"                     A'
 Frequencies --    416.3532               570.7577               820.8832
 Red. masses --      1.8568                 1.1841                 2.8987
 Frc consts  --      0.1896                 0.2273                 1.1508
 IR Inten    --     27.8127                41.0450                15.4804

                      4                      5                      6
                     A"                     A'                     A'
 Frequencies --    867.9621               873.4618               941.1349
 Red. masses --      1.5923                 6.6823                 1.7660
 Frc consts  --      0.7068                 3.0038                 0.9216
 IR Inten    --     12.2628                 3.1501                 5.7506

                      7                      8                      9
                     A"                     A'                     A"
 Frequencies --   1003.5951              1008.4648              1049.4816
 Red. masses --      1.4661                 3.3046                 1.0840
 Frc consts  --      0.8700                 1.9801                 0.7035
 IR Inten    --      8.4105                 7.3702                 0.5232

                     10                     11                     12
                     A'                     A'                     A'
 Frequencies --   1115.3017              1191.8827              1280.0241
 Red. masses --      1.7821                 1.4666                 1.8362
 Frc consts  --      1.3061                 1.2275                 1.7725
 IR Inten    --      9.0103                 1.6832                11.7470

                     13                     14                     15
                     A'                     A'                     A'
 Frequencies --   1399.3944              1479.4912              3051.2175
 Red. masses --      3.9998                 1.1814                 1.0552
 Frc consts  --      4.6149                 1.5236                 5.7881
 IR Inten    --      0.3688                 1.2410                24.9695

                     16                     17                     18
                     A"                     A'                     A'
 Frequencies --   3096.0789              3170.3907              3234.9770
 Red. masses --      1.1077                 1.0901                 1.1034
 Frc consts  --      6.2560                 6.4555                 6.8036
 IR Inten    --      9.9336                 2.0627                 2.8848

 - Thermochemistry -
 -------------------
 Temperature   298.150 Kelvin.  Pressure   1.00000 Atm.
 Atom     1 has atomic number  1 and mass   1.00783

 Molecular mass:    52.03130 amu.
 Principal axes and moments of inertia in atomic units:
                           1         2         3
     Eigenvalues --   104.44079 142.82861 235.77891
           X            0.99111  -0.13303   0.00000
           Y            0.13303   0.99111   0.00000
           Z           -0.00000   0.00000   1.00000
 This molecule is an asymmetric top.
 Rotational symmetry number  1.
 Rotational temperatures (Kelvin)      0.82931     0.60642     0.36735
 Rotational constants (GHZ):          17.28004    12.63571     7.65438
 Zero-point vibrational energy     158929.0 (Joules/Mol)
                                   37.98494 (Kcal/Mol)
 Warning -- explicit consideration of   2 degrees of freedom as
           vibrations may cause significant error
 Vibrational temperatures:    599.04   821.19  1181.07  1248.80  1256.72
          (Kelvin)           1354.08  1443.95  1450.95  1509.97  1604.67
                             1714.85  1841.67  2013.41  2128.66  4390.02
                             4454.56  4561.48  4654.40

 Zero-point correction=                           0.060533 (Hartree/Particle)
 Thermal correction to Energy=                    0.064243
 Thermal correction to Enthalpy=                  0.065188
 Thermal correction to Gibbs Free Energy=         0.034216
 Sum of electronic and zero-point Energies=           -154.626672
 Sum of electronic and thermal Energies=              -154.622961
 Sum of electronic and thermal Enthalpies=            -154.622017
 Sum of electronic and thermal Free Energies=         -154.652989

                     E (Thermal)             CV                S
                      KCal/Mol        Cal/Mol-Kelvin    Cal/Mol-Kelvin
 Total                   40.313             12.526             65.185
 Electronic               0.000              0.000              2.183
 Translational            0.889              2.981             37.771
 Rotational               0.889              2.981             22.780
 Vibrational             38.536              6.565              2.451
 Vibration     1          0.780              1.435              0.904
 Vibration     2          0.927              1.095              0.503

 Optimization completed.
    -- Stationary point found.
 Normal termination of Gaussian 09 at Tue Jul 19 20:19:25 2016.
