 Gaussian 09, Revision E.01,
 Gaussian 09:  EM64L-G09RevE.01 30-Nov-2015

 ---------------------------------------------
 #p b3lyp/6-311++G(3df,2p) freq symmetry=Loose
 ---------------------------------------------

 ---------
 b3lyp opt
 ---------
 Symbolic Z-matrix:
 Charge =  0 Multiplicity = 3

                         Standard orientation:
 ---------------------------------------------------------------------
 Center     Atomic      Atomic             Coordinates (Angstroms)
 Number     Number       Type             X           Y           Z
 ---------------------------------------------------------------------
      1          6           0        1.681858    0.107196    0.023720
      2          1           0        2.560031   -0.523246    0.007004
      3          1           0        1.839559    1.177061    0.069853
      4          6           0        0.422543   -0.415325   -0.020081
      5          1           0        0.287159   -1.490842   -0.042724
      6          6           0       -2.039736   -0.175595    0.046375
      7          6           0       -0.745747    0.378984   -0.050789
      8          1           0       -0.600259    1.465464   -0.029479
 ---------------------------------------------------------------------

 SCF Done:  E(UB3LYP) =  -154.653640482     A.U. after   20 cycles

 The electronic state is 3-A.
 Alpha  occ. eigenvalues --  -10.23271 -10.22371 -10.21794 -10.20199  -0.85268
 Alpha  occ. eigenvalues --   -0.76074  -0.62580  -0.57032  -0.48786  -0.47194
 Alpha  occ. eigenvalues --   -0.40839  -0.37796  -0.29249  -0.27606  -0.19783
 Alpha virt. eigenvalues --   -0.07657  -0.01353   0.00203   0.00972   0.01963
 Alpha virt. eigenvalues --    0.04215   0.04843   0.06012   0.07543   0.08634
 Alpha virt. eigenvalues --    0.09183   0.10756   0.11003   0.11397   0.12037

  Beta  occ. eigenvalues --  -10.22591 -10.22429 -10.21322 -10.18411  -0.83931
  Beta  occ. eigenvalues --   -0.72934  -0.60792  -0.55323  -0.47742  -0.45775
  Beta  occ. eigenvalues --   -0.40317  -0.34802  -0.25676
  Beta virt. eigenvalues --   -0.17553  -0.04454  -0.04116  -0.01214   0.00252
  Beta virt. eigenvalues --    0.02119   0.02861   0.04395   0.05482   0.06357
  Beta virt. eigenvalues --    0.07722   0.08882   0.09593   0.10908   0.11701

 Mulliken charges and spin densities:
               1          2
     1  C   -0.420171   0.511197
     2  H    0.174378  -0.015818
     3  H    0.152402  -0.012279
     4  C    0.177375  -0.175193
     5  H    0.171350   0.002409
     6  C   -0.568253   1.213163
     7  C    0.183877   0.427238
     8  H    0.129042   0.049283
 Sum of Mulliken charges =  -0.00000   2.00000

 Dipole moment (field-independent basis, Debye):
    X=              4.7757    Y=              0.8472    Z=             -0.3256  Tot=              4.8612
 Quadrupole moment (field-independent basis, Debye-Ang):
   XX=            -32.1002   YY=            -23.3426   ZZ=            -26.2169
   XY=             -1.9865   XZ=              1.0294   YZ=              0.2379

  Exact polarizability: 114.082   6.469  48.149   7.442   1.265  37.509
 Approx polarizability: 145.404   7.260  65.185   2.567   0.022  51.438

                      1                      2                      3
                      A                      A                      A
 Frequencies --    149.3870               302.8346               502.7380
 Red. masses --      4.4414                 3.1836                 2.3539
 Frc consts  --      0.0584                 0.1720                 0.3505
 IR Inten    --     36.3955                11.7823                80.3369

                      4                      5                      6
                      A                      A                      A
 Frequencies --    523.7011               724.7422               951.7617
 Red. masses --      1.7587                 1.2680                 1.5713
 Frc consts  --      0.2842                 0.3924                 0.8386
 IR Inten    --     57.8007               180.6119                 7.5962

                      7                      8                      9
                      A                      A                      A
 Frequencies --    955.7885              1024.6205              1115.5323
 Red. masses --      1.3806                 1.2015                 1.8715
 Frc consts  --      0.7431                 0.7432                 1.3721
 IR Inten    --     37.5863                17.0709                17.2852

                     10                     11                     12
                      A                      A                      A
 Frequencies --   1206.1543              1285.0328              1314.8171
 Red. masses --      1.9626                 2.2570                 1.8750
 Frc consts  --      1.6822                 2.1959                 1.9098
 IR Inten    --     40.7794                10.7553                16.1968

                     13                     14                     15
                      A                      A                      A
 Frequencies --   1454.4381              1539.9769              2996.6743
 Red. masses --      1.6195                 1.6887                 1.0827
 Frc consts  --      2.0184                 2.3596                 5.7286
 IR Inten    --     45.5732                26.5100                23.9999

                     16                     17                     18
                      A                      A                      A
 Frequencies --   3138.0388              3157.3256              3233.1325
 Red. masses --      1.0546                 1.0909                 1.1174
 Frc consts  --      6.1185                 6.4072                 6.8817
 IR Inten    --      3.8814                 1.8122                 2.5173

 - Thermochemistry -
 -------------------
 Temperature   298.150 Kelvin.  Pressure   1.00000 Atm.
 Atom     1 has atomic number  6 and mass  12.00000

 Molecular mass:    52.03130 amu.
 Principal axes and moments of inertia in atomic units:
                           1         2         3
     Eigenvalues --    37.29746 367.49507 404.25769
           X            0.99999  -0.00466   0.00143
           Y            0.00465   0.99994   0.00949
           Z           -0.00147  -0.00948   0.99995
 This molecule is an asymmetric top.
 Rotational symmetry number  1.
 Rotational temperatures (Kelvin)      2.32224     0.23569     0.21425
 Rotational constants (GHZ):          48.38778     4.91093     4.46433
 Zero-point vibrational energy     152982.6 (Joules/Mol)
                                   36.56372 (Kcal/Mol)
 Warning -- explicit consideration of   4 degrees of freedom as
           vibrations may cause significant error
 Vibrational temperatures:    214.93   435.71   723.33   753.49  1042.74
          (Kelvin)           1369.37  1375.16  1474.20  1605.00  1735.38
                             1848.87  1891.73  2092.61  2215.68  4311.54
                             4514.93  4542.68  4651.75

 Zero-point correction=                           0.058268 (Hartree/Particle)
 Thermal correction to Energy=                    0.062888
 Thermal correction to Enthalpy=                  0.063832
 Thermal correction to Gibbs Free Energy=         0.030912
 Sum of electronic and zero-point Energies=           -154.595372
 Sum of electronic and thermal Energies=              -154.590753
 Sum of electronic and thermal Enthalpies=            -154.589809
 Sum of electronic and thermal Free Energies=         -154.622728

                     E (Thermal)             CV                S
                      KCal/Mol        Cal/Mol-Kelvin    Cal/Mol-Kelvin
 Total                   39.463             14.887             69.285
 Electronic               0.000              0.000              2.183
 Translational            0.889              2.981             37.771
 Rotational               0.889              2.981             23.231
 Vibrational             37.685              8.926              6.100
 Vibration     1          0.618              1.903              2.680
 Vibration     2          0.694              1.668              1.401
 Vibration     3          0.858              1.244              0.651
 Vibration     4          0.879              1.198              0.601

 Optimization completed.
    -- Stationary point found.
 Normal termination of Gaussian 09 at Tue Jun 21 21:27:29 2016.
