 Gaussian 09, Revision E.01,
 Gaussian 09:  EM64L-G09RevE.01 30-Nov-2015

 ---------------------------------------------
 #p b3lyp/6-311++G(3df,2p) freq symmetry=Loose
 ---------------------------------------------

 ---------
 b3lyp opt
 ---------
 Symbolic Z-matrix:
 Charge =  2 Multiplicity = 1

                         Standard orientation:
 ---------------------------------------------------------------------
 Center     Atomic      Atomic             Coordinates (Angstroms)
 Number     Number       Type             X           Y           Z
 ---------------------------------------------------------------------
      1          6           0       -0.000000    0.000000    0.108702
      2          6           0        0.000000   -1.266737   -0.541543
      3          1           0        0.000000   -2.205303    0.022812
      4          1           0        0.000000   -1.331680   -1.635078
      5          6           0       -0.000000    0.000000    1.511805
      6          6           0        0.000000    1.266737   -0.541543
      7          1           0        0.000000    1.331680   -1.635078
      8          1           0        0.000000    2.205303    0.022812
 ---------------------------------------------------------------------

 SCF Done:  E(RB3LYP) =  -153.775608109     A.U. after   11 cycles

 The electronic state is 1-A1.
 Alpha  occ. eigenvalues --  -10.83588 -10.77585 -10.77584 -10.72457  -1.37063
 Alpha  occ. eigenvalues --   -1.21420  -1.18279  -1.02335  -0.97676  -0.93266
 Alpha  occ. eigenvalues --   -0.91192  -0.86550  -0.80281
 Alpha virt. eigenvalues --   -0.64166  -0.62940  -0.62409  -0.43350  -0.34783
 Alpha virt. eigenvalues --   -0.32087  -0.30050  -0.29740  -0.28103  -0.27211
 Alpha virt. eigenvalues --   -0.25840  -0.24161  -0.21342  -0.21237  -0.21046

 Mulliken charges:
               1
     1  C    1.287437
     2  C   -0.314590
     3  H    0.297537
     4  H    0.294231
     5  C    0.158208
     6  C   -0.314590
     7  H    0.294231
     8  H    0.297537
 Sum of Mulliken charges =   2.00000

 Dipole moment (field-independent basis, Debye):
    X=              0.0000    Y=             -0.0000    Z=             -2.1524  Tot=              2.1524
 Quadrupole moment (field-independent basis, Debye-Ang):
   XX=            -19.4610   YY=              0.2506   ZZ=            -10.3609
   XY=              0.0000   XZ=             -0.0000   YZ=             -0.0000

  Exact polarizability:  22.324  -0.000  45.761  -0.000  -0.000  40.413
 Approx polarizability:  34.062   0.000  73.216  -0.000  -0.000  68.065

                      1                      2                      3
                     B2                     A1                     B1
 Frequencies --    162.6524               359.2776               373.1545
 Red. masses --      5.9372                 2.3345                 4.3033
 Frc consts  --      0.0925                 0.1775                 0.3530
 IR Inten    --     17.4468                 0.0629                 8.8920

                      4                      5                      6
                     B1                     A2                     A1
 Frequencies --    421.8320               461.6616               919.0563
 Red. masses --      1.0713                 1.0099                 4.6549
 Frc consts  --      0.1123                 0.1268                 2.3166
 IR Inten    --      2.9310                 0.0000                 0.0495

                      7                      8                      9
                     B2                     A1                     A2
 Frequencies --    954.7894              1000.0350              1173.2079
 Red. masses --      1.2063                 1.5825                 1.3159
 Frc consts  --      0.6479                 0.9324                 1.0671
 IR Inten    --      5.8995                68.8853                 0.0000

                     10                     11                     12
                     B1                     B2                     A1
 Frequencies --   1196.1462              1313.3301              1438.9730
 Red. masses --      1.4307                 4.1834                 5.6458
 Frc consts  --      1.2061                 4.2514                 6.8878
 IR Inten    --     15.8200               319.3112               379.1346

                     13                     14                     15
                     B2                     A1                     B2
 Frequencies --   1472.3989              1489.6536              3036.0441
 Red. masses --      1.2445                 1.1603                 1.0583
 Frc consts  --      1.5897                 1.5171                 5.7476
 IR Inten    --      0.5163                 1.7589               132.5678

                     16                     17                     18
                     A1                     B2                     A1
 Frequencies --   3037.2718              3144.2269              3147.0132
 Red. masses --      1.0552                 1.1234                 1.1277
 Frc consts  --      5.7351                 6.5435                 6.5802
 IR Inten    --     42.4064                46.4177               158.6698

 - Thermochemistry -
 -------------------
 Temperature   298.150 Kelvin.  Pressure   1.00000 Atm.
 Atom     1 has atomic number  6 and mass  12.00000

 Molecular mass:    52.03130 amu.
 Principal axes and moments of inertia in atomic units:
                           1         2         3
     Eigenvalues --   142.12851 185.29646 327.42497
           X            0.00000  -0.00000   1.00000
           Y            1.00000   0.00000  -0.00000
           Z           -0.00000   1.00000   0.00000
 This molecule is an asymmetric top.
 Rotational symmetry number  2.
 Rotational temperatures (Kelvin)      0.60940     0.46743     0.26453
 Rotational constants (GHZ):          12.69795     9.73975     5.51192
 Zero-point vibrational energy     150135.7 (Joules/Mol)
                                   35.88329 (Kcal/Mol)
 Warning -- explicit consideration of   5 degrees of freedom as
           vibrations may cause significant error
 Vibrational temperatures:    234.02   516.92   536.89   606.92   664.23
          (Kelvin)           1322.32  1373.73  1438.83  1687.98  1720.99
                             1889.59  2070.36  2118.45  2143.28  4368.18
                             4369.95  4523.84  4527.84

 Zero-point correction=                           0.057184 (Hartree/Particle)
 Thermal correction to Energy=                    0.062062
 Thermal correction to Enthalpy=                  0.063007
 Thermal correction to Gibbs Free Energy=         0.031215
 Sum of electronic and zero-point Energies=           -153.718424
 Sum of electronic and thermal Energies=              -153.713546
 Sum of electronic and thermal Enthalpies=            -153.712602
 Sum of electronic and thermal Free Energies=         -153.744393

                     E (Thermal)             CV                S
                      KCal/Mol        Cal/Mol-Kelvin    Cal/Mol-Kelvin
 Total                   38.945             15.798             66.912
 Electronic               0.000              0.000              0.000
 Translational            0.889              2.981             37.771
 Rotational               0.889              2.981             22.293
 Vibrational             37.167              9.836              6.848
 Vibration     1          0.623              1.888              2.519
 Vibration     2          0.734              1.556              1.125
 Vibration     3          0.745              1.527              1.067
 Vibration     4          0.784              1.423              0.886
 Vibration     5          0.819              1.335              0.761

 Optimization completed.
    -- Stationary point found.
 Normal termination of Gaussian 09 at Tue Jul 19 17:47:13 2016.
