 Gaussian 09, Revision E.01,
 Gaussian 09:  EM64L-G09RevE.01 30-Nov-2015

 ------------------------------------------------------
 #p b3lyp/6-311++G(3df,2p) freq IOp(2/17=3) IOp(2/18=3)
 ------------------------------------------------------

 ---------
 b3lyp opt
 ---------
 Symbolic Z-matrix:
 Charge =  1 Multiplicity = 4

                         Standard orientation:
 ---------------------------------------------------------------------
 Center     Atomic      Atomic             Coordinates (Angstroms)
 Number     Number       Type             X           Y           Z
 ---------------------------------------------------------------------
      1          6           0        0.502694    1.699070    0.000000
      2          1           0        0.728265    2.221939    0.933020
      3          1           0        0.728265    2.221939   -0.933020
      4          6           0        0.000000    0.533824    0.000000
      5          6           0       -0.579442   -0.754176    0.000000
      6          1           0       -1.286971   -0.769469   -0.858711
      7          1           0       -1.286971   -0.769469    0.858711
      8          6           0        0.262983   -1.962877    0.000000
 ---------------------------------------------------------------------

 SCF Done:  E(UB3LYP) =  -154.249413415     A.U. after   19 cycles

 The electronic state is 4-A".
 Alpha  occ. eigenvalues --  -10.51269 -10.47791 -10.46742 -10.44100  -1.09427
 Alpha  occ. eigenvalues --   -1.01743  -0.86554  -0.77439  -0.72497  -0.72424
 Alpha  occ. eigenvalues --   -0.67786  -0.61203  -0.54232  -0.45487  -0.44546
 Alpha virt. eigenvalues --   -0.35895  -0.24306  -0.17445  -0.13221  -0.12639
 Alpha virt. eigenvalues --   -0.10454  -0.10402  -0.08807  -0.08116  -0.06044
 Alpha virt. eigenvalues --   -0.04955  -0.04466  -0.03729  -0.02425  -0.01926

  Beta  occ. eigenvalues --  -10.50889 -10.47565 -10.44058 -10.42242  -1.07999
  Beta  occ. eigenvalues --   -1.00294  -0.80810  -0.74777  -0.71565  -0.71505
  Beta  occ. eigenvalues --   -0.67078  -0.55077
  Beta virt. eigenvalues --   -0.37212  -0.34468  -0.25978  -0.25004  -0.22562
  Beta virt. eigenvalues --   -0.17019  -0.13082  -0.12514  -0.10227  -0.09920
  Beta virt. eigenvalues --   -0.08422  -0.07678  -0.05099  -0.04542  -0.02827

 Mulliken charges and spin densities:
               1          2
     1  C   -0.227393  -0.037969
     2  H    0.251088   0.011932
     3  H    0.251088   0.011932
     4  C    0.575766   0.136330
     5  C   -0.267286   0.114070
     6  H    0.256705   0.014122
     7  H    0.256705   0.014122
     8  C   -0.096673   2.735460
 Sum of Mulliken charges =   1.00000   3.00000

 Dipole moment (field-independent basis, Debye):
    X=             -0.7340    Y=              1.9760    Z=              0.0000  Tot=              2.1080
 Quadrupole moment (field-independent basis, Debye-Ang):
   XX=            -19.2543   YY=             -9.8164   ZZ=            -18.8539
   XY=              4.7150   XZ=             -0.0000   YZ=             -0.0000

  Exact polarizability:  34.713   8.795  91.143   0.000  -0.000  30.562
 Approx polarizability:  50.511  14.948 147.289  -0.000  -0.000  44.403

                      1                      2                      3
                     A"                     A'                     A"
 Frequencies --     64.0387               206.9420               272.2975
 Red. masses --      1.1924                 5.0080                 1.3996
 Frc consts  --      0.0029                 0.1264                 0.0611
 IR Inten    --     18.8990                 1.1580                 1.1413

                      4                      5                      6
                     A"                     A'                     A"
 Frequencies --    524.2399               551.3275               834.6073
 Red. masses --      1.4991                 6.3089                 1.9534
 Frc consts  --      0.2427                 1.1298                 0.8017
 IR Inten    --      0.0599                29.9380                13.5939

                      7                      8                      9
                     A'                     A'                     A'
 Frequencies --    871.3886               878.9848              1027.1408
 Red. masses --      3.4333                 1.4127                 2.3318
 Frc consts  --      1.5360                 0.6431                 1.4494
 IR Inten    --     18.7525                52.4007               182.9367

                     10                     11                     12
                     A"                     A'                     A'
 Frequencies --   1104.2922              1154.6389              1216.8040
 Red. masses --      1.1880                 1.6756                 1.1623
 Frc consts  --      0.8535                 1.3162                 1.0139
 IR Inten    --      0.0684                 6.8827               101.7174

                     13                     14                     15
                     A'                     A'                     A'
 Frequencies --   1293.5613              1879.3218              2874.5706
 Red. masses --      1.1553                 9.0971                 1.0607
 Frc consts  --      1.1390                18.9303                 5.1641
 IR Inten    --     33.7820               115.2295               120.7844

                     16                     17                     18
                     A"                     A'                     A"
 Frequencies --   2879.4945              3049.7306              3111.0954
 Red. masses --      1.0844                 1.0628                 1.1095
 Frc consts  --      5.2975                 5.8238                 6.3273
 IR Inten    --     64.3727               204.4239                96.4718

 - Thermochemistry -
 -------------------
 Temperature   298.150 Kelvin.  Pressure   1.00000 Atm.
 Atom     1 has atomic number  6 and mass  12.00000

 Molecular mass:    52.03130 amu.
 Principal axes and moments of inertia in atomic units:
                           1         2         3
     Eigenvalues --    47.12874 384.48454 408.46575
           X            0.15667   0.98765   0.00000
           Y            0.98765  -0.15667   0.00000
           Z           -0.00000  -0.00000   1.00000
 This molecule is an asymmetric top.
 Rotational symmetry number  1.
 Rotational temperatures (Kelvin)      1.83781     0.22527     0.21205
 Rotational constants (GHZ):          38.29386     4.69392     4.41834
 Zero-point vibrational energy     142322.6 (Joules/Mol)
                                   34.01591 (Kcal/Mol)
 Warning -- explicit consideration of   5 degrees of freedom as
           vibrations may cause significant error
 Vibrational temperatures:     92.14   297.74   391.77   754.26   793.24
          (Kelvin)           1200.81  1253.73  1264.66  1477.82  1588.83
                             1661.27  1750.71  1861.14  2703.92  4135.86
                             4142.95  4387.88  4476.17

 Zero-point correction=                           0.054208 (Hartree/Particle)
 Thermal correction to Energy=                    0.059541
 Thermal correction to Enthalpy=                  0.060485
 Thermal correction to Gibbs Free Energy=         0.025364
 Sum of electronic and zero-point Energies=           -154.195206
 Sum of electronic and thermal Energies=              -154.189872
 Sum of electronic and thermal Enthalpies=            -154.188928
 Sum of electronic and thermal Free Energies=         -154.224050

                     E (Thermal)             CV                S
                      KCal/Mol        Cal/Mol-Kelvin    Cal/Mol-Kelvin
 Total                   37.363             16.712             73.920
 Electronic               0.000              0.000              2.755
 Translational            0.889              2.981             37.771
 Rotational               0.889              2.981             23.519
 Vibrational             35.585             10.750              9.876
 Vibration     1          0.597              1.971              4.329
 Vibration     2          0.641              1.830              2.070
 Vibration     3          0.675              1.724              1.582
 Vibration     4          0.879              1.196              0.600
 Vibration     5          0.907              1.137              0.541

 Optimization completed.
    -- Stationary point found.
 Normal termination of Gaussian 09 at Thu Jan 31 06:25:16 2019.
