 Gaussian 09, Revision E.01,
 Gaussian 09:  EM64L-G09RevE.01 30-Nov-2015

 ------------------------------------------------------
 #p b3lyp/6-311++G(3df,2p) freq IOp(2/17=3) IOp(2/18=3)
 ------------------------------------------------------

 ---------
 b3lyp opt
 ---------
 Symbolic Z-matrix:
 Charge =  2 Multiplicity = 3

                         Standard orientation:
 ---------------------------------------------------------------------
 Center     Atomic      Atomic             Coordinates (Angstroms)
 Number     Number       Type             X           Y           Z
 ---------------------------------------------------------------------
      1          6           0        1.267294   -0.000000    0.000000
      2          6           0       -0.000000    0.756502    0.000000
      3          1           0        1.883539   -0.000000   -0.928567
      4          1           0        1.883539   -0.000000    0.928567
      5          1           0       -1.883539   -0.000000    0.928567
      6          6           0       -0.000000   -0.756502    0.000000
      7          6           0       -1.267294    0.000000    0.000000
      8          1           0       -1.883539    0.000000   -0.928567
 ---------------------------------------------------------------------

 SCF Done:  E(UB3LYP) =  -153.714789669     A.U. after   11 cycles

 The electronic state is 3-B1U.
 Alpha  occ. eigenvalues --  -10.87263 -10.87233 -10.76335 -10.76333  -1.53802
 Alpha  occ. eigenvalues --   -1.28306  -1.10259  -1.08633  -1.03124  -0.98171
 Alpha  occ. eigenvalues --   -0.93952  -0.92949  -0.89600  -0.77669
 Alpha virt. eigenvalues --   -0.64102  -0.57150  -0.38186  -0.33850  -0.31759
 Alpha virt. eigenvalues --   -0.31480  -0.30872  -0.30700  -0.30078  -0.26929
 Alpha virt. eigenvalues --   -0.25173  -0.21988  -0.21184  -0.20755  -0.20481

  Beta  occ. eigenvalues --  -10.85460 -10.85445 -10.76433 -10.76431  -1.51286
  Beta  occ. eigenvalues --   -1.27803  -1.06659  -1.03770  -0.99766  -0.96536
  Beta  occ. eigenvalues --   -0.92352  -0.91415
  Beta virt. eigenvalues --   -0.72841  -0.66807  -0.56964  -0.52177  -0.37399
  Beta virt. eigenvalues --   -0.32519  -0.31035  -0.30849  -0.30321  -0.29864
  Beta virt. eigenvalues --   -0.29172  -0.25670  -0.24334  -0.21184  -0.20520

 Mulliken charges and spin densities:
               1          2
     1  C   -0.350044  -0.192632
     2  C    0.743335   0.990399
     3  H    0.303355   0.101116
     4  H    0.303355   0.101116
     5  H    0.303355   0.101116
     6  C    0.743335   0.990399
     7  C   -0.350044  -0.192632
     8  H    0.303355   0.101116
 Sum of Mulliken charges =   2.00000   2.00000

 Dipole moment (field-independent basis, Debye):
    X=              0.0000    Y=              0.0000    Z=             -0.0000  Tot=              0.0000
 Quadrupole moment (field-independent basis, Debye-Ang):
   XX=             -0.4557   YY=            -16.1740   ZZ=            -15.0491
   XY=             -0.0000   XZ=              0.0000   YZ=             -0.0000

  Exact polarizability:  46.630  -0.000  27.871  -0.000   0.000  24.028
 Approx polarizability:  73.449   0.000  68.610   0.000  -0.000  35.493

                      1                      2                      3
                     B1U                    B2U                    B1G
 Frequencies --    259.1585               390.0629               428.4696
 Red. masses --      2.5672                 4.6334                 9.4893
 Frc consts  --      0.1016                 0.4154                 1.0264
 IR Inten    --      7.7518                12.1726                 0.0000

                      4                      5                      6
                     AU                     B3G                    B2G
 Frequencies --    783.2817               817.2662               881.4519
 Red. masses --      1.0078                 1.2366                 1.2615
 Frc consts  --      0.3643                 0.4866                 0.5775
 IR Inten    --      0.0000                 0.0000                 0.0000

                      7                      8                      9
                     AG                     B1U                    B2U
 Frequencies --    917.0149               944.3410              1090.9809
 Red. masses --      6.7924                 1.4003                 1.2669
 Frc consts  --      3.3653                 0.7358                 0.8884
 IR Inten    --      0.0000                 5.5240               141.3984

                     10                     11                     12
                     B1G                    AG                     B3U
 Frequencies --   1100.0101              1124.4680              1182.7554
 Red. masses --      1.2904                 7.5474                 3.8678
 Frc consts  --      0.9200                 5.6226                 3.1879
 IR Inten    --      0.0000                 0.0000               107.7704

                     13                     14                     15
                     B3U                    AG                     B3U
 Frequencies --   1332.7967              1343.8382              2767.5455
 Red. masses --      1.2895                 1.0858                 1.0381
 Frc consts  --      1.3496                 1.1553                 4.6845
 IR Inten    --    127.9154                 0.0000               803.2537

                     16                     17                     18
                     AG                     B2G                    B1U
 Frequencies --   2840.3139              2843.4578              2876.1668
 Red. masses --      1.0521                 1.1052                 1.1189
 Frc consts  --      5.0009                 5.2646                 5.4534
 IR Inten    --      0.0000                 0.0000               335.2733

 - Thermochemistry -
 -------------------
 Temperature   298.150 Kelvin.  Pressure   1.00000 Atm.
 Atom     1 has atomic number  6 and mass  12.00000

 Molecular mass:    52.03130 amu.
 Principal axes and moments of inertia in atomic units:
                           1         2         3
     Eigenvalues --    61.46167 201.13188 237.76798
           X            1.00000  -0.00000   0.00000
           Y            0.00000   1.00000   0.00000
           Z            0.00000  -0.00000   1.00000
 This molecule is an asymmetric top.
 Rotational symmetry number  4.
 Rotational temperatures (Kelvin)      1.40923     0.43063     0.36428
 Rotational constants (GHZ):          29.36369     8.97292     7.59035
 Zero-point vibrational energy     143093.6 (Joules/Mol)
                                   34.20019 (Kcal/Mol)
 Warning -- explicit consideration of   3 degrees of freedom as
           vibrations may cause significant error
 Vibrational temperatures:    372.87   561.21   616.47  1126.97  1175.86
          (Kelvin)           1268.21  1319.38  1358.69  1569.68  1582.67
                             1617.86  1701.72  1917.59  1933.48  3981.88
                             4086.57  4091.10  4138.16

 Zero-point correction=                           0.054501 (Hartree/Particle)
 Thermal correction to Energy=                    0.058831
 Thermal correction to Enthalpy=                  0.059775
 Thermal correction to Gibbs Free Energy=         0.029168
 Sum of electronic and zero-point Energies=           -153.660288
 Sum of electronic and thermal Energies=              -153.655958
 Sum of electronic and thermal Enthalpies=            -153.655014
 Sum of electronic and thermal Free Energies=         -153.685622

                     E (Thermal)             CV                S
                      KCal/Mol        Cal/Mol-Kelvin    Cal/Mol-Kelvin
 Total                   36.917             14.662             64.419
 Electronic               0.000              0.000              2.183
 Translational            0.889              2.981             37.771
 Rotational               0.889              2.981             19.846
 Vibrational             35.140              8.700              4.618
 Vibration     1          0.668              1.747              1.667
 Vibration     2          0.758              1.491              1.000
 Vibration     3          0.790              1.408              0.864

 Optimization completed.
    -- Stationary point found.
 Normal termination of Gaussian 09 at Thu Jan 31 06:22:34 2019.
