 Gaussian 09, Revision E.01,
 Gaussian 09:  EM64L-G09RevE.01 30-Nov-2015

 ---------------------------------------------
 #p b3lyp/6-311++G(3df,2p) freq symmetry=Loose
 ---------------------------------------------

 ---------
 b3lyp opt
 ---------
 Symbolic Z-matrix:
 Charge =  3 Multiplicity = 2

                         Standard orientation:
 ---------------------------------------------------------------------
 Center     Atomic      Atomic             Coordinates (Angstroms)
 Number     Number       Type             X           Y           Z
 ---------------------------------------------------------------------
      1          6           0       -0.413635    0.060334    0.001788
      2          6           0       -1.707551   -0.112611    0.010912
      3          6           0        0.959767    0.320085    0.000311
      4          1           0       -2.117359   -0.835026   -0.817166
      5          1           0       -2.163304   -0.414689    1.039763
      6          1           0       -2.245948    0.904782   -0.292147
      7          1           0        1.367747    1.422645    0.008273
      8          6           0        2.021229   -0.447427   -0.002798
 ---------------------------------------------------------------------

 SCF Done:  E(UB3LYP) =  -152.886449635     A.U. after   20 cycles

 The electronic state is 2-A.
 Alpha  occ. eigenvalues --  -11.17011 -11.10856 -11.00827 -10.92505  -1.62427
 Alpha  occ. eigenvalues --   -1.54687  -1.41914  -1.24429  -1.21372  -1.17893
 Alpha  occ. eigenvalues --   -1.15836  -1.12592  -1.08982
 Alpha virt. eigenvalues --   -0.89906  -0.89496  -0.86023  -0.70609  -0.56902
 Alpha virt. eigenvalues --   -0.53118  -0.50240  -0.48702  -0.47807  -0.45993
 Alpha virt. eigenvalues --   -0.43529  -0.43261  -0.41275  -0.38701  -0.38272

  Beta  occ. eigenvalues --  -11.14369 -11.10916 -11.00715 -10.92513  -1.61538
  Beta  occ. eigenvalues --   -1.53828  -1.40769  -1.23788  -1.21407  -1.16246
  Beta  occ. eigenvalues --   -1.12961  -1.07399
  Beta virt. eigenvalues --   -0.94534  -0.87598  -0.85855  -0.85395  -0.68930
  Beta virt. eigenvalues --   -0.56850  -0.53114  -0.50265  -0.48388  -0.47937
  Beta virt. eigenvalues --   -0.45738  -0.43580  -0.43150  -0.41004  -0.38577

 Mulliken charges and spin densities:
               1          2
     1  C    0.652791  -0.034001
     2  C   -0.106335  -0.011705
     3  C    0.321245  -0.078339
     4  H    0.384794  -0.007073
     5  H    0.378687  -0.019893
     6  H    0.403321   0.004940
     7  H    0.341561  -0.006224
     8  C    0.623935   1.152295
 Sum of Mulliken charges =   3.00000   1.00000

 Dipole moment (field-independent basis, Debye):
    X=             -0.0779    Y=              0.2540    Z=             -0.1560  Tot=              0.3081
 Quadrupole moment (field-independent basis, Debye-Ang):
   XX=             31.7613   YY=             -9.1436   ZZ=            -15.4680
   XY=              0.1532   XZ=              0.3748   YZ=              0.0023

  Exact polarizability:  69.393  -0.497  27.466  -0.040  -0.019  22.576
 Approx polarizability: 148.153  -8.764  47.825  -0.425   0.186  32.298

                      1                      2                      3
                      A                      A                      A
 Frequencies --     34.2926               229.7352               309.9186
 Red. masses --      1.2576                 2.4670                 1.6175
 Frc consts  --      0.0009                 0.0767                 0.0915
 IR Inten    --      6.7757                25.5316                48.8749

                      4                      5                      6
                      A                      A                      A
 Frequencies --    336.2801               520.1988               632.7553
 Red. masses --      1.9541                 1.6529                 2.5570
 Frc consts  --      0.1302                 0.2635                 0.6032
 IR Inten    --     16.0380                 3.2611                27.5404

                      7                      8                      9
                      A                      A                      A
 Frequencies --    728.9093               815.1052               844.5572
 Red. masses --      2.1329                 1.2482                 3.1394
 Frc consts  --      0.6677                 0.4886                 1.3193
 IR Inten    --    143.0502                51.8553                27.1484

                     10                     11                     12
                      A                      A                      A
 Frequencies --    872.3508               950.9103              1093.8661
 Red. masses --      1.0836                 1.3192                 1.2698
 Frc consts  --      0.4859                 0.7028                 0.8952
 IR Inten    --     96.6133                 7.0713               289.4385

                     13                     14                     15
                      A                      A                      A
 Frequencies --   1570.0677              1771.2173              2201.8248
 Red. masses --      8.8833                11.2777                 1.0704
 Frc consts  --     12.9021                20.8456                 3.0575
 IR Inten    --     79.0687               992.3125               611.4067

                     16                     17                     18
                      A                      A                      A
 Frequencies --   2312.4098              2348.5701              2418.4662
 Red. masses --      1.0667                 1.0856                 1.0543
 Frc consts  --      3.3607                 3.5279                 3.6333
 IR Inten    --   1555.9227               532.0808              1103.4837

 - Thermochemistry -
 -------------------
 Temperature   298.150 Kelvin.  Pressure   1.00000 Atm.
 Atom     1 has atomic number  6 and mass  12.00000

 Molecular mass:    52.03130 amu.
 Principal axes and moments of inertia in atomic units:
                           1         2         3
     Eigenvalues --    33.35096 409.70039 429.83900
           X            0.99973   0.02329   0.00138
           Y           -0.02329   0.99973   0.00014
           Z           -0.00138  -0.00017   1.00000
 This molecule is an asymmetric top.
 Rotational symmetry number  1.
 Rotational temperatures (Kelvin)      2.59704     0.21141     0.20150
 Rotational constants (GHZ):          54.11362     4.40503     4.19864
 Zero-point vibrational energy     119575.3 (Joules/Mol)
                                   28.57919 (Kcal/Mol)
 Warning -- explicit consideration of   5 degrees of freedom as
           vibrations may cause significant error
 Vibrational temperatures:     49.34   330.54   445.90   483.83   748.45
          (Kelvin)            910.39  1048.74  1172.75  1215.13  1255.12
                             1368.15  1573.83  2258.97  2548.38  3167.93
                             3327.04  3379.06  3479.63

 Zero-point correction=                           0.045544 (Hartree/Particle)
 Thermal correction to Energy=                    0.051275
 Thermal correction to Enthalpy=                  0.052219
 Thermal correction to Gibbs Free Energy=         0.016836
 Sum of electronic and zero-point Energies=           -152.840906
 Sum of electronic and thermal Energies=              -152.835174
 Sum of electronic and thermal Enthalpies=            -152.834230
 Sum of electronic and thermal Free Energies=         -152.869614

                     E (Thermal)             CV                S
                      KCal/Mol        Cal/Mol-Kelvin    Cal/Mol-Kelvin
 Total                   32.176             18.507             74.472
 Electronic               0.000              0.000              1.377
 Translational            0.889              2.981             37.771
 Rotational               0.889              2.981             23.289
 Vibrational             30.398             12.545             12.034
 Vibration     1          0.594              1.983              5.564
 Vibration     2          0.652              1.796              1.881
 Vibration     3          0.699              1.655              1.363
 Vibration     4          0.717              1.603              1.230
 Vibration     5          0.875              1.205              0.610

 Normal termination of Gaussian 09 at Wed Jun 22 00:19:40 2016.
