 Gaussian 09, Revision E.01,
 Gaussian 09:  EM64L-G09RevE.01 30-Nov-2015

 ---------------------------------------------
 #p b3lyp/6-311++G(3df,2p) freq symmetry=Loose
 ---------------------------------------------

 ---------
 b3lyp opt
 ---------
 Symbolic Z-matrix:
 Charge =  0 Multiplicity = 1

                         Standard orientation:
 ---------------------------------------------------------------------
 Center     Atomic      Atomic             Coordinates (Angstroms)
 Number     Number       Type             X           Y           Z
 ---------------------------------------------------------------------
      1          6           0       -0.283636    0.572635   -0.000000
      2          1           0        1.744781    0.675721   -0.000000
      3          1           0       -1.259560    1.048864   -0.000000
      4          6           0        0.877904    1.358582   -0.000000
      5          6           0       -0.283636   -0.891272    0.628584
      6          6           0       -0.283636   -0.891272   -0.628584
      7          1           0       -0.323596   -1.308307    1.614668
      8          1           0       -0.323596   -1.308307   -1.614668
 ---------------------------------------------------------------------

 SCF Done:  E(RB3LYP) =  -154.648210676     A.U. after   11 cycles

 The electronic state is 1-A'.
 Alpha  occ. eigenvalues --  -10.23672 -10.23525 -10.21008 -10.17698  -0.90465
 Alpha  occ. eigenvalues --   -0.70983  -0.61076  -0.57308  -0.53591  -0.42043
 Alpha  occ. eigenvalues --   -0.40205  -0.33102  -0.31276  -0.20458
 Alpha virt. eigenvalues --   -0.08700  -0.03394  -0.00737   0.00846   0.01365
 Alpha virt. eigenvalues --    0.02468   0.05015   0.06927   0.07172   0.07619
 Alpha virt. eigenvalues --    0.08760   0.10448   0.10474   0.11289   0.11842

 Mulliken charges:
               1
     1  C    0.105074
     2  H    0.159919
     3  H    0.154491
     4  C   -0.798315
     5  C   -0.087812
     6  C   -0.087812
     7  H    0.277228
     8  H    0.277228
 Sum of Mulliken charges =  -0.00000

 Dipole moment (field-independent basis, Debye):
    X=             -1.4324    Y=             -4.0296    Z=             -0.0000  Tot=              4.2767
 Quadrupole moment (field-independent basis, Debye-Ang):
   XX=            -25.8040   YY=            -31.7584   ZZ=            -20.6701
   XY=             -3.0224   XZ=              0.0000   YZ=              0.0000

  Exact polarizability:  45.045   8.689  60.204  -0.000  -0.000  45.528
 Approx polarizability:  64.356  12.109  84.238  -0.000   0.000  75.105

                      1                      2                      3
                     A"                     A'                     A"
 Frequencies --    137.2410               471.6319               530.1417
 Red. masses --      3.6986                 2.8476                 2.7953
 Frc consts  --      0.0410                 0.3732                 0.4629
 IR Inten    --     17.0451                 2.1451                11.7719

                      4                      5                      6
                     A"                     A'                     A'
 Frequencies --    618.8855               663.2350               777.8292
 Red. masses --      1.5885                 1.2601                 6.1096
 Frc consts  --      0.3585                 0.3266                 2.1779
 IR Inten    --     10.4009                67.3975                92.2574

                      7                      8                      9
                     A"                     A'                     A"
 Frequencies --    788.7585               869.7596               940.6074
 Red. masses --      1.4640                 1.1080                 1.2269
 Frc consts  --      0.5366                 0.4938                 0.6396
 IR Inten    --      0.1870                 3.1092                37.3164

                     10                     11                     12
                     A"                     A'                     A'
 Frequencies --   1080.1708              1117.8174              1265.9901
 Red. masses --      1.1558                 1.4889                 3.3484
 Frc consts  --      0.7946                 1.0962                 3.1619
 IR Inten    --     21.3716                20.7163                40.2153

                     13                     14                     15
                     A'                     A'                     A'
 Frequencies --   1362.7452              1815.1615              2952.9938
 Red. masses --      1.0980                 4.7445                 1.0824
 Frc consts  --      1.2014                 9.2102                 5.5614
 IR Inten    --      4.2556                39.2549                50.2616

                     16                     17                     18
                     A'                     A"                     A'
 Frequencies --   3102.1329              3288.7238              3350.0289
 Red. masses --      1.0866                 1.0835                 1.1670
 Frc consts  --      6.1611                 6.9043                 7.7163
 IR Inten    --     27.0527                26.9550                13.3869

 - Thermochemistry -
 -------------------
 Temperature   298.150 Kelvin.  Pressure   1.00000 Atm.
 Atom     1 has atomic number  6 and mass  12.00000

 Molecular mass:    52.03130 amu.
 Principal axes and moments of inertia in atomic units:
                           1         2         3
     Eigenvalues --    82.18466 239.88602 262.96157
           X            0.41566  -0.00000   0.90952
           Y            0.90952  -0.00000  -0.41566
           Z            0.00000   1.00000   0.00000
 This molecule is an asymmetric top.
 Rotational symmetry number  1.
 Rotational temperatures (Kelvin)      1.05389     0.36106     0.32938
 Rotational constants (GHZ):          21.95959     7.52333     6.86314
 Zero-point vibrational energy     150333.8 (Joules/Mol)
                                   35.93065 (Kcal/Mol)
 Warning -- explicit consideration of   4 degrees of freedom as
           vibrations may cause significant error
 Vibrational temperatures:    197.46   678.57   762.75   890.44   954.25
          (Kelvin)           1119.12  1134.85  1251.39  1353.32  1554.12
                             1608.29  1821.48  1960.68  2611.61  4248.69
                             4463.27  4731.73  4819.94

 Zero-point correction=                           0.057259 (Hartree/Particle)
 Thermal correction to Energy=                    0.061831
 Thermal correction to Enthalpy=                  0.062775
 Thermal correction to Gibbs Free Energy=         0.031051
 Sum of electronic and zero-point Energies=           -154.590952
 Sum of electronic and thermal Energies=              -154.586380
 Sum of electronic and thermal Enthalpies=            -154.585436
 Sum of electronic and thermal Free Energies=         -154.617160

                     E (Thermal)             CV                S
                      KCal/Mol        Cal/Mol-Kelvin    Cal/Mol-Kelvin
 Total                   38.800             15.487             66.769
 Electronic               0.000              0.000              0.000
 Translational            0.889              2.981             37.771
 Rotational               0.889              2.981             23.165
 Vibrational             37.022              9.525              5.833
 Vibration     1          0.614              1.916              2.842
 Vibration     2          0.829              1.313              0.733
 Vibration     3          0.885              1.183              0.587
 Vibration     4          0.979              0.992              0.418

 Optimization completed.
    -- Stationary point found.
 Normal termination of Gaussian 09 at Tue Jul 19 19:31:56 2016.
