 Gaussian 09, Revision E.01,
 Gaussian 09:  EM64L-G09RevE.01 30-Nov-2015

 ------------------------------------------------------
 #p b3lyp/6-311++G(3df,2p) freq IOp(2/17=3) IOp(2/18=3)
 ------------------------------------------------------

 ---------
 b3lyp opt
 ---------
 Symbolic Z-matrix:
 Charge =  3 Multiplicity = 4

                         Standard orientation:
 ---------------------------------------------------------------------
 Center     Atomic      Atomic             Coordinates (Angstroms)
 Number     Number       Type             X           Y           Z
 ---------------------------------------------------------------------
      1          6           0        0.000000    1.743175    0.000000
      2          1           0       -0.741797    2.568829    0.000000
      3          1           0        1.085839    1.960011    0.000000
      4          6           0       -0.572963    0.332133    0.000000
      5          1           0       -1.338035    0.241576    0.874110
      6          1           0       -1.338035    0.241576   -0.874110
      7          6           0        0.184465   -0.854934    0.000000
      8          6           0        0.777185   -2.055706    0.000000
 ---------------------------------------------------------------------

 SCF Done:  E(UB3LYP) =  -152.858049614     A.U. after   17 cycles

 The electronic state is 4-A".
 Alpha  occ. eigenvalues --  -11.16152 -11.12105 -11.01296 -10.97402  -1.63947
 Alpha  occ. eigenvalues --   -1.54071  -1.39564  -1.25894  -1.19380  -1.19231
 Alpha  occ. eigenvalues --   -1.18097  -1.12199  -1.10130  -1.09658
 Alpha virt. eigenvalues --   -0.83796  -0.82325  -0.80303  -0.59652  -0.54980
 Alpha virt. eigenvalues --   -0.52270  -0.50108  -0.47888  -0.47004  -0.43633
 Alpha virt. eigenvalues --   -0.43445  -0.41853  -0.39067  -0.38287  -0.37497

  Beta  occ. eigenvalues --  -11.11912 -11.10678 -11.01171 -10.97280  -1.58213
  Beta  occ. eigenvalues --   -1.49818  -1.38239  -1.23799  -1.15996  -1.15726
  Beta  occ. eigenvalues --   -1.11220
  Beta virt. eigenvalues --   -0.95833  -0.95171  -0.92020  -0.82292  -0.71901
  Beta virt. eigenvalues --   -0.70850  -0.57151  -0.53713  -0.50942  -0.49439
  Beta virt. eigenvalues --   -0.47383  -0.45617  -0.43026  -0.42814  -0.41054

 Mulliken charges and spin densities:
               1          2
     1  C    0.058644   0.067562
     2  H    0.357594   0.001270
     3  H    0.334752   0.004041
     4  C   -0.131482   0.026513
     5  H    0.376793   0.068606
     6  H    0.376793   0.068606
     7  C    0.878219   0.910199
     8  C    0.748686   1.853203
 Sum of Mulliken charges =   3.00000   3.00000

 Dipole moment (field-independent basis, Debye):
    X=              0.1979    Y=             -0.7723    Z=              0.0000  Tot=              0.7973
 Quadrupole moment (field-independent basis, Debye-Ang):
   XX=             -6.5099   YY=             24.7919   ZZ=            -14.8625
   XY=             -8.8691   XZ=             -0.0000   YZ=              0.0000

  Exact polarizability:  30.507 -10.812  55.872  -0.000  -0.000  20.933
 Approx polarizability:  49.633 -23.289  89.286   0.000   0.000  31.335

                      1                      2                      3
                     A"                     A'                     A"
 Frequencies --    178.7976               220.7010               351.7208
 Red. masses --      1.1239                 4.1889                 2.2492
 Frc consts  --      0.0212                 0.1202                 0.1639
 IR Inten    --      1.1551                 2.6353                41.8180

                      4                      5                      6
                     A'                     A"                     A'
 Frequencies --    537.6751               640.0637               782.8701
 Red. masses --      5.4088                 2.2785                 4.2163
 Frc consts  --      0.9213                 0.5500                 1.5225
 IR Inten    --     16.7258                31.4686                35.9724

                      7                      8                      9
                     A'                     A'                     A'
 Frequencies --    877.8946               952.6968               987.9739
 Red. masses --      2.2614                 1.0986                 1.4236
 Frc consts  --      1.0269                 0.5875                 0.8187
 IR Inten    --    183.3863               157.4121                 8.2558

                     10                     11                     12
                     A"                     A'                     A"
 Frequencies --   1002.2597              1204.8069              1232.8622
 Red. masses --      1.0945                 1.6509                 1.3395
 Frc consts  --      0.6478                 1.4119                 1.1996
 IR Inten    --      0.3981               201.5630                 5.3495

                     13                     14                     15
                     A'                     A'                     A"
 Frequencies --   1412.2548              1736.5261              2343.5021
 Red. masses --      1.1000                11.5921                 1.0765
 Frc consts  --      1.2927                20.5955                 3.4833
 IR Inten    --     10.0000                 6.6805               426.9025

                     16                     17                     18
                     A'                     A'                     A'
 Frequencies --   2416.8121              2907.4600              3032.6355
 Red. masses --      1.0593                 1.0515                 1.1314
 Frc consts  --      3.6454                 5.2370                 6.1309
 IR Inten    --    735.8181               252.8409               192.5453

 - Thermochemistry -
 -------------------
 Temperature   298.150 Kelvin.  Pressure   1.00000 Atm.
 Atom     1 has atomic number  6 and mass  12.00000

 Molecular mass:    52.03130 amu.
 Principal axes and moments of inertia in atomic units:
                           1         2         3
     Eigenvalues --    45.09004 409.71742 443.80791
           X           -0.23747   0.97139   0.00000
           Y            0.97139   0.23747   0.00000
           Z           -0.00000   0.00000   1.00000
 This molecule is an asymmetric top.
 Rotational symmetry number  1.
 Rotational temperatures (Kelvin)      1.92091     0.21140     0.19516
 Rotational constants (GHZ):          40.02527     4.40484     4.06649
 Zero-point vibrational energy     136491.0 (Joules/Mol)
                                   32.62213 (Kcal/Mol)
 Warning -- explicit consideration of   4 degrees of freedom as
           vibrations may cause significant error
 Vibrational temperatures:    257.25   317.54   506.05   773.59   920.91
          (Kelvin)           1126.37  1263.09  1370.72  1421.47  1442.03
                             1733.45  1773.81  2031.92  2498.47  3371.77
                             3477.25  4183.18  4363.28

 Zero-point correction=                           0.051987 (Hartree/Particle)
 Thermal correction to Energy=                    0.056941
 Thermal correction to Enthalpy=                  0.057885
 Thermal correction to Gibbs Free Energy=         0.023993
 Sum of electronic and zero-point Energies=           -152.806063
 Sum of electronic and thermal Energies=              -152.801109
 Sum of electronic and thermal Enthalpies=            -152.800164
 Sum of electronic and thermal Free Energies=         -152.834056

                     E (Thermal)             CV                S
                      KCal/Mol        Cal/Mol-Kelvin    Cal/Mol-Kelvin
 Total                   35.731             16.259             71.331
 Electronic               0.000              0.000              2.755
 Translational            0.889              2.981             37.771
 Rotational               0.889              2.981             23.621
 Vibrational             33.954             10.298              7.185
 Vibration     1          0.629              1.868              2.341
 Vibration     2          0.647              1.810              1.953
 Vibration     3          0.728              1.572              1.158
 Vibration     4          0.893              1.167              0.570

 Optimization completed.
    -- Stationary point found.
 Normal termination of Gaussian 09 at Thu Jan 31 06:25:49 2019.
