 Gaussian 09, Revision E.01,
 Gaussian 09:  EM64L-G09RevE.01 30-Nov-2015

 ---------------------------------------------
 #p b3lyp/6-311++G(3df,2p) freq symmetry=Loose
 ---------------------------------------------

 ---------
 b3lyp opt
 ---------
 Symbolic Z-matrix:
 Charge =  1 Multiplicity = 2

                         Standard orientation:
 ---------------------------------------------------------------------
 Center     Atomic      Atomic             Coordinates (Angstroms)
 Number     Number       Type             X           Y           Z
 ---------------------------------------------------------------------
      1          6           0        1.637080   -0.259808   -0.125128
      2          1           0        2.370562   -1.039940   -0.191445
      3          6           0        0.655258    0.516808   -0.010695
      4          1           0        0.597504    1.590296   -0.140473
      5          6           0       -0.819490   -0.112791    0.466200
      6          1           0       -1.151706    0.465588    1.339057
      7          1           0       -0.724911   -1.178845    0.749185
      8          6           0       -1.654757   -0.117058   -0.623097
 ---------------------------------------------------------------------

 SCF Done:  E(UB3LYP) =  -154.296509905     A.U. after   21 cycles

 The electronic state is 2-A.
 Alpha  occ. eigenvalues --  -10.52865 -10.46915 -10.45752 -10.45379  -1.08702
 Alpha  occ. eigenvalues --   -1.01328  -0.82856  -0.79382  -0.74383  -0.69433
 Alpha  occ. eigenvalues --   -0.67388  -0.55989  -0.54099  -0.47171
 Alpha virt. eigenvalues --   -0.35341  -0.35095  -0.22809  -0.15861  -0.14240
 Alpha virt. eigenvalues --   -0.12981  -0.12205  -0.10825  -0.10008  -0.07858
 Alpha virt. eigenvalues --   -0.06574  -0.06391  -0.05718  -0.04111  -0.02704

  Beta  occ. eigenvalues --  -10.52146 -10.45967 -10.45691 -10.45440  -1.07728
  Beta  occ. eigenvalues --   -0.99509  -0.81549  -0.78360  -0.73881  -0.68603
  Beta  occ. eigenvalues --   -0.66468  -0.55205  -0.53113
  Beta virt. eigenvalues --   -0.35897  -0.34313  -0.29988  -0.22096  -0.15635
  Beta virt. eigenvalues --   -0.14062  -0.12712  -0.11940  -0.10635  -0.09791
  Beta virt. eigenvalues --   -0.07585  -0.06411  -0.06037  -0.05583  -0.03869

 Mulliken charges and spin densities:
               1          2
     1  C    0.154522   0.620161
     2  H    0.369135  -0.015372
     3  C   -0.155951  -0.083555
     4  H    0.242249   0.017294
     5  C    0.056951   0.016667
     6  H    0.228863   0.000311
     7  H    0.230055  -0.002997
     8  C   -0.125823   0.447491
 Sum of Mulliken charges =   1.00000   1.00000

 Dipole moment (field-independent basis, Debye):
    X=              1.0753    Y=             -0.5086    Z=              1.5740  Tot=              1.9730
 Quadrupole moment (field-independent basis, Debye-Ang):
   XX=            -12.3966   YY=            -16.3068   ZZ=            -22.2208
   XY=             -2.3713   XZ=             -3.7612   YZ=             -0.3193

  Exact polarizability:  85.381  -0.633  35.227   3.378   0.490  33.182
 Approx polarizability: 170.075  -9.932  55.859  12.514   0.816  50.466

                      1                      2                      3
                      A                      A                      A
 Frequencies --    110.6218               225.6774               301.7552
 Red. masses --      2.5829                 3.8950                 1.8905
 Frc consts  --      0.0186                 0.1169                 0.1014
 IR Inten    --      8.8683                16.8269                 0.5937

                      4                      5                      6
                      A                      A                      A
 Frequencies --    361.4939               509.1583               616.6214
 Red. masses --      1.7905                 6.7160                 1.6370
 Frc consts  --      0.1379                 1.0258                 0.3667
 IR Inten    --      2.8838                 5.7883                84.0670

                      7                      8                      9
                      A                      A                      A
 Frequencies --    731.2937               773.3294               902.9951
 Red. masses --      1.5668                 1.1379                 1.0931
 Frc consts  --      0.4937                 0.4009                 0.5252
 IR Inten    --     15.3037                84.8505                 7.9207

                     10                     11                     12
                      A                      A                      A
 Frequencies --    984.0129              1126.3655              1231.7927
 Red. masses --      1.2853                 1.0852                 1.2252
 Frc consts  --      0.7332                 0.8112                 1.0953
 IR Inten    --     42.5224                10.1406                15.1798

                     13                     14                     15
                      A                      A                      A
 Frequencies --   1364.3815              1746.7166              2938.0139
 Red. masses --      3.1866                 5.2554                 1.0634
 Frc consts  --      3.4950                 9.4471                 5.4084
 IR Inten    --     89.1072                24.5421                93.0878

                     16                     17                     18
                      A                      A                      A
 Frequencies --   3023.7361              3178.6519              3344.8147
 Red. masses --      1.0915                 1.0939                 1.1343
 Frc consts  --      5.8797                 6.5120                 7.4769
 IR Inten    --     83.6814                84.4379               238.7455

 - Thermochemistry -
 -------------------
 Temperature   298.150 Kelvin.  Pressure   1.00000 Atm.
 Atom     1 has atomic number  6 and mass  12.00000

 Molecular mass:    52.03130 amu.
 Principal axes and moments of inertia in atomic units:
                           1         2         3
     Eigenvalues --    68.96456 341.38333 343.24992
           X            0.99931  -0.03648   0.00678
           Y            0.01566   0.58023   0.81430
           Z            0.03364   0.81364  -0.58040
 This molecule is an asymmetric top.
 Rotational symmetry number  1.
 Rotational temperatures (Kelvin)      1.25592     0.25371     0.25233
 Rotational constants (GHZ):          26.16911     5.28655     5.25781
 Zero-point vibrational energy     140390.3 (Joules/Mol)
                                   33.55410 (Kcal/Mol)
 Warning -- explicit consideration of   6 degrees of freedom as
           vibrations may cause significant error
 Vibrational temperatures:    159.16   324.70   434.16   520.11   732.56
          (Kelvin)            887.18  1052.17  1112.65  1299.21  1415.77
                             1620.59  1772.27  1963.04  2513.13  4227.14
                             4350.48  4573.37  4812.44

 Zero-point correction=                           0.053472 (Hartree/Particle)
 Thermal correction to Energy=                    0.059003
 Thermal correction to Enthalpy=                  0.059947
 Thermal correction to Gibbs Free Energy=         0.025566
 Sum of electronic and zero-point Energies=           -154.243038
 Sum of electronic and thermal Energies=              -154.237507
 Sum of electronic and thermal Enthalpies=            -154.236563
 Sum of electronic and thermal Free Energies=         -154.270944

                     E (Thermal)             CV                S
                      KCal/Mol        Cal/Mol-Kelvin    Cal/Mol-Kelvin
 Total                   37.025             18.104             72.362
 Electronic               0.000              0.000              1.377
 Translational            0.889              2.981             37.771
 Rotational               0.889              2.981             23.606
 Vibrational             35.247             12.142              9.608
 Vibration     1          0.606              1.941              3.258
 Vibration     2          0.650              1.802              1.913
 Vibration     3          0.694              1.670              1.407
 Vibration     4          0.736              1.552              1.116
 Vibration     5          0.864              1.230              0.636
 Vibration     6          0.976              0.997              0.422

 Optimization completed.
    -- Stationary point found.
 Normal termination of Gaussian 09 at Tue Jun 21 21:54:27 2016.
