 Gaussian 09, Revision E.01,
 Gaussian 09:  EM64L-G09RevE.01 30-Nov-2015

 ---------------------------------------------
 #p b3lyp/6-311++G(3df,2p) freq symmetry=Loose
 ---------------------------------------------

 ---------
 b3lyp opt
 ---------
 Symbolic Z-matrix:
 Charge =  0 Multiplicity = 1

                         Standard orientation:
 ---------------------------------------------------------------------
 Center     Atomic      Atomic             Coordinates (Angstroms)
 Number     Number       Type             X           Y           Z
 ---------------------------------------------------------------------
      1          6           0        0.000000   -0.000000    1.587133
      2          1           0       -0.000000   -0.925901    2.143499
      3          1           0        0.000000    0.925901    2.143499
      4          6           0        0.000000   -0.000000    0.260711
      5          6           0        0.000000   -0.656733   -1.016231
      6          1           0        0.000000   -1.567444   -1.589646
      7          6           0        0.000000    0.656733   -1.016231
      8          1           0        0.000000    1.567444   -1.589646
 ---------------------------------------------------------------------

 SCF Done:  E(RB3LYP) =  -154.758796709     A.U. after   10 cycles

 The electronic state is 1-A1.
 Alpha  occ. eigenvalues --  -10.21740 -10.21643 -10.20468 -10.13690  -0.91701
 Alpha  occ. eigenvalues --   -0.71400  -0.59488  -0.56946  -0.48017  -0.42591
 Alpha  occ. eigenvalues --   -0.39052  -0.38107  -0.31097  -0.21426
 Alpha virt. eigenvalues --   -0.03407  -0.00343   0.01080   0.01685   0.02699
 Alpha virt. eigenvalues --    0.03952   0.05352   0.06850   0.07672   0.09279
 Alpha virt. eigenvalues --    0.10081   0.10397   0.11196   0.11404   0.12506

 Mulliken charges:
               1
     1  C   -0.770381
     2  H    0.146229
     3  H    0.146229
     4  C    0.016233
     5  C   -0.010439
     6  H    0.241284
     7  C   -0.010439
     8  H    0.241284
 Sum of Mulliken charges =   0.00000

 Dipole moment (field-independent basis, Debye):
    X=              0.0000    Y=             -0.0000    Z=             -2.1358  Tot=              2.1358
 Quadrupole moment (field-independent basis, Debye-Ang):
   XX=            -26.8816   YY=            -20.6272   ZZ=            -23.2170
   XY=              0.0000   XZ=             -0.0000   YZ=             -0.0000

  Exact polarizability:  33.398  -0.000  44.039   0.000   0.000  67.616
 Approx polarizability:  46.905   0.000  70.441  -0.000  -0.000  97.496

                      1                      2                      3
                     B2                     B1                     B1
 Frequencies --    360.2921               429.2876               686.1714
 Red. masses --      2.2570                 2.5986                 1.5100
 Frc consts  --      0.1726                 0.2822                 0.4189
 IR Inten    --      3.2114                28.1192                28.8281

                      4                      5                      6
                     A2                     B1                     A1
 Frequencies --    709.4154               776.9205               842.6109
 Red. masses --      1.0927                 1.3093                 1.8426
 Frc consts  --      0.3240                 0.4656                 0.7708
 IR Inten    --      0.0000                80.2512                 0.5492

                      7                      8                      9
                     B2                     A2                     A1
 Frequencies --    851.5345               915.0093              1023.9800
 Red. masses --      1.9996                 1.4028                 1.6159
 Frc consts  --      0.8543                 0.6920                 0.9983
 IR Inten    --      5.8463                 0.0000                 6.7727

                     10                     11                     12
                     B2                     B2                     A1
 Frequencies --   1070.5315              1125.6550              1460.2628
 Red. masses --      1.5670                 2.2320                 1.1545
 Frc consts  --      1.0581                 1.6663                 1.4505
 IR Inten    --      7.5615                11.6327                 1.7584

                     13                     14                     15
                     A1                     A1                     A1
 Frequencies --   1600.3342              1817.0731              3143.5313
 Red. masses --      6.0844                 7.5917                 1.0557
 Frc consts  --      9.1810                14.7684                 6.1462
 IR Inten    --     28.1696               227.3805                 2.8525

                     16                     17                     18
                     B2                     B2                     A1
 Frequencies --   3225.0873              3233.0471              3272.5074
 Red. masses --      1.1158                 1.0872                 1.1397
 Frc consts  --      6.8378                 6.6952                 7.1910
 IR Inten    --      9.3529                 1.3049                 2.4679

 - Thermochemistry -
 -------------------
 Temperature   298.150 Kelvin.  Pressure   1.00000 Atm.
 Atom     1 has atomic number  6 and mass  12.00000

 Molecular mass:    52.03130 amu.
 Principal axes and moments of inertia in atomic units:
                           1         2         3
     Eigenvalues --    60.82006 250.54694 311.36700
           X            0.00000   0.00000   1.00000
           Y            0.00000   1.00000  -0.00000
           Z            1.00000   0.00000   0.00000
 This molecule is an asymmetric top.
 Rotational symmetry number  2.
 Rotational temperatures (Kelvin)      1.42410     0.34570     0.27817
 Rotational constants (GHZ):          29.67345     7.20321     5.79619
 Zero-point vibrational energy     158763.9 (Joules/Mol)
                                   37.94548 (Kcal/Mol)
 Warning -- explicit consideration of   2 degrees of freedom as
           vibrations may cause significant error
 Vibrational temperatures:    518.38   617.65   987.25  1020.69  1117.81
          (Kelvin)           1212.33  1225.17  1316.49  1473.28  1540.25
                             1619.56  2100.99  2302.52  2614.36  4522.83
                             4640.18  4651.63  4708.40

 Zero-point correction=                           0.060470 (Hartree/Particle)
 Thermal correction to Energy=                    0.064524
 Thermal correction to Enthalpy=                  0.065468
 Thermal correction to Gibbs Free Energy=         0.035531
 Sum of electronic and zero-point Energies=           -154.698327
 Sum of electronic and thermal Energies=              -154.694272
 Sum of electronic and thermal Enthalpies=            -154.693328
 Sum of electronic and thermal Free Energies=         -154.723266

                     E (Thermal)             CV                S
                      KCal/Mol        Cal/Mol-Kelvin    Cal/Mol-Kelvin
 Total                   40.490             13.991             63.009
 Electronic               0.000              0.000              0.000
 Translational            0.889              2.981             37.771
 Rotational               0.889              2.981             21.700
 Vibrational             38.712              8.029              3.539
 Vibration     1          0.735              1.554              1.121
 Vibration     2          0.791              1.406              0.861

 Optimization completed.
    -- Stationary point found.
 Normal termination of Gaussian 09 at Tue Jul 19 19:24:59 2016.
