 Gaussian 09, Revision E.01,
 Gaussian 09:  EM64L-G09RevE.01 30-Nov-2015

 ---------------------------------------------
 #p b3lyp/6-311++G(3df,2p) freq symmetry=Loose
 ---------------------------------------------

 ---------
 b3lyp opt
 ---------
 Symbolic Z-matrix:
 Charge =  0 Multiplicity = 3

                         Standard orientation:
 ---------------------------------------------------------------------
 Center     Atomic      Atomic             Coordinates (Angstroms)
 Number     Number       Type             X           Y           Z
 ---------------------------------------------------------------------
      1          6           0       -1.779695   -0.186349    0.000211
      2          1           0       -2.334081   -0.337193   -0.922652
      3          1           0       -2.333614   -0.337823    0.923262
      4          6           0       -0.529256    0.156385    0.000033
      5          6           0        0.772813    0.503310   -0.000108
      6          1           0        1.003176    1.568244    0.000275
      7          1           0        1.938777   -1.452071   -0.000123
      8          6           0        1.823762   -0.380205   -0.000264
 ---------------------------------------------------------------------

 SCF Done:  E(UB3LYP) =  -154.697307183     A.U. after   15 cycles

 The electronic state is 3-A.
 Alpha  occ. eigenvalues --  -10.21184 -10.20610 -10.20256 -10.18593  -0.82845
 Alpha  occ. eigenvalues --   -0.75549  -0.64159  -0.54157  -0.48287  -0.45978
 Alpha  occ. eigenvalues --   -0.45692  -0.33716  -0.29367  -0.26302  -0.20252
 Alpha virt. eigenvalues --   -0.01244  -0.00226   0.01291   0.01578   0.02063
 Alpha virt. eigenvalues --    0.03279   0.05982   0.07452   0.07608   0.08039
 Alpha virt. eigenvalues --    0.10833   0.11034   0.11285   0.11909   0.12586

  Beta  occ. eigenvalues --  -10.20580 -10.19649 -10.18746 -10.18693  -0.81068
  Beta  occ. eigenvalues --   -0.74109  -0.60162  -0.52769  -0.47287  -0.44686
  Beta  occ. eigenvalues --   -0.44274  -0.30721  -0.28492
  Beta virt. eigenvalues --   -0.09153  -0.07838  -0.00822   0.00139   0.01826
  Beta virt. eigenvalues --    0.02339   0.02762   0.03822   0.06408   0.07428
  Beta virt. eigenvalues --    0.08289   0.08784   0.11105   0.11354   0.12059

 Mulliken charges and spin densities:
               1          2
     1  C   -0.593806  -0.087258
     2  H    0.162928   0.043638
     3  H    0.162918   0.043641
     4  C    0.383454   0.549002
     5  C   -0.050964  -0.261875
     6  H    0.139795   0.036942
     7  H    0.199143   0.010838
     8  C   -0.403469   1.665071
 Sum of Mulliken charges =  -0.00000   2.00000

 Dipole moment (field-independent basis, Debye):
    X=             -0.7383    Y=             -0.1709    Z=              0.0006  Tot=              0.7579
 Quadrupole moment (field-independent basis, Debye-Ang):
   XX=            -24.0989   YY=            -23.2941   ZZ=            -25.5524
   XY=              0.2514   XZ=              0.0008   YZ=             -0.0003

  Exact polarizability:  85.540   0.209  42.095  -0.007   0.000  35.947
 Approx polarizability: 124.663   2.264  59.407  -0.011  -0.000  49.206

                      1                      2                      3
                      A                      A                      A
 Frequencies --    206.0385               209.8163               471.6446
 Red. masses --      3.2472                 2.6906                 1.0398
 Frc consts  --      0.0812                 0.0698                 0.1363
 IR Inten    --      0.3293                 4.2149                15.3684

                      4                      5                      6
                      A                      A                      A
 Frequencies --    538.9147               586.3655               870.7024
 Red. masses --      3.0085                 1.8295                 1.2006
 Frc consts  --      0.5148                 0.3706                 0.5363
 IR Inten    --     15.7050                10.1564                29.9326

                      7                      8                      9
                      A                      A                      A
 Frequencies --    872.6240               895.4062               984.0916
 Red. masses --      1.7071                 1.3181                 1.3974
 Frc consts  --      0.7659                 0.6227                 0.7973
 IR Inten    --      9.9947                47.3484                 0.4334

                     10                     11                     12
                      A                      A                      A
 Frequencies --   1011.2308              1193.7014              1347.8289
 Red. masses --      2.8841                 2.1048                 1.8285
 Frc consts  --      1.7376                 1.7670                 1.9571
 IR Inten    --      4.7199                 5.1266                 5.2186

                     13                     14                     15
                      A                      A                      A
 Frequencies --   1448.9428              1896.3670              3071.5311
 Red. masses --      1.2227                10.1102                 1.0554
 Frc consts  --      1.5125                21.4217                 5.8663
 IR Inten    --      1.9138                21.4515                11.4925

                     16                     17                     18
                      A                      A                      A
 Frequencies --   3080.4173              3130.0258              3233.7329
 Red. masses --      1.0823                 1.1133                 1.0929
 Frc consts  --      6.0506                 6.4262                 6.7334
 IR Inten    --      0.8919                 3.7514                 0.2904

 - Thermochemistry -
 -------------------
 Temperature   298.150 Kelvin.  Pressure   1.00000 Atm.
 Atom     1 has atomic number  6 and mass  12.00000

 Molecular mass:    52.03130 amu.
 Principal axes and moments of inertia in atomic units:
                           1         2         3
     Eigenvalues --    42.95198 378.14978 408.83850
           X            0.99999   0.00372   0.00012
           Y           -0.00372   0.99999   0.00001
           Z           -0.00012  -0.00001   1.00000
 This molecule is an asymmetric top.
 Rotational symmetry number  1.
 Rotational temperatures (Kelvin)      2.01653     0.22905     0.21185
 Rotational constants (GHZ):          42.01765     4.77256     4.41431
 Zero-point vibrational energy     149828.6 (Joules/Mol)
                                   35.80989 (Kcal/Mol)
 Warning -- explicit consideration of   5 degrees of freedom as
           vibrations may cause significant error
 Vibrational temperatures:    296.44   301.88   678.59   775.38   843.65
          (Kelvin)           1252.75  1255.51  1288.29  1415.89  1454.93
                             1717.47  1939.22  2084.70  2728.45  4419.24
                             4432.03  4503.40  4652.61

 Zero-point correction=                           0.057067 (Hartree/Particle)
 Thermal correction to Energy=                    0.061889
 Thermal correction to Enthalpy=                  0.062834
 Thermal correction to Gibbs Free Energy=         0.029580
 Sum of electronic and zero-point Energies=           -154.640240
 Sum of electronic and thermal Energies=              -154.635418
 Sum of electronic and thermal Enthalpies=            -154.634474
 Sum of electronic and thermal Free Energies=         -154.667727

                     E (Thermal)             CV                S
                      KCal/Mol        Cal/Mol-Kelvin    Cal/Mol-Kelvin
 Total                   38.836             15.946             69.988
 Electronic               0.000              0.000              2.183
 Translational            0.889              2.981             37.771
 Rotational               0.889              2.981             23.411
 Vibrational             37.059              9.984              6.624
 Vibration     1          0.641              1.831              2.078
 Vibration     2          0.642              1.826              2.045
 Vibration     3          0.829              1.313              0.733
 Vibration     4          0.894              1.164              0.568
 Vibration     5          0.943              1.061              0.474

 Optimization completed.
    -- Stationary point found.
 Normal termination of Gaussian 09 at Tue Jun 21 21:41:12 2016.
