 Gaussian 09, Revision E.01,
 Gaussian 09:  EM64L-G09RevE.01 30-Nov-2015

 ---------------------------------------------
 #p b3lyp/6-311++G(3df,2p) freq symmetry=Loose
 ---------------------------------------------

 ---------
 b3lyp opt
 ---------
 Symbolic Z-matrix:
 Charge =  0 Multiplicity = 3

                         Standard orientation:
 ---------------------------------------------------------------------
 Center     Atomic      Atomic             Coordinates (Angstroms)
 Number     Number       Type             X           Y           Z
 ---------------------------------------------------------------------
      1          6           0       -0.321237    0.660676    0.000000
      2          1           0       -1.410077    0.664758    0.000000
      3          6           0        0.321237   -0.660676    0.000000
      4          1           0        1.410077   -0.664758    0.000000
      5          6           0        0.321237    1.804944    0.000000
      6          6           0       -0.321237   -1.804944    0.000000
      7          1           0       -1.336132   -2.168454    0.000000
      8          1           0        1.336132    2.168454    0.000000
 ---------------------------------------------------------------------

 SCF Done:  E(UB3LYP) =  -154.671020722     A.U. after   12 cycles

 The electronic state is 3-BU.
 Alpha  occ. eigenvalues --  -10.20624 -10.20622 -10.19821 -10.19791  -0.82904
 Alpha  occ. eigenvalues --   -0.75258  -0.60469  -0.57429  -0.48456  -0.47650
 Alpha  occ. eigenvalues --   -0.41147  -0.34887  -0.27560  -0.26331  -0.23532
 Alpha virt. eigenvalues --   -0.04891  -0.00028   0.00485   0.01876   0.02743
 Alpha virt. eigenvalues --    0.03377   0.05843   0.07374   0.08846   0.08928
 Alpha virt. eigenvalues --    0.09455   0.10446   0.11507   0.12020   0.13007

  Beta  occ. eigenvalues --  -10.19772 -10.19743 -10.19083 -10.19082  -0.81479
  Beta  occ. eigenvalues --   -0.72638  -0.57343  -0.56166  -0.46619  -0.46181
  Beta  occ. eigenvalues --   -0.39748  -0.34519  -0.24863
  Beta virt. eigenvalues --   -0.10837  -0.08028  -0.03249   0.00082   0.00664
  Beta virt. eigenvalues --    0.02232   0.02822   0.03439   0.06024   0.08517
  Beta virt. eigenvalues --    0.09080   0.09518   0.09540   0.11121   0.11814

 Mulliken charges and spin densities:
               1          2
     1  C    0.034398  -0.077664
     2  H    0.138640   0.042380
     3  C    0.034398  -0.077664
     4  H    0.138640   0.042380
     5  C   -0.367605   1.007804
     6  C   -0.367605   1.007804
     7  H    0.194567   0.027480
     8  H    0.194567   0.027480
 Sum of Mulliken charges =  -0.00000   2.00000

 Dipole moment (field-independent basis, Debye):
    X=              0.0000    Y=              0.0000    Z=              0.0000  Tot=              0.0000
 Quadrupole moment (field-independent basis, Debye-Ang):
   XX=            -20.7412   YY=            -26.4832   ZZ=            -27.5298
   XY=              2.9486   XZ=              0.0000   YZ=              0.0000

  Exact polarizability:  46.664  11.743  77.961  -0.000   0.000  35.312
 Approx polarizability:  67.742  25.376 119.373  -0.000  -0.000  48.609

                      1                      2                      3
                     AU                     BU                     AG
 Frequencies --    151.1244               279.2849               459.4937
 Red. masses --      2.7934                 2.4031                 2.1789
 Frc consts  --      0.0376                 0.1104                 0.2710
 IR Inten    --      0.0135                 1.6235                 0.0000

                      4                      5                      6
                     AU                     BG                     BU
 Frequencies --    602.1392               714.0806               827.6540
 Red. masses --      1.3781                 1.5527                 1.3259
 Frc consts  --      0.2944                 0.4665                 0.5351
 IR Inten    --     35.6720                 0.0000                73.5259

                      7                      8                      9
                     AG                     AU                     BG
 Frequencies --    828.2574               868.7708               908.0059
 Red. masses --      1.8745                 1.0944                 1.4657
 Frc consts  --      0.7576                 0.4867                 0.7120
 IR Inten    --      0.0000               117.9968                 0.0000

                     10                     11                     12
                     AG                     BU                     AG
 Frequencies --   1083.4407              1236.8949              1279.5891
 Red. masses --      4.6885                 1.1564                 1.1356
 Frc consts  --      3.2426                 1.0424                 1.0955
 IR Inten    --      0.0000                 2.6964                 0.0000

                     13                     14                     15
                     BU                     AG                     AG
 Frequencies --   1617.8880              1656.5361              3085.8157
 Red. masses --      7.5815                 6.4264                 1.0836
 Frc consts  --     11.6923                10.3901                 6.0791
 IR Inten    --      6.6707                 0.0000                 0.0000

                     16                     17                     18
                     BU                     AG                     BU
 Frequencies --   3092.4505              3236.3369              3237.0872
 Red. masses --      1.0856                 1.1017                 1.1030
 Frc consts  --      6.1170                 6.7986                 6.8097
 IR Inten    --      8.9939                 0.0000                 1.2180

 - Thermochemistry -
 -------------------
 Temperature   298.150 Kelvin.  Pressure   1.00000 Atm.
 Atom     1 has atomic number  6 and mass  12.00000

 Molecular mass:    52.03130 amu.
 Principal axes and moments of inertia in atomic units:
                           1         2         3
     Eigenvalues --    38.25441 360.24691 398.50132
           X            0.14313   0.98970   0.00000
           Y            0.98970  -0.14313   0.00000
           Z            0.00000  -0.00000   1.00000
 This molecule is an asymmetric top.
 Rotational symmetry number  2.
 Rotational temperatures (Kelvin)      2.26415     0.24043     0.21735
 Rotational constants (GHZ):          47.17733     5.00973     4.52882
 Zero-point vibrational energy     150519.2 (Joules/Mol)
                                   35.97496 (Kcal/Mol)
 Warning -- explicit consideration of   4 degrees of freedom as
           vibrations may cause significant error
 Vibrational temperatures:    217.43   401.83   661.11   866.34  1027.40
          (Kelvin)           1190.81  1191.68  1249.97  1306.42  1558.83
                             1779.61  1841.04  2327.78  2383.38  4439.80
                             4449.34  4656.36  4657.44

 Zero-point correction=                           0.057330 (Hartree/Particle)
 Thermal correction to Energy=                    0.062085
 Thermal correction to Enthalpy=                  0.063030
 Thermal correction to Gibbs Free Energy=         0.030574
 Sum of electronic and zero-point Energies=           -154.613691
 Sum of electronic and thermal Energies=              -154.608935
 Sum of electronic and thermal Enthalpies=            -154.607991
 Sum of electronic and thermal Free Energies=         -154.640446

                     E (Thermal)             CV                S
                      KCal/Mol        Cal/Mol-Kelvin    Cal/Mol-Kelvin
 Total                   38.959             15.717             68.308
 Electronic               0.000              0.000              2.183
 Translational            0.889              2.981             37.771
 Rotational               0.889              2.981             21.845
 Vibrational             37.182              9.755              6.509
 Vibration     1          0.619              1.901              2.658
 Vibration     2          0.680              1.712              1.538
 Vibration     3          0.817              1.340              0.768
 Vibration     4          0.960              1.027              0.446

 Optimization completed.
    -- Stationary point found.
 Normal termination of Gaussian 09 at Tue Jun 21 21:48:17 2016.
