 Gaussian 09, Revision E.01,
 Gaussian 09:  EM64L-G09RevE.01 30-Nov-2015

 ---------------------------------------------
 #p b3lyp/6-311++G(3df,2p) freq symmetry=Loose
 ---------------------------------------------

 ---------
 b3lyp opt
 ---------
 Symbolic Z-matrix:
 Charge =  3 Multiplicity = 4

                         Standard orientation:
 ---------------------------------------------------------------------
 Center     Atomic      Atomic             Coordinates (Angstroms)
 Number     Number       Type             X           Y           Z
 ---------------------------------------------------------------------
      1          6           0       -1.255465   -0.022267    0.044128
      2          6           0       -0.000376   -0.720462   -0.256079
      3          1           0       -2.149676    0.548145   -0.523802
      4          1           0       -2.005563   -0.650615    0.746038
      5          1           0        2.005105   -0.650717    0.746448
      6          6           0        0.000548    0.799520    0.093716
      7          6           0        1.255312   -0.022260    0.044243
      8          1           0        2.150019    0.545999   -0.524737
 ---------------------------------------------------------------------

 SCF Done:  E(UB3LYP) =  -152.746603562     A.U. after   16 cycles

 The electronic state is 4-A.
 Alpha  occ. eigenvalues --  -11.14772 -11.13674 -11.07105 -11.07096  -1.79204
 Alpha  occ. eigenvalues --   -1.54720  -1.37026  -1.36047  -1.26606  -1.25463
 Alpha  occ. eigenvalues --   -1.23510  -1.14068  -1.12795  -1.03243
 Alpha virt. eigenvalues --   -0.88565  -0.82766  -0.68312  -0.64656  -0.62413
 Alpha virt. eigenvalues --   -0.56196  -0.53467  -0.51212  -0.50133  -0.48330
 Alpha virt. eigenvalues --   -0.46315  -0.41796  -0.41419  -0.40835  -0.40519

  Beta  occ. eigenvalues --  -11.13348 -11.11538 -11.06493 -11.06484  -1.76561
  Beta  occ. eigenvalues --   -1.51729  -1.31997  -1.30358  -1.23324  -1.20341
  Beta  occ. eigenvalues --   -1.19711
  Beta virt. eigenvalues --   -1.00736  -0.96286  -0.89881  -0.83230  -0.75871
  Beta virt. eigenvalues --   -0.63921  -0.61662  -0.58838  -0.53768  -0.52178
  Beta virt. eigenvalues --   -0.48676  -0.47489  -0.45369  -0.45077  -0.40530

 Mulliken charges and spin densities:
               1          2
     1  C   -0.205141   0.275990
     2  C    0.930186   0.683830
     3  H    0.394138   0.180845
     4  H    0.383254   0.186622
     5  H    0.383248   0.186650
     6  C    0.925213   1.029428
     7  C   -0.204929   0.275628
     8  H    0.394030   0.181008
 Sum of Mulliken charges =   3.00000   3.00000

 Dipole moment (field-independent basis, Debye):
    X=             -0.0018    Y=             -0.2267    Z=              0.3785  Tot=              0.4413
 Quadrupole moment (field-independent basis, Debye-Ang):
   XX=             19.1556   YY=            -11.0683   ZZ=            -14.3442
   XY=             -0.0059   XZ=             -0.0020   YZ=             -1.9522

  Exact polarizability:  54.378  -0.001  27.656  -0.001  -1.019  22.107
 Approx polarizability:  94.940   0.023  62.904   0.003   3.701  34.866

                      1                      2                      3
                      A                      A                      A
 Frequencies --    179.2710               467.2932               475.3200
 Red. masses --      2.6814                 5.0249                 1.4393
 Frc consts  --      0.0508                 0.6465                 0.1916
 IR Inten    --     49.3661                 4.4311                21.2927

                      4                      5                      6
                      A                      A                      A
 Frequencies --    573.7246               659.8899               664.7432
 Red. masses --      2.3496                 2.7694                 1.4567
 Frc consts  --      0.4557                 0.7105                 0.3793
 IR Inten    --     17.0106                 0.3375                57.7518

                      7                      8                      9
                      A                      A                      A
 Frequencies --    715.2791               734.7482               854.1235
 Red. masses --      1.3620                 1.6438                 1.3148
 Frc consts  --      0.4106                 0.5228                 0.5651
 IR Inten    --      0.2358                91.7326               261.5307

                     10                     11                     12
                      A                      A                      A
 Frequencies --    925.6375              1008.8500              1030.3881
 Red. masses --      1.3796                 1.0742                 1.4603
 Frc consts  --      0.6965                 0.6442                 0.9134
 IR Inten    --      0.0099               860.9637                15.5526

                     13                     14                     15
                      A                      A                      A
 Frequencies --   1063.7258              1213.7437              1835.6439
 Red. masses --      2.6056                 4.3236                 1.0714
 Frc consts  --      1.7371                 3.7528                 2.1270
 IR Inten    --      2.2375               109.2948              1245.4949

                     16                     17                     18
                      A                      A                      A
 Frequencies --   1873.1571              2178.5848              2212.4869
 Red. masses --      1.0857                 1.1117                 1.0644
 Frc consts  --      2.2444                 3.1088                 3.0699
 IR Inten    --     11.7305              1978.9701                 3.0295

 - Thermochemistry -
 -------------------
 Temperature   298.150 Kelvin.  Pressure   1.00000 Atm.
 Atom     1 has atomic number  6 and mass  12.00000

 Molecular mass:    52.03130 amu.
 Principal axes and moments of inertia in atomic units:
                           1         2         3
     Eigenvalues --    64.20498 205.96354 252.81350
           X            1.00000  -0.00011  -0.00002
           Y            0.00011   0.99304  -0.11778
           Z            0.00004   0.11778   0.99304
 This molecule is an asymmetric top.
 Rotational symmetry number  1.
 Rotational temperatures (Kelvin)      1.34902     0.42053     0.34260
 Rotational constants (GHZ):          28.10906     8.76243     7.13863
 Zero-point vibrational energy     111651.1 (Joules/Mol)
                                   26.68526 (Kcal/Mol)
 Warning -- explicit consideration of   4 degrees of freedom as
           vibrations may cause significant error
 Vibrational temperatures:    257.93   672.33   683.88   825.46   949.43
          (Kelvin)            956.42  1029.13  1057.14  1228.89  1331.78
                             1451.51  1482.50  1530.46  1746.30  2641.08
                             2695.05  3134.49  3183.27

 Zero-point correction=                           0.042526 (Hartree/Particle)
 Thermal correction to Energy=                    0.047312
 Thermal correction to Enthalpy=                  0.048256
 Thermal correction to Gibbs Free Energy=         0.015280
 Sum of electronic and zero-point Energies=           -152.704078
 Sum of electronic and thermal Energies=              -152.699291
 Sum of electronic and thermal Enthalpies=            -152.698347
 Sum of electronic and thermal Free Energies=         -152.731323

                     E (Thermal)             CV                S
                      KCal/Mol        Cal/Mol-Kelvin    Cal/Mol-Kelvin
 Total                   29.689             17.221             69.404
 Electronic               0.000              0.000              2.755
 Translational            0.889              2.981             37.771
 Rotational               0.889              2.981             22.729
 Vibrational             27.911             11.259              6.149
 Vibration     1          0.629              1.868              2.336
 Vibration     2          0.825              1.323              0.745
 Vibration     3          0.832              1.305              0.723
 Vibration     4          0.930              1.088              0.497

 Normal termination of Gaussian 09 at Wed Jun 22 00:45:18 2016.
