 Gaussian 09, Revision E.01,
 Gaussian 09:  EM64L-G09RevE.01 30-Nov-2015

 ---------------------------------------------
 #p b3lyp/6-311++G(3df,2p) freq symmetry=Loose
 ---------------------------------------------

 ---------
 b3lyp opt
 ---------
 Symbolic Z-matrix:
 Charge =  0 Multiplicity = 3

                         Standard orientation:
 ---------------------------------------------------------------------
 Center     Atomic      Atomic             Coordinates (Angstroms)
 Number     Number       Type             X           Y           Z
 ---------------------------------------------------------------------
      1          6           0        0.000000   -0.000000    1.075491
      2          1           0       -0.000000    2.119808    0.203962
      3          6           0       -0.000000    1.044784    0.171919
      4          1           0       -0.000000   -2.119808    0.203962
      5          6           0       -0.000000   -1.044784    0.171919
      6          6           0       -0.000000    0.000000   -0.960471
      7          1           0       -0.898819    0.000000   -1.580536
      8          1           0        0.898819   -0.000000   -1.580536
 ---------------------------------------------------------------------

 SCF Done:  E(UB3LYP) =  -154.683834111     A.U. after   12 cycles

 The electronic state is 3-A2.
 Alpha  occ. eigenvalues --  -10.20404 -10.20317 -10.19852 -10.19843  -0.89643
 Alpha  occ. eigenvalues --   -0.66526  -0.66133  -0.53572  -0.46175  -0.45087
 Alpha  occ. eigenvalues --   -0.41774  -0.37572  -0.30983  -0.24389  -0.20429
 Alpha virt. eigenvalues --   -0.00387   0.01087   0.01869   0.02028   0.02354
 Alpha virt. eigenvalues --    0.05284   0.07150   0.07307   0.08555   0.09309
 Alpha virt. eigenvalues --    0.09577   0.10430   0.12295   0.12706   0.13333

  Beta  occ. eigenvalues --  -10.20196 -10.19279 -10.18799 -10.18792  -0.87249
  Beta  occ. eigenvalues --   -0.64806  -0.63524  -0.52107  -0.44753  -0.41537
  Beta  occ. eigenvalues --   -0.40138  -0.36547  -0.28005
  Beta virt. eigenvalues --   -0.09788  -0.08535  -0.00330   0.01187   0.02293
  Beta virt. eigenvalues --    0.02406   0.05211   0.05899   0.07326   0.07379
  Beta virt. eigenvalues --    0.08686   0.09872   0.10278   0.10885   0.12586

 Mulliken charges and spin densities:
               1          2
     1  C    0.031391   0.692811
     2  H    0.212442  -0.026106
     3  C   -0.236489   0.680035
     4  H    0.212442  -0.026106
     5  C   -0.236489   0.680035
     6  C   -0.221273  -0.039276
     7  H    0.118989   0.019303
     8  H    0.118989   0.019303
 Sum of Mulliken charges =  -0.00000   2.00000

 Dipole moment (field-independent basis, Debye):
    X=              0.0000    Y=             -0.0000    Z=             -1.4479  Tot=              1.4479
 Quadrupole moment (field-independent basis, Debye-Ang):
   XX=            -25.8393   YY=            -21.4534   ZZ=            -25.7388
   XY=             -0.0000   XZ=             -0.0000   YZ=              0.0000

  Exact polarizability:  36.277  -0.000  54.381   0.000   0.000  49.271
 Approx polarizability:  51.222   0.000  85.936  -0.000  -0.000  72.692

                      1                      2                      3
                     B1                     B1                     A2
 Frequencies --    394.4906               537.4754               559.3368
 Red. masses --      2.3759                 1.2072                 1.2700
 Frc consts  --      0.2178                 0.2055                 0.2341
 IR Inten    --      6.8032                66.8675                 0.0000

                      4                      5                      6
                     B2                     A1                     A1
 Frequencies --    835.3086               870.2388               891.6736
 Red. masses --      3.6225                 6.4594                 1.9078
 Frc consts  --      1.4892                 2.8822                 0.8937
 IR Inten    --      2.1677                 4.4954                 6.0395

                      7                      8                      9
                     B1                     B2                     A2
 Frequencies --    917.8017              1060.2866              1084.9112
 Red. masses --      1.5620                 1.7133                 1.0710
 Frc consts  --      0.7752                 1.1348                 0.7427
 IR Inten    --      0.0001                20.8426                 0.0000

                     10                     11                     12
                     B2                     A1                     B2
 Frequencies --   1105.0537              1178.2433              1223.4380
 Red. masses --      1.8781                 2.0550                 1.7693
 Frc consts  --      1.3513                 1.6809                 1.5604
 IR Inten    --      1.1690                11.9323                 7.6059

                     13                     14                     15
                     A1                     A1                     A1
 Frequencies --   1388.7213              1474.9963              3016.3581
 Red. masses --      3.3405                 1.2129                 1.0523
 Frc consts  --      3.7957                 1.5548                 5.6412
 IR Inten    --      1.1743                 2.4068                33.4482

                     16                     17                     18
                     B1                     B2                     A1
 Frequencies --   3072.8925              3255.5005              3259.5989
 Red. masses --      1.1092                 1.0919                 1.1003
 Frc consts  --      6.1712                 6.8179                 6.8879
 IR Inten    --     12.6312                 0.3585                 0.6484

 - Thermochemistry -
 -------------------
 Temperature   298.150 Kelvin.  Pressure   1.00000 Atm.
 Atom     1 has atomic number  6 and mass  12.00000

 Molecular mass:    52.03130 amu.
 Principal axes and moments of inertia in atomic units:
                           1         2         3
     Eigenvalues --   115.21572 131.71401 235.29954
           X            0.00000  -0.00000   1.00000
           Y            1.00000   0.00000  -0.00000
           Z           -0.00000   1.00000   0.00000
 This molecule is an asymmetric top.
 Rotational symmetry number  2.
 Rotational temperatures (Kelvin)      0.75175     0.65759     0.36810
 Rotational constants (GHZ):          15.66402    13.70197     7.66997
 Zero-point vibrational energy     156270.1 (Joules/Mol)
                                   37.34946 (Kcal/Mol)
 Warning -- explicit consideration of   3 degrees of freedom as
           vibrations may cause significant error
 Vibrational temperatures:    567.58   773.31   804.76  1201.82  1252.08
          (Kelvin)           1282.92  1320.51  1525.51  1560.94  1589.92
                             1695.23  1760.25  1998.06  2122.19  4339.86
                             4421.20  4683.93  4689.83

 Zero-point correction=                           0.059520 (Hartree/Particle)
 Thermal correction to Energy=                    0.063411
 Thermal correction to Enthalpy=                  0.064355
 Thermal correction to Gibbs Free Energy=         0.033768
 Sum of electronic and zero-point Energies=           -154.624314
 Sum of electronic and thermal Energies=              -154.620423
 Sum of electronic and thermal Enthalpies=            -154.619479
 Sum of electronic and thermal Free Energies=         -154.650066

                     E (Thermal)             CV                S
                      KCal/Mol        Cal/Mol-Kelvin    Cal/Mol-Kelvin
 Total                   39.791             13.340             64.377
 Electronic               0.000              0.000              2.183
 Translational            0.889              2.981             37.771
 Rotational               0.889              2.981             21.417
 Vibrational             38.014              7.379              3.006
 Vibration     1          0.761              1.482              0.983
 Vibration     2          0.892              1.167              0.571
 Vibration     3          0.915              1.119              0.525

 Optimization completed.
    -- Stationary point found.
 Normal termination of Gaussian 09 at Tue Jul 19 20:07:24 2016.
