 Gaussian 09, Revision E.01,
 Gaussian 09:  EM64L-G09RevE.01 30-Nov-2015

 ---------------------------------------------
 #p b3lyp/6-311++G(3df,2p) freq symmetry=Loose
 ---------------------------------------------

 ---------
 b3lyp opt
 ---------
 Symbolic Z-matrix:
 Charge =  1 Multiplicity = 2

                         Standard orientation:
 ---------------------------------------------------------------------
 Center     Atomic      Atomic             Coordinates (Angstroms)
 Number     Number       Type             X           Y           Z
 ---------------------------------------------------------------------
      1          6           0        0.069919    1.854545   -0.000000
      2          1           0       -0.357204    2.295369    0.907328
      3          1           0       -0.357204    2.295369   -0.907328
      4          1           0        1.148342    2.103606    0.000000
      5          6           0       -0.000000    0.447916   -0.000000
      6          6           0       -0.038745   -0.823273    0.000000
      7          6           0       -0.083218   -2.071152    0.000000
      8          1           0       -0.121667   -3.142560    0.000000
 ---------------------------------------------------------------------

 SCF Done:  E(UB3LYP) =  -154.427574256     A.U. after   15 cycles

 The electronic state is 2-A".
 Alpha  occ. eigenvalues --  -10.51024 -10.49086 -10.44210 -10.41871  -1.07641
 Alpha  occ. eigenvalues --   -1.01152  -0.92678  -0.78122  -0.71774  -0.68022
 Alpha  occ. eigenvalues --   -0.66832  -0.59478  -0.57721  -0.46078
 Alpha virt. eigenvalues --   -0.37973  -0.16333  -0.16003  -0.14991  -0.13325
 Alpha virt. eigenvalues --   -0.11210  -0.10564  -0.10383  -0.07795  -0.06488
 Alpha virt. eigenvalues --   -0.06402  -0.05778  -0.05677  -0.03206  -0.02989

  Beta  occ. eigenvalues --  -10.50038 -10.48109 -10.44561 -10.41925  -1.06319
  Beta  occ. eigenvalues --   -1.00076  -0.91188  -0.77253  -0.71056  -0.66624
  Beta  occ. eigenvalues --   -0.66189  -0.57524  -0.56421
  Beta virt. eigenvalues --   -0.36588  -0.34080  -0.16249  -0.14769  -0.13688
  Beta virt. eigenvalues --   -0.12964  -0.11011  -0.10583  -0.10309  -0.07522
  Beta virt. eigenvalues --   -0.06331  -0.05631  -0.05505  -0.05153  -0.02939

 Mulliken charges and spin densities:
               1          2
     1  C   -0.357642  -0.032934
     2  H    0.216875   0.035681
     3  H    0.216875   0.035681
     4  H    0.221865  -0.004069
     5  C    0.110788   0.512802
     6  C   -0.157327  -0.085380
     7  C    0.363301   0.555018
     8  H    0.385266  -0.016800
 Sum of Mulliken charges =   1.00000   1.00000

 Dipole moment (field-independent basis, Debye):
    X=              0.1604    Y=             -0.5150    Z=             -0.0000  Tot=              0.5394
 Quadrupole moment (field-independent basis, Debye-Ang):
   XX=            -20.5333   YY=              3.3444   ZZ=            -21.9953
   XY=              1.3346   XZ=              0.0000   YZ=             -0.0000

  Exact polarizability:  27.149   2.809  82.586   0.000   0.000  28.570
 Approx polarizability:  38.880   6.481 159.003  -0.000   0.000  38.125

                      1                      2                      3
                     A"                     A'                     A"
 Frequencies --    138.2898               185.3165               255.0165
 Red. masses --      3.4060                 3.0547                 1.5810
 Frc consts  --      0.0384                 0.0618                 0.0606
 IR Inten    --      8.6828                12.8091                41.6188

                      4                      5                      6
                     A"                     A'                     A"
 Frequencies --    368.8559               453.0523               550.3040
 Red. masses --      3.0441                 2.7201                 1.3481
 Frc consts  --      0.2440                 0.3290                 0.2405
 IR Inten    --     17.2016                 1.3187                78.0571

                      7                      8                      9
                     A'                     A'                     A'
 Frequencies --    804.3393               871.6567               941.7532
 Red. masses --      4.0996                 1.3483                 1.8236
 Frc consts  --      1.5627                 0.6036                 0.9529
 IR Inten    --     12.1394                 8.5483                27.1714

                     10                     11                     12
                     A"                     A'                     A'
 Frequencies --   1286.0251              1326.7793              1425.3812
 Red. masses --      1.0355                 1.1399                 1.0945
 Frc consts  --      1.0091                 1.1822                 1.3101
 IR Inten    --     29.4432                60.6143                 7.5564

                     13                     14                     15
                     A'                     A'                     A'
 Frequencies --   1563.5686              1985.7310              2930.3587
 Red. masses --      7.6364                 8.9399                 1.0532
 Frc consts  --     10.9995                20.7694                 5.3285
 IR Inten    --     14.4496               644.0501               149.3499

                     16                     17                     18
                     A'                     A"                     A'
 Frequencies --   3007.9327              3046.7649              3357.7673
 Red. masses --      1.0694                 1.0949                 1.1310
 Frc consts  --      5.7007                 5.9882                 7.5131
 IR Inten    --     26.8518                33.3829               153.9921

 - Thermochemistry -
 -------------------
 Temperature   298.150 Kelvin.  Pressure   1.00000 Atm.
 Atom     1 has atomic number  6 and mass  12.00000

 Molecular mass:    52.03130 amu.
 Principal axes and moments of inertia in atomic units:
                           1         2         3
     Eigenvalues --    11.45792 463.67425 464.06779
           X            0.04069   0.00000   0.99917
           Y            0.99917   0.00000  -0.04069
           Z           -0.00000   1.00000   0.00000
 This molecule is an asymmetric top.
 Rotational symmetry number  1.
 Rotational temperatures (Kelvin)      7.55930     0.18680     0.18664
 Rotational constants (GHZ):         157.51038     3.89226     3.88896
 Zero-point vibrational energy     146535.9 (Joules/Mol)
                                   35.02293 (Kcal/Mol)
 Warning -- explicit consideration of   6 degrees of freedom as
           vibrations may cause significant error
 Vibrational temperatures:    198.97   266.63   366.91   530.70   651.84
          (Kelvin)            791.76  1157.26  1254.12  1354.97  1850.30
                             1908.94  2050.80  2249.62  2857.02  4216.13
                             4327.74  4383.61  4831.07

 Zero-point correction=                           0.055813 (Hartree/Particle)
 Thermal correction to Energy=                    0.061381
 Thermal correction to Enthalpy=                  0.062325
 Thermal correction to Gibbs Free Energy=         0.028426
 Sum of electronic and zero-point Energies=           -154.371762
 Sum of electronic and thermal Energies=              -154.366194
 Sum of electronic and thermal Enthalpies=            -154.365250
 Sum of electronic and thermal Free Energies=         -154.399148

                     E (Thermal)             CV                S
                      KCal/Mol        Cal/Mol-Kelvin    Cal/Mol-Kelvin
 Total                   38.517             17.610             71.345
 Electronic               0.000              0.000              1.377
 Translational            0.889              2.981             37.771
 Rotational               0.889              2.981             22.427
 Vibrational             36.739             11.648              9.770
 Vibration     1          0.614              1.915              2.827
 Vibration     2          0.631              1.860              2.274
 Vibration     3          0.665              1.754              1.696
 Vibration     4          0.741              1.536              1.085
 Vibration     5          0.812              1.354              0.787
 Vibration     6          0.906              1.139              0.544

 Optimization completed.
    -- Stationary point found.
 Normal termination of Gaussian 09 at Wed Jul 20 00:20:40 2016.
