 Gaussian 09, Revision E.01,
 Gaussian 09:  EM64L-G09RevE.01 30-Nov-2015

 ---------------------------------------------
 #p b3lyp/6-311++G(3df,2p) freq symmetry=Loose
 ---------------------------------------------

 ---------
 b3lyp opt
 ---------
 Symbolic Z-matrix:
 Charge =  2 Multiplicity = 1

                         Standard orientation:
 ---------------------------------------------------------------------
 Center     Atomic      Atomic             Coordinates (Angstroms)
 Number     Number       Type             X           Y           Z
 ---------------------------------------------------------------------
      1          6           0        0.000000   -0.000000    0.816835
      2          6           0       -0.000000    0.000000   -0.468869
      3          6           0       -0.000000    0.000000   -1.822325
      4          1           0        0.000000    1.051212   -2.219337
      5          1           0        0.910376   -0.525606   -2.219337
      6          1           0       -0.910376   -0.525606   -2.219337
      7          6           0        0.000000   -0.000000    2.058526
      8          1           0        0.000000   -0.000000    3.153004
 ---------------------------------------------------------------------

 SCF Done:  E(RB3LYP) =  -153.877136136     A.U. after   11 cycles

 The electronic state is 1-A1.
 Alpha  occ. eigenvalues --  -10.82870 -10.79478 -10.71073 -10.66778  -1.34741
 Alpha  occ. eigenvalues --   -1.27811  -1.18958  -1.02667  -0.96991  -0.91991
 Alpha  occ. eigenvalues --   -0.91991  -0.82986  -0.82986
 Alpha virt. eigenvalues --   -0.63695  -0.63695  -0.39916  -0.39916  -0.34714
 Alpha virt. eigenvalues --   -0.32300  -0.29305  -0.27218  -0.27218  -0.24767
 Alpha virt. eigenvalues --   -0.24687  -0.24687  -0.22364  -0.21168  -0.21168

 Mulliken charges:
               1
     1  C    0.166781
     2  C    0.128948
     3  C   -0.156675
     4  H    0.296942
     5  H    0.296942
     6  H    0.296942
     7  C    0.519626
     8  H    0.450493
 Sum of Mulliken charges =   2.00000

 Dipole moment (field-independent basis, Debye):
    X=             -0.0000    Y=             -0.0000    Z=              0.8178  Tot=              0.8178
 Quadrupole moment (field-independent basis, Debye-Ang):
   XX=            -17.7872   YY=            -17.7872   ZZ=             23.7189
   XY=             -0.0000   XZ=              0.0000   YZ=              0.0000

  Exact polarizability:  23.404   0.000  23.404  -0.000   0.000  84.342
 Approx polarizability:  33.585   0.000  33.585   0.000  -0.000 212.829

                      1                      2                      3
                      E                      E                      E
 Frequencies --    177.8546               177.8576               423.1938
 Red. masses --      3.0455                 3.0455                 2.2105
 Frc consts  --      0.0568                 0.0568                 0.2332
 IR Inten    --     27.5043                27.5046                 0.1048

                      4                      5                      6
                      E                      E                      E
 Frequencies --    423.1984               840.7773               840.7827
 Red. masses --      2.2105                 1.9739                 1.9739
 Frc consts  --      0.2333                 0.8221                 0.8221
 IR Inten    --      0.1048                65.6648                65.6689

                      7                      8                      9
                     ?A                     ?A                     ?A
 Frequencies --    851.2233               851.2280               851.2285
 Red. masses --      3.5724                 1.4066                 1.4021
 Frc consts  --      1.5251                 0.6005                 0.5986
 IR Inten    --      7.5329                 3.9797                 3.9563

                     10                     11                     12
                      E                      E                     A1
 Frequencies --   1163.9795              1163.9806              1249.7828
 Red. masses --      1.0472                 1.0472                 1.2564
 Frc consts  --      0.8359                 0.8359                 1.1563
 IR Inten    --     37.2016                37.2002               175.9765

                     13                     14                     15
                     A1                     A1                     A1
 Frequencies --   1643.9258              2207.1504              2760.3016
 Red. masses --      8.1992                 6.5569                 1.0381
 Frc consts  --     13.0552                18.8197                 4.6602
 IR Inten    --     86.4029              2155.7609               805.8768

                     16                     17                     18
                      E                      E                     A1
 Frequencies --   2779.9724              2779.9724              3169.3643
 Red. masses --      1.0905                 1.0905                 1.1834
 Frc consts  --      4.9656                 4.9656                 7.0039
 IR Inten    --    231.9308               231.9220               194.0447

 - Thermochemistry -
 -------------------
 Temperature   298.150 Kelvin.  Pressure   1.00000 Atm.
 Atom     1 has atomic number  6 and mass  12.00000

 Molecular mass:    52.03130 amu.
 Principal axes and moments of inertia in atomic units:
                           1         2         3
     Eigenvalues --    11.93121 456.00651 456.00651
           X            0.00000   0.93210  -0.36221
           Y            0.00000   0.36221   0.93210
           Z            1.00000  -0.00000  -0.00000
 This molecule is a prolate symmetric top.
 Rotational symmetry number  3.
 Rotational temperatures (Kelvin)      7.25943     0.18994     0.18994
 Rotational constants (GHZ):         151.26215     3.95771     3.95771
 Zero-point vibrational energy     145679.9 (Joules/Mol)
                                   34.81833 (Kcal/Mol)
 Warning -- explicit consideration of   4 degrees of freedom as
           vibrations may cause significant error
 Vibrational temperatures:    255.89   255.90   608.88   608.89  1209.69
          (Kelvin)           1209.70  1224.72  1224.73  1224.73  1674.70
                             1674.71  1798.16  2365.24  3175.59  3971.45
                             3999.76  3999.76  4560.00

 Zero-point correction=                           0.055487 (Hartree/Particle)
 Thermal correction to Energy=                    0.060471
 Thermal correction to Enthalpy=                  0.061416
 Thermal correction to Gibbs Free Energy=         0.030303
 Sum of electronic and zero-point Energies=           -153.821650
 Sum of electronic and thermal Energies=              -153.816665
 Sum of electronic and thermal Enthalpies=            -153.815721
 Sum of electronic and thermal Free Energies=         -153.846833

                     E (Thermal)             CV                S
                      KCal/Mol        Cal/Mol-Kelvin    Cal/Mol-Kelvin
 Total                   37.946             16.108             65.482
 Electronic               0.000              0.000              0.000
 Translational            0.889              2.981             37.771
 Rotational               0.889              2.981             20.250
 Vibrational             36.169             10.146              7.462
 Vibration     1          0.628              1.870              2.351
 Vibration     2          0.628              1.870              2.351
 Vibration     3          0.785              1.420              0.881
 Vibration     4          0.785              1.420              0.881

 Optimization completed.
    -- Stationary point found.
 Normal termination of Gaussian 09 at Tue Jul 19 18:05:51 2016.
