 Gaussian 09, Revision E.01,
 Gaussian 09:  EM64L-G09RevE.01 30-Nov-2015

 ---------------------------------------------
 #p b3lyp/6-311++G(3df,2p) freq symmetry=Loose
 ---------------------------------------------

 ---------
 b3lyp opt
 ---------
 Symbolic Z-matrix:
 Charge =  3 Multiplicity = 2

                         Standard orientation:
 ---------------------------------------------------------------------
 Center     Atomic      Atomic             Coordinates (Angstroms)
 Number     Number       Type             X           Y           Z
 ---------------------------------------------------------------------
      1          6           0        0.000000    0.541292    0.000000
      2          6           0        0.378656    1.819011   -0.000000
      3          6           0       -0.490565   -0.780146    0.000000
      4          1           0       -1.186635   -0.964729    0.920836
      5          1           0        0.556585    2.422617    0.956226
      6          1           0        0.556585    2.422617   -0.956226
      7          1           0       -1.186635   -0.964729   -0.920836
      8          6           0        0.321926   -2.066121   -0.000000
 ---------------------------------------------------------------------

 SCF Done:  E(UB3LYP) =  -152.888140147     A.U. after   21 cycles

 The electronic state is 2-A'.
 Alpha  occ. eigenvalues --  -11.15794 -11.09143 -10.99694 -10.98535  -1.60701
 Alpha  occ. eigenvalues --   -1.53228  -1.39092  -1.24722  -1.21312  -1.20062
 Alpha  occ. eigenvalues --   -1.14244  -1.10911  -1.05009
 Alpha virt. eigenvalues --   -0.88576  -0.87588  -0.84060  -0.77548  -0.58405
 Alpha virt. eigenvalues --   -0.54979  -0.53484  -0.49833  -0.46700  -0.46557
 Alpha virt. eigenvalues --   -0.45672  -0.42819  -0.42093  -0.41014  -0.38913

  Beta  occ. eigenvalues --  -11.15406 -11.08360 -10.99147 -10.98539  -1.59173
  Beta  occ. eigenvalues --   -1.51009  -1.37981  -1.23830  -1.20658  -1.19635
  Beta  occ. eigenvalues --   -1.13902  -1.06341
  Beta virt. eigenvalues --   -0.94367  -0.87942  -0.86933  -0.83359  -0.72535
  Beta virt. eigenvalues --   -0.57377  -0.53986  -0.53244  -0.49351  -0.46446
  Beta virt. eigenvalues --   -0.45703  -0.45159  -0.42117  -0.41694  -0.40657

 Mulliken charges and spin densities:
               1          2
     1  C    0.885812   0.561832
     2  C   -0.001690   0.337337
     3  C   -0.119335  -0.128925
     4  H    0.392414   0.024938
     5  H    0.384909  -0.012729
     6  H    0.384909  -0.012729
     7  H    0.392414   0.024938
     8  C    0.680566   0.205336
 Sum of Mulliken charges =   3.00000   1.00000

 Dipole moment (field-independent basis, Debye):
    X=             -0.3174    Y=              0.8017    Z=             -0.0000  Tot=              0.8622
 Quadrupole moment (field-independent basis, Debye-Ang):
   XX=            -11.5020   YY=             26.4755   ZZ=            -11.4488
   XY=              7.4336   XZ=             -0.0000   YZ=              0.0000

  Exact polarizability:  26.934   5.369  84.761   0.000   0.000  25.654
 Approx polarizability:  44.642   2.817 154.374   0.000   0.000  39.652

                      1                      2                      3
                     A"                     A'                     A"
 Frequencies --    120.5108               221.1980               310.8881
 Red. masses --      1.1153                 4.8661                 1.6008
 Frc consts  --      0.0095                 0.1403                 0.0912
 IR Inten    --      0.2875                 8.0257                36.3094

                      4                      5                      6
                     A'                     A"                     A'
 Frequencies --    465.6285               550.3506               677.5323
 Red. masses --      5.6686                 1.5291                 3.7059
 Frc consts  --      0.7241                 0.2729                 1.0023
 IR Inten    --     21.0909                 0.1783                60.2745

                      7                      8                      9
                     A"                     A'                     A'
 Frequencies --    751.9003               841.1666               902.2201
 Red. masses --      1.6484                 2.0285                 1.4286
 Frc consts  --      0.5491                 0.8456                 0.6852
 IR Inten    --     17.7159                77.4886                43.1719

                     10                     11                     12
                     A'                     A"                     A'
 Frequencies --   1019.7760              1020.1533              1122.9456
 Red. masses --      1.3678                 1.3420                 1.0973
 Frc consts  --      0.8380                 0.8229                 0.8152
 IR Inten    --    262.5434                 6.7061               324.2813

                     13                     14                     15
                     A'                     A'                     A"
 Frequencies --   1175.3710              1610.4086              2366.7953
 Red. masses --      1.6814                 8.5019                 1.0889
 Frc consts  --      1.3686                12.9909                 3.5938
 IR Inten    --    233.2452                 9.9766               460.4090

                     16                     17                     18
                     A'                     A'                     A"
 Frequencies --   2382.2613              2581.6230              2594.6376
 Red. masses --      1.0533                 1.0503                 1.1077
 Frc consts  --      3.5220                 4.1243                 4.3935
 IR Inten    --    877.1461              1039.7122               577.7943

 - Thermochemistry -
 -------------------
 Temperature   298.150 Kelvin.  Pressure   1.00000 Atm.
 Atom     1 has atomic number  6 and mass  12.00000

 Molecular mass:    52.03130 amu.
 Principal axes and moments of inertia in atomic units:
                           1         2         3
     Eigenvalues --    42.52123 427.73639 444.88740
           X            0.09284   0.99568   0.00000
           Y            0.99568  -0.09284   0.00000
           Z            0.00000  -0.00000   1.00000
 This molecule is an asymmetric top.
 Rotational symmetry number  1.
 Rotational temperatures (Kelvin)      2.03695     0.20249     0.19469
 Rotational constants (GHZ):          42.44330     4.21928     4.05662
 Zero-point vibrational energy     123905.4 (Joules/Mol)
                                   29.61410 (Kcal/Mol)
 Warning -- explicit consideration of   5 degrees of freedom as
           vibrations may cause significant error
 Vibrational temperatures:    173.39   318.25   447.30   669.93   791.83
          (Kelvin)            974.82  1081.82  1210.25  1298.09  1467.23
                             1467.77  1615.67  1691.09  2317.02  3405.29
                             3427.54  3714.38  3733.10

 Zero-point correction=                           0.047193 (Hartree/Particle)
 Thermal correction to Energy=                    0.052546
 Thermal correction to Enthalpy=                  0.053490
 Thermal correction to Gibbs Free Energy=         0.019457
 Sum of electronic and zero-point Energies=           -152.840947
 Sum of electronic and thermal Energies=              -152.835594
 Sum of electronic and thermal Enthalpies=            -152.834650
 Sum of electronic and thermal Free Energies=         -152.868683

                     E (Thermal)             CV                S
                      KCal/Mol        Cal/Mol-Kelvin    Cal/Mol-Kelvin
 Total                   32.973             17.762             71.630
 Electronic               0.000              0.000              1.377
 Translational            0.889              2.981             37.771
 Rotational               0.889              2.981             23.607
 Vibrational             31.196             11.800              8.874
 Vibration     1          0.609              1.932              3.092
 Vibration     2          0.648              1.809              1.949
 Vibration     3          0.700              1.653              1.358
 Vibration     4          0.823              1.326              0.750
 Vibration     5          0.906              1.139              0.543

 Optimization completed.
    -- Stationary point found.
 Normal termination of Gaussian 09 at Tue Jul 19 21:55:10 2016.
