 Gaussian 09, Revision E.01,
 Gaussian 09:  EM64L-G09RevE.01 30-Nov-2015

 ---------------------------------------------
 #p b3lyp/6-311++G(3df,2p) freq symmetry=Loose
 ---------------------------------------------

 ---------
 b3lyp opt
 ---------
 Symbolic Z-matrix:
 Charge =  2 Multiplicity = 3

                         Standard orientation:
 ---------------------------------------------------------------------
 Center     Atomic      Atomic             Coordinates (Angstroms)
 Number     Number       Type             X           Y           Z
 ---------------------------------------------------------------------
      1          6           0        1.782025   -0.242493   -0.124488
      2          1           0        2.275379   -1.212995   -0.026211
      3          6           0        0.624936    0.503846   -0.036301
      4          1           0        0.657636    1.577625   -0.256836
      5          6           0       -0.739906   -0.049021    0.376282
      6          1           0       -1.270939    0.664223    1.093995
      7          1           0       -0.751918   -1.064535    0.871854
      8          6           0       -1.818748   -0.206385   -0.495959
 ---------------------------------------------------------------------

 SCF Done:  E(UB3LYP) =  -153.685961327     A.U. after   23 cycles

 The electronic state is 3-A.
 Alpha  occ. eigenvalues --  -10.84072 -10.77149 -10.76144 -10.71475  -1.35969
 Alpha  occ. eigenvalues --   -1.28348  -1.10446  -1.03186  -0.97930  -0.96710
 Alpha  occ. eigenvalues --   -0.91383  -0.83873  -0.79676  -0.74333
 Alpha virt. eigenvalues --   -0.61660  -0.59679  -0.53990  -0.36152  -0.33904
 Alpha virt. eigenvalues --   -0.32665  -0.30273  -0.30014  -0.27511  -0.26434
 Alpha virt. eigenvalues --   -0.23992  -0.22594  -0.21170  -0.19910  -0.19469

  Beta  occ. eigenvalues --  -10.83823 -10.76447 -10.73882 -10.71325  -1.34370
  Beta  occ. eigenvalues --   -1.24154  -1.07398  -1.01784  -0.96680  -0.95287
  Beta  occ. eigenvalues --   -0.90283  -0.80515
  Beta virt. eigenvalues --   -0.68090  -0.61486  -0.59407  -0.54955  -0.46910
  Beta virt. eigenvalues --   -0.35503  -0.33677  -0.31076  -0.29515  -0.29318
  Beta virt. eigenvalues --   -0.26835  -0.25930  -0.23706  -0.21864  -0.20717

 Mulliken charges and spin densities:
               1          2
     1  C    0.103255   1.315989
     2  H    0.362553  -0.004057
     3  C    0.345501   0.495003
     4  H    0.290407   0.016201
     5  C    0.134663  -0.020800
     6  H    0.316306   0.019204
     7  H    0.305453   0.005773
     8  C    0.141862   0.172687
 Sum of Mulliken charges =   2.00000   2.00000

 Dipole moment (field-independent basis, Debye):
    X=              0.5890    Y=             -0.4255    Z=              1.0089  Tot=              1.2433
 Quadrupole moment (field-independent basis, Debye-Ang):
   XX=              0.9504   YY=            -12.4418   ZZ=            -16.8807
   XY=             -2.6201   XZ=             -2.2023   YZ=             -0.4350

  Exact polarizability:  67.856  -1.057  31.287   1.452   0.301  27.824
 Approx polarizability: 124.031   0.077  47.136   8.800   1.786  45.582

                      1                      2                      3
                      A                      A                      A
 Frequencies --     99.6955               253.5233               347.8079
 Red. masses --      2.6627                 4.5469                 1.5115
 Frc consts  --      0.0156                 0.1722                 0.1077
 IR Inten    --      2.4973                 0.1976                 5.5627

                      4                      5                      6
                      A                      A                      A
 Frequencies --    419.7267               642.9258               714.0159
 Red. masses --      1.7839                 1.5869                 1.5653
 Frc consts  --      0.1852                 0.3865                 0.4702
 IR Inten    --     22.5248                85.3016                30.6126

                      7                      8                      9
                      A                      A                      A
 Frequencies --    774.0852               804.5867               918.5071
 Red. masses --      1.9949                 1.3468                 1.5025
 Frc consts  --      0.7043                 0.5137                 0.7468
 IR Inten    --     26.2223                19.1258                 9.9910

                     10                     11                     12
                      A                      A                      A
 Frequencies --    993.8929              1220.3797              1264.2713
 Red. masses --      1.4193                 1.1216                 1.2198
 Frc consts  --      0.8260                 0.9842                 1.1487
 IR Inten    --     29.5423                75.7870                 8.0442

                     13                     14                     15
                      A                      A                      A
 Frequencies --   1347.8989              1389.6225              2637.1205
 Red. masses --      4.9677                 3.8499                 1.0669
 Frc consts  --      5.3176                 4.3802                 4.3717
 IR Inten    --    400.6617                 1.5778               313.6782

                     16                     17                     18
                      A                      A                      A
 Frequencies --   2739.7353              3055.9741              3127.4946
 Red. masses --      1.0766                 1.0888                 1.1062
 Frc consts  --      4.7611                 5.9912                 6.3748
 IR Inten    --    189.3001               121.3736               228.6309

 - Thermochemistry -
 -------------------
 Temperature   298.150 Kelvin.  Pressure   1.00000 Atm.
 Atom     1 has atomic number  6 and mass  12.00000

 Molecular mass:    52.03130 amu.
 Principal axes and moments of inertia in atomic units:
                           1         2         3
     Eigenvalues --    59.34186 370.24379 381.77217
           X            0.99949  -0.02411  -0.02113
           Y            0.02028   0.98595  -0.16578
           Z            0.02483   0.16527   0.98594
 This molecule is an asymmetric top.
 Rotational symmetry number  1.
 Rotational temperatures (Kelvin)      1.45957     0.23394     0.22687
 Rotational constants (GHZ):          30.41261     4.87447     4.72727
 Zero-point vibrational energy     136082.8 (Joules/Mol)
                                   32.52456 (Kcal/Mol)
 Warning -- explicit consideration of   4 degrees of freedom as
           vibrations may cause significant error
 Vibrational temperatures:    143.44   364.76   500.42   603.89   925.03
          (Kelvin)           1027.31  1113.73  1157.62  1321.53  1429.99
                             1755.85  1819.00  1939.32  1999.35  3794.22
                             3941.86  4396.86  4499.76

 Zero-point correction=                           0.051831 (Hartree/Particle)
 Thermal correction to Energy=                    0.057077
 Thermal correction to Enthalpy=                  0.058021
 Thermal correction to Gibbs Free Energy=         0.023681
 Sum of electronic and zero-point Energies=           -153.634130
 Sum of electronic and thermal Energies=              -153.628885
 Sum of electronic and thermal Enthalpies=            -153.627941
 Sum of electronic and thermal Free Energies=         -153.662280

                     E (Thermal)             CV                S
                      KCal/Mol        Cal/Mol-Kelvin    Cal/Mol-Kelvin
 Total                   35.816             17.213             72.273
 Electronic               0.000              0.000              2.183
 Translational            0.889              2.981             37.771
 Rotational               0.889              2.981             23.643
 Vibrational             34.039             11.251              8.676
 Vibration     1          0.604              1.949              3.460
 Vibration     2          0.665              1.757              1.706
 Vibration     3          0.725              1.580              1.176
 Vibration     4          0.782              1.427              0.893

 Normal termination of Gaussian 09 at Tue Jun 21 23:29:06 2016.
