 Gaussian 09, Revision E.01,
 Gaussian 09:  EM64L-G09RevE.01 30-Nov-2015

 ---------------------------------------------
 #p b3lyp/6-311++G(3df,2p) freq symmetry=Loose
 ---------------------------------------------

 ---------
 b3lyp opt
 ---------
 Symbolic Z-matrix:
 Charge =  0 Multiplicity = 1

                         Standard orientation:
 ---------------------------------------------------------------------
 Center     Atomic      Atomic             Coordinates (Angstroms)
 Number     Number       Type             X           Y           Z
 ---------------------------------------------------------------------
      1          6           0        0.578354   -0.554252    0.000000
      2          1           0       -1.198838   -1.697514    0.000000
      3          1           0        1.663003   -0.588992    0.000000
      4          6           0        0.000000    0.742685   -0.000000
      5          6           0       -0.457555    1.854626   -0.000000
      6          1           0       -0.869156    2.833154   -0.000000
      7          6           0       -0.117608   -1.692662    0.000000
      8          1           0        0.385845   -2.649031    0.000000
 ---------------------------------------------------------------------

 SCF Done:  E(RB3LYP) =  -154.794507482     A.U. after   12 cycles

 The electronic state is 1-A'.
 Alpha  occ. eigenvalues --  -10.20460 -10.18636 -10.18293 -10.17428  -0.81501
 Alpha  occ. eigenvalues --   -0.74331  -0.62895  -0.53866  -0.50247  -0.45891
 Alpha  occ. eigenvalues --   -0.39136  -0.34867  -0.28908  -0.25759
 Alpha virt. eigenvalues --   -0.04731  -0.00649   0.00829   0.01637   0.03062
 Alpha virt. eigenvalues --    0.03644   0.05510   0.06775   0.07134   0.07529
 Alpha virt. eigenvalues --    0.09958   0.10475   0.10978   0.11809   0.12348

 Mulliken charges:
               1
     1  C   -0.173395
     2  H    0.156583
     3  H    0.141844
     4  C   -0.508637
     5  C    0.414258
     6  H    0.312862
     7  C   -0.507998
     8  H    0.164482
 Sum of Mulliken charges =  -0.00000

 Dipole moment (field-independent basis, Debye):
    X=              0.0687    Y=             -0.4145    Z=             -0.0000  Tot=              0.4202
 Quadrupole moment (field-independent basis, Debye-Ang):
   XX=            -22.8562   YY=            -19.1565   ZZ=            -27.0105
   XY=             -1.7563   XZ=             -0.0000   YZ=             -0.0000

  Exact polarizability:  41.352  -4.378  79.166  -0.000  -0.000  33.264
 Approx polarizability:  60.509  -7.685 130.513   0.000  -0.000  45.850

                      1                      2                      3
                     A'                     A"                     A'
 Frequencies --    225.2523               320.3320               559.2777
 Red. masses --      3.0751                 2.3178                 3.4017
 Frc consts  --      0.0919                 0.1401                 0.6269
 IR Inten    --      3.0325                10.9699                 5.8531

                      4                      5                      6
                     A"                     A'                     A"
 Frequencies --    655.9822               679.0212               706.9772
 Red. masses --      1.2799                 1.2628                 1.9100
 Frc consts  --      0.3245                 0.3430                 0.5625
 IR Inten    --     45.1682                44.6854                 2.9002

                      7                      8                      9
                     A'                     A"                     A"
 Frequencies --    892.4196               964.2105              1012.9645
 Red. masses --      2.6204                 1.3366                 1.1187
 Frc consts  --      1.2296                 0.7321                 0.6763
 IR Inten    --      2.3701                43.6520                14.1644

                     10                     11                     12
                     A'                     A'                     A'
 Frequencies --   1113.6390              1324.2075              1448.2320
 Red. masses --      1.6463                 1.2896                 1.2223
 Frc consts  --      1.2030                 1.3323                 1.5104
 IR Inten    --      3.6327                 0.4064                 2.9742

                     13                     14                     15
                     A'                     A'                     A'
 Frequencies --   1665.2940              2199.1890              3134.7087
 Red. masses --      4.0220                 6.1129                 1.0816
 Frc consts  --      6.5716                17.4190                 6.2621
 IR Inten    --     11.5121                 1.2295                 4.0257

                     16                     17                     18
                     A'                     A'                     A'
 Frequencies --   3147.0448              3234.6347              3463.6736
 Red. masses --      1.0652                 1.1174                 1.1578
 Frc consts  --      6.2156                 6.8883                 8.1838
 IR Inten    --      2.9340                 4.9786                72.9451

 - Thermochemistry -
 -------------------
 Temperature   298.150 Kelvin.  Pressure   1.00000 Atm.
 Atom     1 has atomic number  6 and mass  12.00000

 Molecular mass:    52.03130 amu.
 Principal axes and moments of inertia in atomic units:
                           1         2         3
     Eigenvalues --    34.78111 379.93881 414.71992
           X           -0.14738   0.98908   0.00000
           Y            0.98908   0.14738   0.00000
           Z           -0.00000  -0.00000   1.00000
 This molecule is an asymmetric top.
 Rotational symmetry number  1.
 Rotational temperatures (Kelvin)      2.49025     0.22797     0.20885
 Rotational constants (GHZ):          51.88854     4.75008     4.35171
 Zero-point vibrational energy     159982.9 (Joules/Mol)
                                   38.23684 (Kcal/Mol)
 Warning -- explicit consideration of   3 degrees of freedom as
           vibrations may cause significant error
 Vibrational temperatures:    324.09   460.89   804.67   943.81   976.96
          (Kelvin)           1017.18  1283.99  1387.28  1457.43  1602.28
                             1905.24  2083.68  2395.98  3164.14  4510.14
                             4527.89  4653.91  4983.45

 Zero-point correction=                           0.060934 (Hartree/Particle)
 Thermal correction to Energy=                    0.065407
 Thermal correction to Enthalpy=                  0.066351
 Thermal correction to Gibbs Free Energy=         0.034907
 Sum of electronic and zero-point Energies=           -154.733573
 Sum of electronic and thermal Energies=              -154.729101
 Sum of electronic and thermal Enthalpies=            -154.728157
 Sum of electronic and thermal Free Energies=         -154.759601

                     E (Thermal)             CV                S
                      KCal/Mol        Cal/Mol-Kelvin    Cal/Mol-Kelvin
 Total                   41.043             14.954             66.179
 Electronic               0.000              0.000              0.000
 Translational            0.889              2.981             37.771
 Rotational               0.889              2.981             23.220
 Vibrational             39.266              8.992              5.188
 Vibration     1          0.650              1.803              1.916
 Vibration     2          0.706              1.635              1.308
 Vibration     3          0.915              1.119              0.525

 Optimization completed.
    -- Stationary point found.
 Normal termination of Gaussian 09 at Tue Jul 19 19:29:57 2016.
