 Gaussian 09, Revision E.01,
 Gaussian 09:  EM64L-G09RevE.01 30-Nov-2015

 ---------------------------------------------
 #p b3lyp/6-311++G(3df,2p) freq symmetry=Loose
 ---------------------------------------------

 ---------
 b3lyp opt
 ---------
 Symbolic Z-matrix:
 Charge =  1 Multiplicity = 4

                         Standard orientation:
 ---------------------------------------------------------------------
 Center     Atomic      Atomic             Coordinates (Angstroms)
 Number     Number       Type             X           Y           Z
 ---------------------------------------------------------------------
      1          6           0        0.478447    0.395483   -0.000570
      2          6           0       -0.635409   -0.421527   -0.000635
      3          6           0       -1.991142   -0.110323    0.000750
      4          1           0       -2.486817    0.863047    0.001092
      5          1           0        0.338352    1.478238   -0.000981
      6          6           0        1.751459   -0.137005    0.000270
      7          1           0        1.907069   -1.208516    0.000096
      8          1           0        2.621264    0.507461    0.000903
 ---------------------------------------------------------------------

 SCF Done:  E(UB3LYP) =  -154.331618043     A.U. after   14 cycles

 The electronic state is 4-A.
 Alpha  occ. eigenvalues --  -10.50547 -10.49133 -10.46123 -10.45131  -1.08975
 Alpha  occ. eigenvalues --   -1.00936  -0.87711  -0.78671  -0.73876  -0.69983
 Alpha  occ. eigenvalues --   -0.63638  -0.61044  -0.57621  -0.51754  -0.47181
 Alpha virt. eigenvalues --   -0.32706  -0.19719  -0.14957  -0.13740  -0.12616
 Alpha virt. eigenvalues --   -0.10301  -0.09754  -0.07922  -0.07516  -0.06631
 Alpha virt. eigenvalues --   -0.05447  -0.04356  -0.04090  -0.03387  -0.02017

  Beta  occ. eigenvalues --  -10.48045 -10.47381 -10.45465 -10.44972  -1.05890
  Beta  occ. eigenvalues --   -0.96172  -0.84714  -0.75961  -0.71726  -0.67968
  Beta  occ. eigenvalues --   -0.62702  -0.56933
  Beta virt. eigenvalues --   -0.40686  -0.39021  -0.28028  -0.26926  -0.16420
  Beta virt. eigenvalues --   -0.14377  -0.13260  -0.12047  -0.09791  -0.09248
  Beta virt. eigenvalues --   -0.07539  -0.06722  -0.06183  -0.04837  -0.03229

 Mulliken charges and spin densities:
               1          2
     1  C    0.256470  -0.107614
     2  C    0.290930   1.188107
     3  C   -0.121491   1.358760
     4  H    0.226338   0.057564
     5  H    0.202051   0.052862
     6  C   -0.304926   0.470610
     7  H    0.226993  -0.012592
     8  H    0.223635  -0.007696
 Sum of Mulliken charges =   1.00000   3.00000

 Dipole moment (field-independent basis, Debye):
    X=              0.2468    Y=              1.0615    Z=              0.0012  Tot=              1.0898
 Quadrupole moment (field-independent basis, Debye-Ang):
   XX=             -4.1840   YY=            -18.5940   ZZ=            -22.8914
   XY=             -2.0985   XZ=             -0.0018   YZ=             -0.0006

  Exact polarizability:  83.594  -0.957  34.941  -0.004   0.001  26.337
 Approx polarizability: 135.821   0.977  49.638  -0.004   0.003  37.569

                      1                      2                      3
                      A                      A                      A
 Frequencies --    144.8500               247.9935               478.2367
 Red. masses --      3.0490                 2.8475                 2.9993
 Frc consts  --      0.0377                 0.1032                 0.4042
 IR Inten    --     12.6646                 4.3184                 0.8244

                      4                      5                      6
                      A                      A                      A
 Frequencies --    484.8780               765.5297               911.8981
 Red. masses --      1.1802                 1.5328                 1.2528
 Frc consts  --      0.1635                 0.5292                 0.6138
 IR Inten    --      2.1603                11.6461                21.5672

                      7                      8                      9
                      A                      A                      A
 Frequencies --    954.5737               961.2662              1072.4249
 Red. masses --      1.4024                 1.4667                 1.4018
 Frc consts  --      0.7529                 0.7985                 0.9499
 IR Inten    --     16.3161                 4.5655                10.4706

                     10                     11                     12
                      A                      A                      A
 Frequencies --   1180.6685              1271.2166              1335.3228
 Red. masses --      2.6686                 1.7123                 2.3410
 Frc consts  --      2.1918                 1.6303                 2.4594
 IR Inten    --     15.2898                35.6387                97.0710

                     13                     14                     15
                      A                      A                      A
 Frequencies --   1504.5737              1605.9568              3074.1939
 Red. masses --      1.3876                 5.4654                 1.0858
 Frc consts  --      1.8508                 8.3050                 6.0460
 IR Inten    --      4.5267                20.2651                11.8235

                     16                     17                     18
                      A                      A                      A
 Frequencies --   3090.9216              3144.2345              3252.8159
 Red. masses --      1.0904                 1.0570                 1.1219
 Frc consts  --      6.1376                 6.1566                 6.9937
 IR Inten    --     18.2562                14.0048                14.7660

 - Thermochemistry -
 -------------------
 Temperature   298.150 Kelvin.  Pressure   1.00000 Atm.
 Atom     1 has atomic number  6 and mass  12.00000

 Molecular mass:    52.03130 amu.
 Principal axes and moments of inertia in atomic units:
                           1         2         3
     Eigenvalues --    31.96121 388.79572 420.75680
           X            0.99968  -0.02529   0.00010
           Y            0.02529   0.99968   0.00010
           Z           -0.00010  -0.00009   1.00000
 This molecule is an asymmetric top.
 Rotational symmetry number  1.
 Rotational temperatures (Kelvin)      2.70997     0.22277     0.20585
 Rotational constants (GHZ):          56.46661     4.64188     4.28927
 Zero-point vibrational energy     152413.5 (Joules/Mol)
                                   36.42771 (Kcal/Mol)
 Warning -- explicit consideration of   4 degrees of freedom as
           vibrations may cause significant error
 Vibrational temperatures:    208.41   356.81   688.08   697.63  1101.43
          (Kelvin)           1312.02  1373.42  1383.05  1542.98  1698.72
                             1828.99  1921.23  2164.74  2310.61  4423.07
                             4447.14  4523.85  4680.07

 Zero-point correction=                           0.058051 (Hartree/Particle)
 Thermal correction to Energy=                    0.062805
 Thermal correction to Enthalpy=                  0.063749
 Thermal correction to Gibbs Free Energy=         0.030312
 Sum of electronic and zero-point Energies=           -154.273567
 Sum of electronic and thermal Energies=              -154.268813
 Sum of electronic and thermal Enthalpies=            -154.267869
 Sum of electronic and thermal Free Energies=         -154.301306

                     E (Thermal)             CV                S
                      KCal/Mol        Cal/Mol-Kelvin    Cal/Mol-Kelvin
 Total                   39.411             15.205             70.375
 Electronic               0.000              0.000              2.755
 Translational            0.889              2.981             37.771
 Rotational               0.889              2.981             23.174
 Vibrational             37.633              9.243              6.675
 Vibration     1          0.616              1.908              2.739
 Vibration     2          0.662              1.766              1.745
 Vibration     3          0.835              1.298              0.715
 Vibration     4          0.841              1.284              0.697

 Normal termination of Gaussian 09 at Tue Jun 21 22:57:04 2016.
