 Gaussian 09, Revision E.01,
 Gaussian 09:  EM64L-G09RevE.01 30-Nov-2015

 ---------------------------------------------
 #p b3lyp/6-311++G(3df,2p) freq symmetry=Loose
 ---------------------------------------------

 ---------
 b3lyp opt
 ---------
 Symbolic Z-matrix:
 Charge =  1 Multiplicity = 2

                         Standard orientation:
 ---------------------------------------------------------------------
 Center     Atomic      Atomic             Coordinates (Angstroms)
 Number     Number       Type             X           Y           Z
 ---------------------------------------------------------------------
      1          6           0        0.000000    0.181447    0.000000
      2          6           0       -0.182964   -1.216122    0.000000
      3          1           0       -1.168117   -1.703641    0.000000
      4          1           0        0.660684   -1.907677    0.000000
      5          6           0       -1.354857    0.133750    0.000000
      6          6           0        1.111503    1.042961    0.000000
      7          1           0        2.116504    0.648417    0.000000
      8          1           0        0.948839    2.110687    0.000000
 ---------------------------------------------------------------------

 SCF Done:  E(UB3LYP) =  -154.341940621     A.U. after   17 cycles

 The electronic state is 2-A".
 Alpha  occ. eigenvalues --  -10.54063 -10.51436 -10.48121 -10.45004  -1.16757
 Alpha  occ. eigenvalues --   -0.98775  -0.90292  -0.78744  -0.72581  -0.68536
 Alpha  occ. eigenvalues --   -0.65428  -0.64868  -0.55272  -0.48507
 Alpha virt. eigenvalues --   -0.36270  -0.31091  -0.20649  -0.16441  -0.13790
 Alpha virt. eigenvalues --   -0.11509  -0.10759  -0.10288  -0.09667  -0.08161
 Alpha virt. eigenvalues --   -0.07116  -0.05905  -0.04503  -0.03958  -0.02477

  Beta  occ. eigenvalues --  -10.54058 -10.50946 -10.48231 -10.43848  -1.16303
  Beta  occ. eigenvalues --   -0.95953  -0.89603  -0.78062  -0.71997  -0.67997
  Beta  occ. eigenvalues --   -0.64872  -0.62935  -0.55201
  Beta virt. eigenvalues --   -0.36297  -0.34145  -0.30944  -0.18420  -0.16201
  Beta virt. eigenvalues --   -0.13576  -0.11426  -0.10373  -0.10148  -0.08616
  Beta virt. eigenvalues --   -0.08107  -0.07066  -0.05103  -0.04374  -0.03875

 Mulliken charges and spin densities:
               1          2
     1  C    0.965126  -0.073344
     2  C   -0.287853   0.340398
     3  H    0.245089  -0.009994
     4  H    0.263006  -0.007360
     5  C   -0.129981   0.014894
     6  C   -0.522596   0.780382
     7  H    0.231557  -0.022606
     8  H    0.235653  -0.022371
 Sum of Mulliken charges =   1.00000   1.00000

 Dipole moment (field-independent basis, Debye):
    X=              1.4723    Y=             -1.4348    Z=             -0.0000  Tot=              2.0558
 Quadrupole moment (field-independent basis, Debye-Ang):
   XX=            -17.8333   YY=            -10.8884   ZZ=            -22.9070
   XY=              2.5937   XZ=             -0.0000   YZ=              0.0000

  Exact polarizability:  45.740   6.022  53.065   0.000   0.000  25.932
 Approx polarizability:  70.157   0.487  92.917  -0.000  -0.000  38.986

                      1                      2                      3
                     A"                     A'                     A"
 Frequencies --    239.6320               296.2100               329.9857
 Red. masses --      1.7779                 1.6902                 1.1055
 Frc consts  --      0.0602                 0.0874                 0.0709
 IR Inten    --      4.3609                11.1000                 0.7842

                      4                      5                      6
                     A'                     A"                     A'
 Frequencies --    402.4015               513.6992               637.6534
 Red. masses --      4.4035                 1.5303                 2.2289
 Frc consts  --      0.4201                 0.2379                 0.5340
 IR Inten    --     15.3091                 2.4472                53.9555

                      7                      8                      9
                     A"                     A"                     A'
 Frequencies --    816.1635               904.6215               942.9892
 Red. masses --      1.3616                 1.3726                 3.3814
 Frc consts  --      0.5344                 0.6618                 1.7716
 IR Inten    --     23.2990                46.6819                 1.5583

                     10                     11                     12
                     A'                     A'                     A'
 Frequencies --    999.2117              1241.8809              1374.1564
 Red. masses --      1.7207                 2.5459                 1.2397
 Frc consts  --      1.0122                 2.3134                 1.3792
 IR Inten    --     13.6716                37.0121                57.1682

                     13                     14                     15
                     A'                     A'                     A'
 Frequencies --   1469.5121              1652.7373              3015.9309
 Red. masses --      1.1424                 9.5877                 1.0592
 Frc consts  --      1.4534                15.4303                 5.6762
 IR Inten    --      6.9699                50.3122               200.8945

                     16                     17                     18
                     A'                     A'                     A'
 Frequencies --   3123.0594              3159.7468              3278.8332
 Red. masses --      1.1035                 1.0505                 1.1238
 Frc consts  --      6.3414                 6.1796                 7.1185
 IR Inten    --     95.4027                25.3054                15.0144

 - Thermochemistry -
 -------------------
 Temperature   298.150 Kelvin.  Pressure   1.00000 Atm.
 Atom     1 has atomic number  6 and mass  12.00000

 Molecular mass:    52.03130 amu.
 Principal axes and moments of inertia in atomic units:
                           1         2         3
     Eigenvalues --    89.40642 222.24385 311.65027
           X            0.72090  -0.69304   0.00000
           Y            0.69304   0.72090   0.00000
           Z            0.00000   0.00000   1.00000
 This molecule is an asymmetric top.
 Rotational symmetry number  1.
 Rotational temperatures (Kelvin)      0.96877     0.38972     0.27792
 Rotational constants (GHZ):          20.18581     8.12055     5.79092
 Zero-point vibrational energy     145935.0 (Joules/Mol)
                                   34.87930 (Kcal/Mol)
 Warning -- explicit consideration of   5 degrees of freedom as
           vibrations may cause significant error
 Vibrational temperatures:    344.78   426.18   474.78   578.97   739.10
          (Kelvin)            917.44  1174.28  1301.55  1356.75  1437.64
                             1786.79  1977.10  2114.30  2377.92  4339.25
                             4493.38  4546.17  4717.50

 Zero-point correction=                           0.055584 (Hartree/Particle)
 Thermal correction to Energy=                    0.060628
 Thermal correction to Enthalpy=                  0.061572
 Thermal correction to Gibbs Free Energy=         0.028513
 Sum of electronic and zero-point Energies=           -154.286357
 Sum of electronic and thermal Energies=              -154.281312
 Sum of electronic and thermal Enthalpies=            -154.280368
 Sum of electronic and thermal Free Energies=         -154.313427

                     E (Thermal)             CV                S
                      KCal/Mol        Cal/Mol-Kelvin    Cal/Mol-Kelvin
 Total                   38.045             17.038             69.579
 Electronic               0.000              0.000              1.377
 Translational            0.889              2.981             37.771
 Rotational               0.889              2.981             23.342
 Vibrational             36.267             11.076              7.089
 Vibration     1          0.657              1.780              1.806
 Vibration     2          0.690              1.681              1.438
 Vibration     3          0.713              1.616              1.260
 Vibration     4          0.768              1.465              0.954
 Vibration     5          0.869              1.220              0.625

 Optimization completed.
    -- Stationary point found.
 Normal termination of Gaussian 09 at Tue Jun 21 22:17:14 2016.
