 Gaussian 09, Revision E.01,
 Gaussian 09:  EM64L-G09RevE.01 30-Nov-2015

 ---------------------------------------------
 #p b3lyp/6-311++G(3df,2p) freq symmetry=Loose
 ---------------------------------------------

 ---------
 b3lyp opt
 ---------
 Symbolic Z-matrix:
 Charge =  1 Multiplicity = 2

                         Standard orientation:
 ---------------------------------------------------------------------
 Center     Atomic      Atomic             Coordinates (Angstroms)
 Number     Number       Type             X           Y           Z
 ---------------------------------------------------------------------
      1          6           0        1.521414    0.079280   -0.000050
      2          1           0        1.819256    1.125632   -0.003182
      3          1           0        1.929355   -0.432936   -0.877721
      4          1           0        1.928049   -0.426816    0.881688
      5          6           0        0.081214   -0.084565   -0.000105
      6          6           0       -1.072643   -0.806787    0.000038
      7          6           0       -1.187402    0.524642   -0.000032
      8          1           0       -1.732161    1.458699    0.000108
 ---------------------------------------------------------------------

 SCF Done:  E(UB3LYP) =  -154.423237327     A.U. after   14 cycles

 The electronic state is 2-A.
 Alpha  occ. eigenvalues --  -10.52333 -10.51599 -10.50844 -10.40808  -1.22241
 Alpha  occ. eigenvalues --   -0.99393  -0.85104  -0.77532  -0.72061  -0.68735
 Alpha  occ. eigenvalues --   -0.65802  -0.62661  -0.61351  -0.53701
 Alpha virt. eigenvalues --   -0.29169  -0.27552  -0.16140  -0.14360  -0.12888
 Alpha virt. eigenvalues --   -0.11041  -0.10564  -0.09787  -0.08887  -0.08178
 Alpha virt. eigenvalues --   -0.05987  -0.05709  -0.04992  -0.04023  -0.02849

  Beta  occ. eigenvalues --  -10.52064 -10.50625 -10.50101 -10.40803  -1.21110
  Beta  occ. eigenvalues --   -0.99113  -0.84153  -0.75588  -0.69845  -0.68408
  Beta  occ. eigenvalues --   -0.64127  -0.61034  -0.60963
  Beta virt. eigenvalues --   -0.39461  -0.29067  -0.25379  -0.15931  -0.14155
  Beta virt. eigenvalues --   -0.12444  -0.11028  -0.10250  -0.09547  -0.08644
  Beta virt. eigenvalues --   -0.08108  -0.05587  -0.04883  -0.04685  -0.03738

 Mulliken charges and spin densities:
               1          2
     1  C   -0.390751   0.009077
     2  H    0.196330   0.010996
     3  H    0.215037   0.005795
     4  H    0.215165   0.005665
     5  C    0.108719   0.026296
     6  C    0.124504   0.875290
     7  C    0.213833   0.062100
     8  H    0.317162   0.004781
 Sum of Mulliken charges =   1.00000   1.00000

 Dipole moment (field-independent basis, Debye):
    X=             -0.3456    Y=              1.2339    Z=              0.0010  Tot=              1.2814
 Quadrupole moment (field-independent basis, Debye-Ang):
   XX=            -10.8053   YY=            -17.8002   ZZ=            -20.5964
   XY=             -2.6024   XZ=              0.0014   YZ=              0.0004

  Exact polarizability:  48.597   0.790  35.855   0.001  -0.001  26.110
 Approx polarizability:  69.906   2.533  59.316   0.005  -0.003  38.574

                      1                      2                      3
                      A                      A                      A
 Frequencies --     59.8652               356.4084               410.8227
 Red. masses --      1.1748                 2.7120                 2.8407
 Frc consts  --      0.0025                 0.2030                 0.2825
 IR Inten    --      5.0082                 7.8234                 2.7645

                      4                      5                      6
                      A                      A                      A
 Frequencies --    780.3049               888.4981               934.9324
 Red. masses --      3.2909                 1.2737                 1.3767
 Frc consts  --      1.1806                 0.5924                 0.7090
 IR Inten    --      3.0056                11.4702                19.4711

                      7                      8                      9
                      A                      A                      A
 Frequencies --   1018.2094              1034.5853              1177.1361
 Red. masses --      1.6440                 1.5654                 4.9086
 Frc consts  --      1.0042                 0.9872                 4.0074
 IR Inten    --     15.1439                22.2640                52.8932

                     10                     11                     12
                      A                      A                      A
 Frequencies --   1375.4074              1409.3717              1439.5989
 Red. masses --      1.1538                 3.5017                 1.0406
 Frc consts  --      1.2860                 4.0981                 1.2707
 IR Inten    --     32.8809                53.7588                16.2749

                     13                     14                     15
                      A                      A                      A
 Frequencies --   1450.2484              1732.2593              3012.9286
 Red. masses --      1.3286                 8.5586                 1.0365
 Frc consts  --      1.6463                15.1314                 5.5436
 IR Inten    --     54.5353                44.9940                58.5271

                     16                     17                     18
                      A                      A                      A
 Frequencies --   3066.9753              3129.9548              3238.6349
 Red. masses --      1.0973                 1.1015                 1.1188
 Frc consts  --      6.0811                 6.3580                 6.9142
 IR Inten    --     16.7164                11.2867                82.1636

 - Thermochemistry -
 -------------------
 Temperature   298.150 Kelvin.  Pressure   1.00000 Atm.
 Atom     1 has atomic number  6 and mass  12.00000

 Molecular mass:    52.03130 amu.
 Principal axes and moments of inertia in atomic units:
                           1         2         3
     Eigenvalues --    58.93427 263.45070 311.24404
           X            0.99939  -0.03480   0.00001
           Y            0.03480   0.99939   0.00002
           Z           -0.00001  -0.00002   1.00000
 This molecule is an asymmetric top.
 Rotational symmetry number  1.
 Rotational temperatures (Kelvin)      1.46967     0.32877     0.27828
 Rotational constants (GHZ):          30.62295     6.85039     5.79848
 Zero-point vibrational energy     158601.7 (Joules/Mol)
                                   37.90673 (Kcal/Mol)
 Warning -- explicit consideration of   3 degrees of freedom as
           vibrations may cause significant error
 Vibrational temperatures:     86.13   512.79   591.08  1122.68  1278.35
          (Kelvin)           1345.16  1464.97  1488.54  1693.63  1978.90
                             2027.77  2071.26  2086.58  2492.33  4334.93
                             4412.69  4503.30  4659.67

 Zero-point correction=                           0.060408 (Hartree/Particle)
 Thermal correction to Energy=                    0.065011
 Thermal correction to Enthalpy=                  0.065955
 Thermal correction to Gibbs Free Energy=         0.032913
 Sum of electronic and zero-point Energies=           -154.362829
 Sum of electronic and thermal Energies=              -154.358226
 Sum of electronic and thermal Enthalpies=            -154.357282
 Sum of electronic and thermal Free Energies=         -154.390324

                     E (Thermal)             CV                S
                      KCal/Mol        Cal/Mol-Kelvin    Cal/Mol-Kelvin
 Total                   40.795             13.949             69.543
 Electronic               0.000              0.000              1.377
 Translational            0.889              2.981             37.771
 Rotational               0.889              2.981             23.095
 Vibrational             39.017              7.987              7.300
 Vibration     1          0.597              1.973              4.462
 Vibration     2          0.732              1.562              1.138
 Vibration     3          0.775              1.447              0.924

 Normal termination of Gaussian 09 at Sun Jun 19 15:39:22 2016.
