 Gaussian 09, Revision E.01,
 Gaussian 09:  EM64L-G09RevE.01 30-Nov-2015

 ------------------------------------------------------
 #p b3lyp/6-311++G(3df,2p) freq IOp(2/17=3) IOp(2/18=3)
 ------------------------------------------------------

 ---------
 b3lyp opt
 ---------
 Symbolic Z-matrix:
 Charge =  1 Multiplicity = 4

                         Standard orientation:
 ---------------------------------------------------------------------
 Center     Atomic      Atomic             Coordinates (Angstroms)
 Number     Number       Type             X           Y           Z
 ---------------------------------------------------------------------
      1          6           0       -0.162284   -1.088507    0.000000
      2          1           0       -0.246188   -2.168584    0.000000
      3          6           0        0.945374   -0.131468    0.000000
      4          1           0        2.021510   -0.238257    0.000000
      5          6           0        0.000000    1.029226    0.000000
      6          1           0        0.048748    1.710999   -0.870104
      7          1           0        0.048748    1.710999    0.870104
      8          6           0       -1.095251    0.021547    0.000000
 ---------------------------------------------------------------------

 SCF Done:  E(UB3LYP) =  -154.314036253     A.U. after   13 cycles

 The electronic state is 4-A'.
 Alpha  occ. eigenvalues --  -10.51634 -10.49372 -10.47239 -10.44331  -1.16840
 Alpha  occ. eigenvalues --   -0.94232  -0.90107  -0.79778  -0.72293  -0.71303
 Alpha  occ. eigenvalues --   -0.66818  -0.63155  -0.57948  -0.52627  -0.46133
 Alpha virt. eigenvalues --   -0.28815  -0.15876  -0.14647  -0.14324  -0.12387
 Alpha virt. eigenvalues --   -0.11113  -0.09678  -0.08261  -0.07280  -0.07099
 Alpha virt. eigenvalues --   -0.06301  -0.05285  -0.03721  -0.01625  -0.01081

  Beta  occ. eigenvalues --  -10.50795 -10.46745 -10.46006 -10.44206  -1.13018
  Beta  occ. eigenvalues --   -0.92075  -0.85214  -0.78358  -0.67999  -0.66943
  Beta  occ. eigenvalues --   -0.64607  -0.61689
  Beta virt. eigenvalues --   -0.45399  -0.34687  -0.30349  -0.20519  -0.15521
  Beta virt. eigenvalues --   -0.13948  -0.13329  -0.11867  -0.10543  -0.08966
  Beta virt. eigenvalues --   -0.08145  -0.06634  -0.06154  -0.04814  -0.04188

 Mulliken charges and spin densities:
               1          2
     1  C   -0.045649   0.484440
     2  H    0.286373  -0.012102
     3  C    0.145297   0.815233
     4  H    0.283338   0.013874
     5  C   -0.328922  -0.086671
     6  H    0.212079   0.077021
     7  H    0.212079   0.077021
     8  C    0.235407   1.631183
 Sum of Mulliken charges =   1.00000   3.00000

 Dipole moment (field-independent basis, Debye):
    X=              0.9416    Y=             -0.4088    Z=              0.0000  Tot=              1.0265
 Quadrupole moment (field-independent basis, Debye-Ang):
   XX=            -18.3107   YY=            -11.5602   ZZ=            -20.9190
   XY=              0.4250   XZ=              0.0000   YZ=              0.0000

  Exact polarizability:  41.894   0.068  45.077   0.000  -0.000  26.827
 Approx polarizability:  70.366  -0.466  69.373   0.000   0.000  39.746

                      1                      2                      3
                     A"                     A"                     A"
 Frequencies --    273.7215               374.4319               533.3333
 Red. masses --      1.3706                 1.5889                 1.1378
 Frc consts  --      0.0605                 0.1312                 0.1907
 IR Inten    --     29.9312                 2.0736                20.5355

                      4                      5                      6
                     A'                     A"                     A"
 Frequencies --    829.3906               881.9827               893.8345
 Red. masses --      1.9592                 2.1255                 1.1250
 Frc consts  --      0.7940                 0.9742                 0.5296
 IR Inten    --     67.5475                 3.7184                 1.6334

                      7                      8                      9
                     A'                     A'                     A'
 Frequencies --    901.7159               956.0781              1067.3018
 Red. masses --      5.9372                 1.5236                 5.5482
 Frc consts  --      2.8443                 0.8206                 3.7238
 IR Inten    --      9.3607                16.2686                33.8407

                     10                     11                     12
                     A'                     A'                     A'
 Frequencies --   1112.2055              1156.0319              1229.0566
 Red. masses --      1.6710                 2.8715                 1.0742
 Frc consts  --      1.2179                 2.2610                 0.9561
 IR Inten    --     19.3020                28.2431               140.1592

                     13                     14                     15
                     A'                     A'                     A"
 Frequencies --   1273.5585              1302.7638              2905.0417
 Red. masses --      2.5736                 2.1122                 1.0838
 Frc consts  --      2.4594                 2.1121                 5.3892
 IR Inten    --      0.4260                 1.0232                65.2875

                     16                     17                     18
                     A'                     A'                     A'
 Frequencies --   2916.7209              3203.4288              3217.2224
 Red. masses --      1.0611                 1.0926                 1.1042
 Frc consts  --      5.3185                 6.6063                 6.7340
 IR Inten    --    162.2351                49.4475                38.6376

 - Thermochemistry -
 -------------------
 Temperature   298.150 Kelvin.  Pressure   1.00000 Atm.
 Atom     1 has atomic number  6 and mass  12.00000

 Molecular mass:    52.03130 amu.
 Principal axes and moments of inertia in atomic units:
                           1         2         3
     Eigenvalues --   110.86680 140.63134 240.59919
           X            0.06371   0.99797   0.00000
           Y            0.99797  -0.06371   0.00000
           Z            0.00000  -0.00000   1.00000
 This molecule is an asymmetric top.
 Rotational symmetry number  1.
 Rotational temperatures (Kelvin)      0.78124     0.61589     0.35999
 Rotational constants (GHZ):          16.27846    12.83314     7.50103
 Zero-point vibrational energy     149699.6 (Joules/Mol)
                                   35.77907 (Kcal/Mol)
 Warning -- explicit consideration of   3 degrees of freedom as
           vibrations may cause significant error
 Vibrational temperatures:    393.82   538.72   767.35  1193.31  1268.97
          (Kelvin)           1286.03  1297.37  1375.58  1535.61  1600.21
                             1663.27  1768.34  1832.36  1874.38  4179.70
                             4196.51  4609.01  4628.86

 Zero-point correction=                           0.057018 (Hartree/Particle)
 Thermal correction to Energy=                    0.061231
 Thermal correction to Enthalpy=                  0.062175
 Thermal correction to Gibbs Free Energy=         0.030063
 Sum of electronic and zero-point Energies=           -154.257019
 Sum of electronic and thermal Energies=              -154.252805
 Sum of electronic and thermal Enthalpies=            -154.251861
 Sum of electronic and thermal Free Energies=         -154.283973

                     E (Thermal)             CV                S
                      KCal/Mol        Cal/Mol-Kelvin    Cal/Mol-Kelvin
 Total                   38.423             14.257             67.586
 Electronic               0.000              0.000              2.755
 Translational            0.889              2.981             37.771
 Rotational               0.889              2.981             22.844
 Vibrational             36.646              8.295              4.216
 Vibration     1          0.676              1.722              1.573
 Vibration     2          0.746              1.525              1.062
 Vibration     3          0.888              1.176              0.580

 Optimization completed.
    -- Stationary point found.
 Normal termination of Gaussian 09 at Thu Jan 31 06:18:12 2019.
