 Gaussian 09, Revision E.01,
 Gaussian 09:  EM64L-G09RevE.01 30-Nov-2015

 ------------------------------------------------------
 #p b3lyp/6-311++G(3df,2p) freq IOp(2/17=3) IOp(2/18=3)
 ------------------------------------------------------

 ---------
 b3lyp opt
 ---------
 Symbolic Z-matrix:
 Charge =  3 Multiplicity = 2

                         Standard orientation:
 ---------------------------------------------------------------------
 Center     Atomic      Atomic             Coordinates (Angstroms)
 Number     Number       Type             X           Y           Z
 ---------------------------------------------------------------------
      1          6           0        0.710131   -0.000000    0.367986
      2          1           0        1.283460   -0.000000    1.387679
      3          6           0       -1.749621    0.000000   -0.438374
      4          1           0       -2.748306    0.000000   -0.967216
      5          6           0        1.749621   -0.000000   -0.438374
      6          1           0        2.748306   -0.000000   -0.967216
      7          6           0       -0.710131    0.000000    0.367986
      8          1           0       -1.283460    0.000000    1.387679
 ---------------------------------------------------------------------

 SCF Done:  E(UB3LYP) =  -152.987899899     A.U. after   13 cycles

 The electronic state is 2-A2.
 Alpha  occ. eigenvalues --  -11.08461 -11.08458 -10.99957 -10.99916  -1.60521
 Alpha  occ. eigenvalues --   -1.54804  -1.38295  -1.27388  -1.24354  -1.22146
 Alpha  occ. eigenvalues --   -1.14623  -1.11724  -1.04643
 Alpha virt. eigenvalues --   -0.86291  -0.84458  -0.81716  -0.66306  -0.59082
 Alpha virt. eigenvalues --   -0.56709  -0.54584  -0.48634  -0.48228  -0.43708
 Alpha virt. eigenvalues --   -0.42759  -0.42053  -0.40368  -0.40057  -0.38954

  Beta  occ. eigenvalues --  -11.07650 -11.07649 -10.99874 -10.99830  -1.59166
  Beta  occ. eigenvalues --   -1.52474  -1.37322  -1.26444  -1.23782  -1.22033
  Beta  occ. eigenvalues --   -1.14268  -1.07668
  Beta virt. eigenvalues --   -0.93719  -0.85269  -0.83491  -0.76941  -0.63228
  Beta virt. eigenvalues --   -0.58825  -0.55922  -0.53855  -0.48488  -0.48038
  Beta virt. eigenvalues --   -0.43652  -0.42435  -0.41629  -0.40051  -0.39542

 Mulliken charges and spin densities:
               1          2
     1  C    0.229993   0.125869
     2  H    0.306872  -0.008989
     3  C    0.460390   0.394394
     4  H    0.502745  -0.011273
     5  C    0.460390   0.394394
     6  H    0.502745  -0.011273
     7  C    0.229993   0.125869
     8  H    0.306872  -0.008989
 Sum of Mulliken charges =   3.00000   1.00000

 Dipole moment (field-independent basis, Debye):
    X=              0.0000    Y=             -0.0000    Z=             -0.9311  Tot=              0.9311
 Quadrupole moment (field-independent basis, Debye-Ang):
   XX=             34.7271   YY=            -18.8508   ZZ=             -5.2590
   XY=             -0.0000   XZ=              0.0000   YZ=              0.0000

  Exact polarizability:  70.155  -0.000  18.356  -0.000   0.000  30.475
 Approx polarizability: 121.857  -0.000  25.442  -0.000   0.000  55.821

                      1                      2                      3
                     A1                     A2                     B1
 Frequencies --    214.4353               269.1468               310.2488
 Red. masses --      2.9096                 1.8703                 2.5435
 Frc consts  --      0.0788                 0.0798                 0.1442
 IR Inten    --     38.9506                 0.0000                 0.0070

                      4                      5                      6
                     B2                     A2                     B2
 Frequencies --    497.9690               707.4988               734.4558
 Red. masses --      1.2017                 1.2352                 1.4388
 Frc consts  --      0.1756                 0.3643                 0.4573
 IR Inten    --    184.7061                 0.0000                16.3896

                      7                      8                      9
                     A2                     A1                     A1
 Frequencies --    773.0476               797.5080               958.1865
 Red. masses --      1.7805                 2.2030                 1.6498
 Frc consts  --      0.6269                 0.8255                 0.8924
 IR Inten    --      0.0000                64.0674                 0.4960

                     10                     11                     12
                     B1                     B1                     A1
 Frequencies --    962.4540               987.9478              1031.1502
 Red. masses --      1.4787                 1.3968                 1.2856
 Frc consts  --      0.8071                 0.8033                 0.8054
 IR Inten    --      3.1679                77.3023                 0.5561

                     13                     14                     15
                     B1                     A1                     B1
 Frequencies --   1508.4878              1752.5471              2393.3689
 Red. masses --      3.5174                 5.9525                 1.0698
 Frc consts  --      4.7159                10.7718                 3.6105
 IR Inten    --    807.2932               166.8368               199.7133

                     16                     17                     18
                     A1                     B1                     A1
 Frequencies --   2428.4480              2799.6195              2815.6102
 Red. masses --      1.0807                 1.1456                 1.1447
 Frc consts  --      3.7551                 5.2904                 5.3467
 IR Inten    --    932.5013              1017.0463               166.9478

 - Thermochemistry -
 -------------------
 Temperature   298.150 Kelvin.  Pressure   1.00000 Atm.
 Atom     1 has atomic number  6 and mass  12.00000

 Molecular mass:    52.03130 amu.
 Principal axes and moments of inertia in atomic units:
                           1         2         3
     Eigenvalues --    48.62196 371.80477 420.42673
           X            1.00000  -0.00000   0.00000
           Y           -0.00000   0.00000   1.00000
           Z            0.00000   1.00000  -0.00000
 This molecule is an asymmetric top.
 Rotational symmetry number  2.
 Rotational temperatures (Kelvin)      1.78137     0.23296     0.20601
 Rotational constants (GHZ):          37.11782     4.85400     4.29264
 Zero-point vibrational energy     131243.1 (Joules/Mol)
                                   31.36785 (Kcal/Mol)
 Warning -- explicit consideration of   4 degrees of freedom as
           vibrations may cause significant error
 Vibrational temperatures:    308.52   387.24   446.38   716.47  1017.93
          (Kelvin)           1056.72  1112.24  1147.43  1378.61  1384.75
                             1421.43  1483.59  2170.37  2521.52  3443.52
                             3493.99  4028.02  4051.03

 Zero-point correction=                           0.049988 (Hartree/Particle)
 Thermal correction to Energy=                    0.054991
 Thermal correction to Enthalpy=                  0.055935
 Thermal correction to Gibbs Free Energy=         0.023451
 Sum of electronic and zero-point Energies=           -152.937912
 Sum of electronic and thermal Energies=              -152.932909
 Sum of electronic and thermal Enthalpies=            -152.931965
 Sum of electronic and thermal Free Energies=         -152.964449

                     E (Thermal)             CV                S
                      KCal/Mol        Cal/Mol-Kelvin    Cal/Mol-Kelvin
 Total                   34.507             17.039             68.368
 Electronic               0.000              0.000              1.377
 Translational            0.889              2.981             37.771
 Rotational               0.889              2.981             22.168
 Vibrational             32.730             11.077              7.052
 Vibration     1          0.644              1.819              2.006
 Vibration     2          0.674              1.730              1.602
 Vibration     3          0.699              1.654              1.361
 Vibration     4          0.853              1.255              0.663

 Optimization completed.
    -- Stationary point found.
 Normal termination of Gaussian 09 at Thu Jan 31 06:23:59 2019.
