 Gaussian 09, Revision E.01,
 Gaussian 09:  EM64L-G09RevE.01 30-Nov-2015

 ---------------------------------------------
 #p b3lyp/6-311++G(3df,2p) freq symmetry=Loose
 ---------------------------------------------

 ---------
 b3lyp opt
 ---------
 Symbolic Z-matrix:
 Charge =  0 Multiplicity = 3

                         Standard orientation:
 ---------------------------------------------------------------------
 Center     Atomic      Atomic             Coordinates (Angstroms)
 Number     Number       Type             X           Y           Z
 ---------------------------------------------------------------------
      1          6           0       -0.076138   -0.000061    0.480074
      2          1           0       -0.101463   -0.000767    1.569171
      3          6           0       -1.410976    0.000147   -0.197978
      4          1           0       -1.992370   -0.879018    0.095509
      5          1           0       -1.992216    0.879269    0.095127
      6          1           0       -1.304289   -0.000207   -1.281561
      7          6           0        1.192625   -0.643703   -0.181114
      8          6           0        1.192879    0.643738   -0.180690
 ---------------------------------------------------------------------

 SCF Done:  E(UB3LYP) =  -154.616604199     A.U. after   17 cycles

 The electronic state is 3-A.
 Alpha  occ. eigenvalues --  -10.24124 -10.23661 -10.23542 -10.17741  -0.90450
 Alpha  occ. eigenvalues --   -0.74646  -0.59402  -0.49422  -0.47307  -0.42446
 Alpha  occ. eigenvalues --   -0.41619  -0.38993  -0.33575  -0.28794  -0.24669
 Alpha virt. eigenvalues --   -0.01491  -0.00589   0.01354   0.02721   0.03379
 Alpha virt. eigenvalues --    0.05138   0.05609   0.06197   0.07670   0.08699
 Alpha virt. eigenvalues --    0.10870   0.10883   0.11200   0.12287   0.12431

  Beta  occ. eigenvalues --  -10.23380 -10.22197 -10.22095 -10.17779  -0.87883
  Beta  occ. eigenvalues --   -0.73843  -0.57514  -0.46363  -0.44471  -0.41261
  Beta  occ. eigenvalues --   -0.37693  -0.37193  -0.27403
  Beta virt. eigenvalues --   -0.17914  -0.11634  -0.00442   0.00702   0.01430
  Beta virt. eigenvalues --    0.02895   0.03741   0.05472   0.06168   0.06453
  Beta virt. eigenvalues --    0.07822   0.09599   0.10985   0.11316   0.12112

 Mulliken charges and spin densities:
               1          2
     1  C    0.078399   0.316516
     2  H    0.158186  -0.017666
     3  C   -0.513283  -0.002440
     4  H    0.137760   0.025728
     5  H    0.137873   0.025725
     6  H    0.150575  -0.003247
     7  C   -0.074890   0.827732
     8  C   -0.074619   0.827651
 Sum of Mulliken charges =  -0.00000   2.00000

 Dipole moment (field-independent basis, Debye):
    X=             -1.7123    Y=             -0.0003    Z=              0.7547  Tot=              1.8713
 Quadrupole moment (field-independent basis, Debye-Ang):
   XX=            -25.9464   YY=            -25.4922   ZZ=            -24.5461
   XY=             -0.0002   XZ=              0.3818   YZ=             -0.0006

  Exact polarizability:  59.145  -0.001  46.110   3.306  -0.009  54.992
 Approx polarizability:  74.405   0.009  86.710  -6.557   0.006  60.383

                      1                      2                      3
                      A                      A                      A
 Frequencies --    152.1980               297.3931               418.3772
 Red. masses --      1.1333                 4.3405                 3.1854
 Frc consts  --      0.0155                 0.2262                 0.3285
 IR Inten    --      0.0076                 0.0151                 3.9613

                      4                      5                      6
                      A                      A                      A
 Frequencies --    620.1326               770.8793               828.0527
 Red. masses --      7.3126                 3.7166                 1.1460
 Frc consts  --      1.6569                 1.3013                 0.4630
 IR Inten    --      7.9231                 8.3866                35.3763

                      7                      8                      9
                      A                      A                      A
 Frequencies --   1029.6512              1042.1041              1095.2599
 Red. masses --      1.5935                 1.5163                 3.3194
 Frc consts  --      0.9954                 0.9702                 2.3461
 IR Inten    --     57.4357                15.6639                11.8505

                     10                     11                     12
                      A                      A                      A
 Frequencies --   1360.2580              1404.8006              1477.0852
 Red. masses --      1.2450                 1.2471                 1.0458
 Frc consts  --      1.3572                 1.4500                 1.3444
 IR Inten    --     33.4543                 6.9108                 6.9743

                     13                     14                     15
                      A                      A                      A
 Frequencies --   1480.6902              1712.4167              3004.0048
 Red. masses --      1.0505                11.2215                 1.0380
 Frc consts  --      1.3570                19.3875                 5.5187
 IR Inten    --     14.1125                58.1810                11.1360

                     16                     17                     18
                      A                      A                      A
 Frequencies --   3049.1678              3054.8518              3105.7057
 Red. masses --      1.0987                 1.0803                 1.0991
 Frc consts  --      6.0184                 5.9400                 6.2460
 IR Inten    --     14.4340                13.0740                 5.5700

 - Thermochemistry -
 -------------------
 Temperature   298.150 Kelvin.  Pressure   1.00000 Atm.
 Atom     1 has atomic number  6 and mass  12.00000

 Molecular mass:    52.03130 amu.
 Principal axes and moments of inertia in atomic units:
                           1         2         3
     Eigenvalues --    70.19135 269.44222 281.40614
           X            0.99983   0.00001   0.01818
           Y           -0.00000   1.00000  -0.00037
           Z           -0.01818   0.00037   0.99983
 This molecule is an asymmetric top.
 Rotational symmetry number  1.
 Rotational temperatures (Kelvin)      1.23397     0.32146     0.30779
 Rotational constants (GHZ):          25.71173     6.69806     6.41330
 Zero-point vibrational energy     154934.5 (Joules/Mol)
                                   37.03024 (Kcal/Mol)
 Warning -- explicit consideration of   4 degrees of freedom as
           vibrations may cause significant error
 Vibrational temperatures:    218.98   427.88   601.95   892.23  1109.12
          (Kelvin)           1191.38  1481.44  1499.35  1575.83  1957.11
                             2021.19  2125.19  2130.38  2463.78  4322.09
                             4387.07  4395.24  4468.41

 Zero-point correction=                           0.059011 (Hartree/Particle)
 Thermal correction to Energy=                    0.063624
 Thermal correction to Enthalpy=                  0.064568
 Thermal correction to Gibbs Free Energy=         0.031667
 Sum of electronic and zero-point Energies=           -154.557593
 Sum of electronic and thermal Energies=              -154.552980
 Sum of electronic and thermal Enthalpies=            -154.552036
 Sum of electronic and thermal Free Energies=         -154.584938

                     E (Thermal)             CV                S
                      KCal/Mol        Cal/Mol-Kelvin    Cal/Mol-Kelvin
 Total                   39.925             14.651             69.248
 Electronic               0.000              0.000              2.183
 Translational            0.889              2.981             37.771
 Rotational               0.889              2.981             23.191
 Vibrational             38.147              8.689              6.103
 Vibration     1          0.619              1.900              2.645
 Vibration     2          0.691              1.679              1.432
 Vibration     3          0.781              1.430              0.898
 Vibration     4          0.980              0.989              0.416

 Optimization completed.
    -- Stationary point found.
 Normal termination of Gaussian 09 at Tue Jun 21 21:54:13 2016.
