 Gaussian 09, Revision E.01,
 Gaussian 09:  EM64L-G09RevE.01 30-Nov-2015

 ---------------------------------------------
 #p b3lyp/6-311++G(3df,2p) freq symmetry=Loose
 ---------------------------------------------

 ---------
 b3lyp opt
 ---------
 Symbolic Z-matrix:
 Charge =  3 Multiplicity = 4

                         Standard orientation:
 ---------------------------------------------------------------------
 Center     Atomic      Atomic             Coordinates (Angstroms)
 Number     Number       Type             X           Y           Z
 ---------------------------------------------------------------------
      1          6           0        0.573957    0.450056    0.000290
      2          6           0       -2.020589   -0.187120    0.000529
      3          1           0        0.708077    1.591058    0.001582
      4          6           0       -0.740482    0.048231   -0.001272
      5          1           0       -3.124450   -0.393393    0.000738
      6          6           0        1.732921   -0.277890   -0.000136
      7          1           0        2.199875   -1.401954    0.001620
      8          1           0        2.941657    0.004629   -0.000408
 ---------------------------------------------------------------------

 SCF Done:  E(UB3LYP) =  -152.919568537     A.U. after   15 cycles

 The electronic state is 4-A.
 Alpha  occ. eigenvalues --  -11.04573 -11.03932 -11.02857 -10.98676  -1.59305
 Alpha  occ. eigenvalues --   -1.53414  -1.41134  -1.28728  -1.22942  -1.21834
 Alpha  occ. eigenvalues --   -1.10682  -1.10574  -1.06171  -1.02463
 Alpha virt. eigenvalues --   -0.81408  -0.75583  -0.64864  -0.62261  -0.59678
 Alpha virt. eigenvalues --   -0.55308  -0.51067  -0.46909  -0.44204  -0.43244
 Alpha virt. eigenvalues --   -0.42043  -0.40251  -0.39524  -0.38280  -0.36962

  Beta  occ. eigenvalues --  -11.03075 -11.02103 -11.01860 -10.98685  -1.55861
  Beta  occ. eigenvalues --   -1.47728  -1.36675  -1.25088  -1.21238  -1.17814
  Beta  occ. eigenvalues --   -1.06493
  Beta virt. eigenvalues --   -0.95021  -0.91672  -0.90635  -0.75489  -0.68365
  Beta virt. eigenvalues --   -0.61261  -0.57001  -0.55922  -0.52634  -0.49767
  Beta virt. eigenvalues --   -0.45756  -0.43288  -0.42199  -0.41429  -0.38769

 Mulliken charges and spin densities:
               1          2
     1  C    0.478576   0.057491
     2  C    0.571572   0.762362
     3  H    0.323917   0.084673
     4  C    0.298713   0.657726
     5  H    0.511680  -0.023690
     6  C   -0.029864   1.059995
     7  H    0.416981   0.186762
     8  H    0.428426   0.214680
 Sum of Mulliken charges =   3.00000   3.00000

 Dipole moment (field-independent basis, Debye):
    X=              2.5112    Y=             -1.3996    Z=              0.0043  Tot=              2.8749
 Quadrupole moment (field-independent basis, Debye-Ang):
   XX=             46.4031   YY=             -8.5099   ZZ=            -18.9245
   XY=             -1.7962   XZ=             -0.0001   YZ=             -0.0009

  Exact polarizability:  80.312   0.248  28.045  -0.004   0.000  18.617
 Approx polarizability: 138.518   2.068  43.280  -0.021   0.004  25.621

                      1                      2                      3
                      A                      A                      A
 Frequencies --    224.0658               272.6378               404.7031
 Red. masses --      2.6938                 1.9976                 1.3266
 Frc consts  --      0.0797                 0.0875                 0.1280
 IR Inten    --     40.6080                47.7823                 3.6672

                      4                      5                      6
                      A                      A                      A
 Frequencies --    471.8063               591.3098               606.3163
 Red. masses --      2.0152                 2.3160                 1.2872
 Frc consts  --      0.2643                 0.4771                 0.2788
 IR Inten    --     33.6637                98.6242               171.3640

                      7                      8                      9
                      A                      A                      A
 Frequencies --    705.8346               734.0380               748.9342
 Red. masses --      1.3692                 1.4226                 1.7861
 Frc consts  --      0.4019                 0.4516                 0.5903
 IR Inten    --     17.6773                 9.3721                20.3567

                     10                     11                     12
                      A                      A                      A
 Frequencies --    900.0189              1036.4905              1128.2679
 Red. masses --      3.6479                 1.1651                 1.2047
 Frc consts  --      1.7410                 0.7375                 0.9035
 IR Inten    --     21.8811               123.1303                57.1968

                     13                     14                     15
                      A                      A                      A
 Frequencies --   1360.7278              1539.4757              1823.3877
 Red. masses --      3.6315                 1.0382                 6.4065
 Frc consts  --      3.9617                 1.4497                12.5497
 IR Inten    --    484.5724               737.9787               171.5844

                     16                     17                     18
                      A                      A                      A
 Frequencies --   2288.0424              2512.3968              2877.2695
 Red. masses --      1.1972                 1.0789                 1.1638
 Frc consts  --      3.6927                 4.0125                 5.6767
 IR Inten    --   1013.1476               537.1435               632.8386

 - Thermochemistry -
 -------------------
 Temperature   298.150 Kelvin.  Pressure   1.00000 Atm.
 Atom     1 has atomic number  6 and mass  12.00000

 Molecular mass:    52.03130 amu.
 Principal axes and moments of inertia in atomic units:
                           1         2         3
     Eigenvalues --    30.31152 426.27399 456.58530
           X            0.99998  -0.00649   0.00001
           Y            0.00649   0.99998  -0.00001
           Z           -0.00001   0.00001   1.00000
 This molecule is an asymmetric top.
 Rotational symmetry number  1.
 Rotational temperatures (Kelvin)      2.85746     0.20319     0.18970
 Rotational constants (GHZ):          59.53978     4.23376     3.95269
 Zero-point vibrational energy     120976.7 (Joules/Mol)
                                   28.91412 (Kcal/Mol)
 Warning -- explicit consideration of   6 degrees of freedom as
           vibrations may cause significant error
 Vibrational temperatures:    322.38   392.26   582.28   678.82   850.76
          (Kelvin)            872.35  1015.54  1056.12  1077.55  1294.92
                             1491.28  1623.32  1957.78  2214.96  2623.44
                             3291.98  3614.77  4139.74

 Zero-point correction=                           0.046078 (Hartree/Particle)
 Thermal correction to Energy=                    0.051189
 Thermal correction to Enthalpy=                  0.052133
 Thermal correction to Gibbs Free Energy=         0.018381
 Sum of electronic and zero-point Energies=           -152.873491
 Sum of electronic and thermal Energies=              -152.868380
 Sum of electronic and thermal Enthalpies=            -152.867436
 Sum of electronic and thermal Free Energies=         -152.901188

                     E (Thermal)             CV                S
                      KCal/Mol        Cal/Mol-Kelvin    Cal/Mol-Kelvin
 Total                   32.121             17.964             71.037
 Electronic               0.000              0.000              2.755
 Translational            0.889              2.981             37.771
 Rotational               0.889              2.981             23.294
 Vibrational             30.344             12.002              7.218
 Vibration     1          0.649              1.804              1.926
 Vibration     2          0.676              1.724              1.579
 Vibration     3          0.770              1.460              0.946
 Vibration     4          0.829              1.313              0.733
 Vibration     5          0.949              1.050              0.465
 Vibration     6          0.965              1.018              0.439

 Normal termination of Gaussian 09 at Wed Jun 22 00:58:06 2016.
