 Gaussian 09, Revision E.01,
 Gaussian 09:  EM64L-G09RevE.01 30-Nov-2015

 ---------------------------------------------
 #p b3lyp/6-311++G(3df,2p) freq symmetry=Loose
 ---------------------------------------------

 ---------
 b3lyp opt
 ---------
 Symbolic Z-matrix:
 Charge =  3 Multiplicity = 2

                         Standard orientation:
 ---------------------------------------------------------------------
 Center     Atomic      Atomic             Coordinates (Angstroms)
 Number     Number       Type             X           Y           Z
 ---------------------------------------------------------------------
      1          6           0        0.000000    0.101329    0.000000
      2          6           0       -0.003109    1.653686    0.000000
      3          1           0       -0.987119    2.176442    0.000000
      4          1           0        0.978522    2.180952    0.000000
      5          6           0       -0.862754   -0.941291    0.000000
      6          6           0        0.866072   -0.938638    0.000000
      7          1           0        1.601004   -1.800908    0.000000
      8          1           0       -1.593658   -1.806998    0.000000
 ---------------------------------------------------------------------

 SCF Done:  E(UB3LYP) =  -152.960152945     A.U. after   13 cycles

 The electronic state is 2-A'.
 Alpha  occ. eigenvalues --  -11.09973 -11.09966 -11.05685 -11.03794  -1.70997
 Alpha  occ. eigenvalues --   -1.47515  -1.39213  -1.31125  -1.23178  -1.23039
 Alpha  occ. eigenvalues --   -1.15324  -1.15316  -1.09089
 Alpha virt. eigenvalues --   -0.89426  -0.85868  -0.74144  -0.71158  -0.61937
 Alpha virt. eigenvalues --   -0.58462  -0.56641  -0.51269  -0.48890  -0.47116
 Alpha virt. eigenvalues --   -0.44407  -0.43562  -0.43242  -0.38592  -0.38171

  Beta  occ. eigenvalues --  -11.09132 -11.09130 -11.05467 -11.03917  -1.69150
  Beta  occ. eigenvalues --   -1.46331  -1.36256  -1.29808  -1.22400  -1.21725
  Beta  occ. eigenvalues --   -1.14908  -1.14861
  Beta virt. eigenvalues --   -0.96262  -0.88991  -0.84555  -0.71001  -0.68037
  Beta virt. eigenvalues --   -0.60449  -0.57706  -0.55938  -0.51002  -0.48701
  Beta virt. eigenvalues --   -0.46821  -0.43813  -0.43490  -0.42647  -0.38411

 Mulliken charges and spin densities:
               1          2
     1  C    0.493286  -0.060960
     2  C    0.117514   0.142886
     3  H    0.366489   0.007184
     4  H    0.366580   0.007174
     5  C    0.333322   0.461499
     6  C    0.333953   0.461787
     7  H    0.494443  -0.009776
     8  H    0.494412  -0.009794
 Sum of Mulliken charges =   3.00000   1.00000

 Dipole moment (field-independent basis, Debye):
    X=              0.0012    Y=             -0.5452    Z=              0.0000  Tot=              0.5452
 Quadrupole moment (field-independent basis, Debye-Ang):
   XX=             -0.9909   YY=             18.6090   ZZ=            -17.3479
   XY=             -0.0388   XZ=              0.0000   YZ=              0.0000

  Exact polarizability:  33.051  -0.019  41.942  -0.000   0.000  17.749
 Approx polarizability:  59.243  -0.013  62.333  -0.000  -0.000  26.569

                      1                      2                      3
                     A"                     A'                     A"
 Frequencies --     30.5718               345.8479               361.4415
 Red. masses --      1.0495                 2.4411                 3.1290
 Frc consts  --      0.0006                 0.1720                 0.2408
 IR Inten    --      0.0000                18.8933                71.4513

                      4                      5                      6
                     A'                     A'                     A'
 Frequencies --    392.6194               703.2443               761.2280
 Red. masses --      4.6950                 1.4139                 1.3643
 Frc consts  --      0.4264                 0.4120                 0.4658
 IR Inten    --     52.0970               153.1618                26.6990

                      7                      8                      9
                     A'                     A"                     A"
 Frequencies --    785.9494               836.5490               894.0420
 Red. masses --      3.1086                 1.3864                 1.2918
 Frc consts  --      1.1314                 0.5716                 0.6084
 IR Inten    --      0.3068                41.2652                 0.0001

                     10                     11                     12
                     A'                     A'                     A"
 Frequencies --    964.7654              1118.9749              1175.5611
 Red. masses --      1.3599                 5.2531                 1.3376
 Frc consts  --      0.7458                 3.8753                 1.0891
 IR Inten    --      7.5098                85.8219                 8.7468

                     13                     14                     15
                     A'                     A'                     A'
 Frequencies --   1354.8620              1537.6578              2736.0452
 Red. masses --      1.1469                 4.9795                 1.1166
 Frc consts  --      1.2404                 6.9367                 4.9247
 IR Inten    --      6.2661               248.3035               649.7169

                     16                     17                     18
                     A'                     A'                     A'
 Frequencies --   2779.2083              2854.6039              2986.0042
 Red. masses --      1.1375                 1.0474                 1.1370
 Frc consts  --      5.1766                 5.0287                 5.9728
 IR Inten    --    672.4974               165.8702               249.6359

 - Thermochemistry -
 -------------------
 Temperature   298.150 Kelvin.  Pressure   1.00000 Atm.
 Atom     1 has atomic number  6 and mass  12.00000

 Molecular mass:    52.03130 amu.
 Principal axes and moments of inertia in atomic units:
                           1         2         3
     Eigenvalues --    89.35856 250.90634 340.26490
           X           -0.00198   1.00000   0.00000
           Y            1.00000   0.00198   0.00000
           Z           -0.00000   0.00000   1.00000
 This molecule is an asymmetric top.
 Rotational symmetry number  1.
 Rotational temperatures (Kelvin)      0.96928     0.34520     0.25455
 Rotational constants (GHZ):          20.19662     7.19289     5.30393
 Zero-point vibrational energy     135292.7 (Joules/Mol)
                                   32.33574 (Kcal/Mol)
 Warning -- explicit consideration of   4 degrees of freedom as
           vibrations may cause significant error
 Vibrational temperatures:     43.99   497.60   520.03   564.89  1011.81
          (Kelvin)           1095.24  1130.80  1203.61  1286.33  1388.08
                             1609.95  1691.37  1949.34  2212.34  3936.55
                             3998.66  4107.13  4296.19

 Zero-point correction=                           0.051530 (Hartree/Particle)
 Thermal correction to Energy=                    0.056775
 Thermal correction to Enthalpy=                  0.057720
 Thermal correction to Gibbs Free Energy=         0.022983
 Sum of electronic and zero-point Energies=           -152.908623
 Sum of electronic and thermal Energies=              -152.903378
 Sum of electronic and thermal Enthalpies=            -152.902433
 Sum of electronic and thermal Free Energies=         -152.937169

                     E (Thermal)             CV                S
                      KCal/Mol        Cal/Mol-Kelvin    Cal/Mol-Kelvin
 Total                   35.627             16.975             73.108
 Electronic               0.000              0.000              1.377
 Translational            0.889              2.981             37.771
 Rotational               0.889              2.981             23.549
 Vibrational             33.850             11.013             10.411
 Vibration     1          0.594              1.984              5.792
 Vibration     2          0.724              1.584              1.185
 Vibration     3          0.736              1.552              1.116
 Vibration     4          0.760              1.486              0.990

 Optimization completed.
    -- Stationary point found.
 Normal termination of Gaussian 09 at Wed Jun 22 00:16:24 2016.
