 Gaussian 09, Revision E.01,
 Gaussian 09:  EM64L-G09RevE.01 30-Nov-2015

 ---------------------------------------------
 #p b3lyp/6-311++G(3df,2p) freq symmetry=Loose
 ---------------------------------------------

 ---------
 b3lyp opt
 ---------
 Symbolic Z-matrix:
 Charge =  1 Multiplicity = 2

                         Standard orientation:
 ---------------------------------------------------------------------
 Center     Atomic      Atomic             Coordinates (Angstroms)
 Number     Number       Type             X           Y           Z
 ---------------------------------------------------------------------
      1          6           0        0.970034   -0.537137    0.063196
      2          1           0        1.510020   -0.937931   -0.794577
      3          1           0        1.256036   -0.968132    1.019703
      4          6           0        0.531423    0.872551    0.000858
      5          1           0        0.367278    1.428236    0.914366
      6          1           0        0.595085    1.420604   -0.931359
      7          6           0       -0.468229   -0.461258   -0.170458
      8          6           0       -1.654631   -0.031286    0.071715
 ---------------------------------------------------------------------

 SCF Done:  E(UB3LYP) =  -154.338807910     A.U. after   20 cycles

 The electronic state is 2-A.
 Alpha  occ. eigenvalues --  -10.53301 -10.51133 -10.49451 -10.47147  -1.16806
 Alpha  occ. eigenvalues --   -1.01520  -0.88605  -0.77714  -0.76175  -0.66697
 Alpha  occ. eigenvalues --   -0.64494  -0.60778  -0.59800  -0.57026
 Alpha virt. eigenvalues --   -0.33179  -0.27876  -0.18718  -0.16721  -0.14327
 Alpha virt. eigenvalues --   -0.13415  -0.12017  -0.09443  -0.08333  -0.08096
 Alpha virt. eigenvalues --   -0.06631  -0.06429  -0.04198  -0.03130  -0.02913

  Beta  occ. eigenvalues --  -10.52132 -10.50511 -10.49496 -10.47139  -1.15766
  Beta  occ. eigenvalues --   -0.98965  -0.88480  -0.77090  -0.75328  -0.66061
  Beta  occ. eigenvalues --   -0.64108  -0.59129  -0.55782
  Beta virt. eigenvalues --   -0.45029  -0.31967  -0.24178  -0.18132  -0.16557
  Beta virt. eigenvalues --   -0.14279  -0.13161  -0.11783  -0.09127  -0.08249
  Beta virt. eigenvalues --   -0.07815  -0.06306  -0.06199  -0.04167  -0.03057

 Mulliken charges and spin densities:
               1          2
     1  C   -0.107448  -0.008478
     2  H    0.233211   0.026583
     3  H    0.250935   0.010991
     4  C   -0.299870  -0.050156
     5  H    0.249916   0.004765
     6  H    0.243283   0.008966
     7  C    0.389595   0.382585
     8  C    0.040378   0.624745
 Sum of Mulliken charges =   1.00000   1.00000

 Dipole moment (field-independent basis, Debye):
    X=              1.5311    Y=              0.3524    Z=             -0.4506  Tot=              1.6345
 Quadrupole moment (field-independent basis, Debye-Ang):
   XX=            -16.5814   YY=            -17.3599   ZZ=            -19.2661
   XY=             -0.3352   XZ=              0.8958   YZ=             -0.1955

  Exact polarizability:  64.969  -4.189  37.357  -2.907   0.919  29.189
 Approx polarizability: 106.985  -2.290  56.896  -8.836   3.342  43.886

                      1                      2                      3
                      A                      A                      A
 Frequencies --     74.2591               310.5164               484.9950
 Red. masses --      7.1507                 3.7609                 7.9670
 Frc consts  --      0.0232                 0.2137                 1.1041
 IR Inten    --      0.6435                 8.1504                45.2046

                      4                      5                      6
                      A                      A                      A
 Frequencies --    758.1816               777.8018               908.6043
 Red. masses --      1.0664                 4.6581                 1.1138
 Frc consts  --      0.3612                 1.6604                 0.5418
 IR Inten    --     13.4734                22.2064                 6.7616

                      7                      8                      9
                      A                      A                      A
 Frequencies --    977.1308              1064.8348              1087.9371
 Red. masses --      1.4412                 2.1345                 1.3350
 Frc consts  --      0.8108                 1.4260                 0.9310
 IR Inten    --     59.0055                80.7515                75.8663

                     10                     11                     12
                      A                      A                      A
 Frequencies --   1142.4162              1194.3252              1329.9603
 Red. masses --      1.3357                 1.2905                 6.1841
 Frc consts  --      1.0271                 1.0846                 6.4448
 IR Inten    --     37.7670                 1.0970               413.0824

                     13                     14                     15
                      A                      A                      A
 Frequencies --   1435.3015              1471.7090              3064.7463
 Red. masses --      1.1671                 1.1521                 1.0546
 Frc consts  --      1.4166                 1.4702                 5.8360
 IR Inten    --     11.2284                 3.5423                94.7052

                     16                     17                     18
                      A                      A                      A
 Frequencies --   3129.8944              3150.4602              3248.7676
 Red. masses --      1.0515                 1.1132                 1.1237
 Frc consts  --      6.0692                 6.5100                 6.9880
 IR Inten    --     24.9178                31.9805                29.2463

 - Thermochemistry -
 -------------------
 Temperature   298.150 Kelvin.  Pressure   1.00000 Atm.
 Atom     1 has atomic number  6 and mass  12.00000

 Molecular mass:    52.03130 amu.
 Principal axes and moments of inertia in atomic units:
                           1         2         3
     Eigenvalues --    88.85964 207.76482 269.09437
           X            0.99936  -0.03569  -0.00207
           Y            0.03566   0.99926  -0.01458
           Z            0.00259   0.01449   0.99989
 This molecule is an asymmetric top.
 Rotational symmetry number  1.
 Rotational temperatures (Kelvin)      0.97473     0.41688     0.32187
 Rotational constants (GHZ):          20.31002     8.68646     6.70672
 Zero-point vibrational energy     153192.8 (Joules/Mol)
                                   36.61397 (Kcal/Mol)
 Warning -- explicit consideration of   3 degrees of freedom as
           vibrations may cause significant error
 Vibrational temperatures:    106.84   446.76   697.80  1090.85  1119.08
          (Kelvin)           1307.28  1405.87  1532.06  1565.30  1643.68
                             1718.37  1913.51  2065.08  2117.46  4409.48
                             4503.21  4532.80  4674.25

 Zero-point correction=                           0.058348 (Hartree/Particle)
 Thermal correction to Energy=                    0.062992
 Thermal correction to Enthalpy=                  0.063936
 Thermal correction to Gibbs Free Energy=         0.030982
 Sum of electronic and zero-point Energies=           -154.280460
 Sum of electronic and thermal Energies=              -154.275816
 Sum of electronic and thermal Enthalpies=            -154.274872
 Sum of electronic and thermal Free Energies=         -154.307825

                     E (Thermal)             CV                S
                      KCal/Mol        Cal/Mol-Kelvin    Cal/Mol-Kelvin
 Total                   39.528             14.533             69.357
 Electronic               0.000              0.000              1.377
 Translational            0.889              2.981             37.771
 Rotational               0.889              2.981             23.123
 Vibrational             37.751              8.572              7.086
 Vibration     1          0.599              1.966              4.037
 Vibration     2          0.699              1.654              1.360
 Vibration     3          0.841              1.283              0.697

 Normal termination of Gaussian 09 at Tue Jun 21 22:07:31 2016.
