 Gaussian 09, Revision E.01,
 Gaussian 09:  EM64L-G09RevE.01 30-Nov-2015

 ---------------------------------------------
 #p b3lyp/6-311++G(3df,2p) freq symmetry=Loose
 ---------------------------------------------

 ---------
 b3lyp opt
 ---------
 Symbolic Z-matrix:
 Charge =  1 Multiplicity = 4

                         Standard orientation:
 ---------------------------------------------------------------------
 Center     Atomic      Atomic             Coordinates (Angstroms)
 Number     Number       Type             X           Y           Z
 ---------------------------------------------------------------------
      1          6           0        0.000000    0.000000   -0.639314
      2          6           0       -0.000000    0.000000    0.639314
      3          6           0       -0.000000   -0.000000    2.009897
      4          6           0        0.000000   -0.000000   -2.009897
      5          1           0       -0.410685    0.839654   -2.567493
      6          1           0        0.410685   -0.839654   -2.567493
      7          1           0       -0.410685   -0.839654    2.567493
      8          1           0        0.410685    0.839654    2.567493
 ---------------------------------------------------------------------

 SCF Done:  E(UB3LYP) =  -154.350382929     A.U. after   12 cycles

 The electronic state is 4-B3.
 Alpha  occ. eigenvalues --  -10.50155 -10.50026 -10.44858 -10.44855  -1.09370
 Alpha  occ. eigenvalues --   -1.01348  -0.93888  -0.75394  -0.72362  -0.70776
 Alpha  occ. eigenvalues --   -0.69082  -0.62039  -0.58925  -0.49594  -0.42976
 Alpha virt. eigenvalues --   -0.24129  -0.17708  -0.16332  -0.14059  -0.11152
 Alpha virt. eigenvalues --   -0.10095  -0.09599  -0.07621  -0.06023  -0.06008
 Alpha virt. eigenvalues --   -0.04623  -0.04467  -0.04164  -0.03444  -0.01678

  Beta  occ. eigenvalues --  -10.49116 -10.48993 -10.43720 -10.43717  -1.04573
  Beta  occ. eigenvalues --   -0.97423  -0.90219  -0.72926  -0.70540  -0.67333
  Beta  occ. eigenvalues --   -0.66557  -0.56884
  Beta virt. eigenvalues --   -0.45952  -0.36578  -0.29486  -0.17866  -0.15844
  Beta virt. eigenvalues --   -0.13107  -0.12857  -0.10887  -0.09713  -0.09261
  Beta virt. eigenvalues --   -0.06810  -0.05870  -0.04298  -0.04067  -0.03328

 Mulliken charges and spin densities:
               1          2
     1  C    0.439142   0.683722
     2  C    0.439142   0.683722
     3  C   -0.437309   0.768963
     4  C   -0.437309   0.768963
     5  H    0.249084   0.023657
     6  H    0.249084   0.023657
     7  H    0.249084   0.023657
     8  H    0.249084   0.023657
 Sum of Mulliken charges =   1.00000   3.00000

 Dipole moment (field-independent basis, Debye):
    X=             -0.0000    Y=             -0.0000    Z=              0.0000  Tot=              0.0000
 Quadrupole moment (field-independent basis, Debye-Ang):
   XX=            -22.8767   YY=            -19.1761   ZZ=              0.3728
   XY=              0.0000   XZ=             -0.0000   YZ=              0.0000

  Exact polarizability:  26.926   0.000  28.837  -0.000   0.000  90.833
 Approx polarizability:  36.540   0.000  40.233  -0.000  -0.000 147.120

                      1                      2                      3
                     B2                     B3                     B2
 Frequencies --    115.5734               186.6049               362.6829
 Red. masses --      3.1956                 3.3006                 4.4599
 Frc consts  --      0.0251                 0.0677                 0.3456
 IR Inten    --      3.3785                 9.4770                 1.1984

                      4                      5                      6
                     B3                      A                     B2
 Frequencies --    405.2002               525.3911               653.6411
 Red. masses --      3.7711                 1.0118                 1.4221
 Frc consts  --      0.3648                 0.1646                 0.3580
 IR Inten    --      0.3230                 0.0000                34.5688

                      7                      8                      9
                     B3                      A                     B2
 Frequencies --    662.2344               810.5785               891.5873
 Red. masses --      1.3979                 4.5617                 1.3325
 Frc consts  --      0.3612                 1.7659                 0.6241
 IR Inten    --     68.5033                 0.0000                 0.5942

                     10                     11                     12
                     B3                     B1                     B1
 Frequencies --    915.2813               981.8295              1352.9261
 Red. masses --      1.4365                 9.4840                 1.0730
 Frc consts  --      0.7090                 5.3866                 1.1571
 IR Inten    --      2.3099                 0.0129                60.7355

                     13                     14                     15
                      A                      A                     B1
 Frequencies --   1361.3581              1967.0108              3055.3750
 Red. masses --      1.1227                11.0141                 1.0417
 Frc consts  --      1.2259                25.1079                 5.7297
 IR Inten    --      0.0000                 0.0000               227.7041

                     16                     17                     18
                      A                     B2                     B3
 Frequencies --   3067.5800              3159.2669              3159.9245
 Red. masses --      1.0478                 1.1145                 1.1149
 Frc consts  --      5.8095                 6.5538                 6.5588
 IR Inten    --      0.0000                89.2671                22.7235

 - Thermochemistry -
 -------------------
 Temperature   298.150 Kelvin.  Pressure   1.00000 Atm.
 Atom     1 has atomic number  6 and mass  12.00000

 Molecular mass:    52.03130 amu.
 Principal axes and moments of inertia in atomic units:
                           1         2         3
     Eigenvalues --    12.57755 478.58013 486.30153
           X           -0.00000  -0.00000   1.00000
           Y            0.00000   1.00000   0.00000
           Z            1.00000  -0.00000   0.00000
 This molecule is an asymmetric top.
 Rotational symmetry number  4.
 Rotational temperatures (Kelvin)      6.88638     0.18098     0.17811
 Rotational constants (GHZ):         143.48912     3.77103     3.71116
 Zero-point vibrational energy     141363.0 (Joules/Mol)
                                   33.78656 (Kcal/Mol)
 Warning -- explicit consideration of   5 degrees of freedom as
           vibrations may cause significant error
 Vibrational temperatures:    166.28   268.48   521.82   582.99   755.92
          (Kelvin)            940.44   952.81  1166.24  1282.79  1316.88
                             1412.63  1946.56  1958.69  2830.09  4396.00
                             4413.56  4545.47  4546.42

 Zero-point correction=                           0.053842 (Hartree/Particle)
 Thermal correction to Energy=                    0.059322
 Thermal correction to Enthalpy=                  0.060266
 Thermal correction to Gibbs Free Energy=         0.027104
 Sum of electronic and zero-point Energies=           -154.296541
 Sum of electronic and thermal Energies=              -154.291061
 Sum of electronic and thermal Enthalpies=            -154.290117
 Sum of electronic and thermal Free Energies=         -154.323279

                     E (Thermal)             CV                S
                      KCal/Mol        Cal/Mol-Kelvin    Cal/Mol-Kelvin
 Total                   37.225             18.063             69.794
 Electronic               0.000              0.000              2.755
 Translational            0.889              2.981             37.771
 Rotational               0.889              2.981             19.842
 Vibrational             35.447             12.101              9.426
 Vibration     1          0.608              1.936              3.173
 Vibration     2          0.632              1.858              2.261
 Vibration     3          0.737              1.549              1.111
 Vibration     4          0.770              1.459              0.944
 Vibration     5          0.880              1.194              0.598

 Optimization completed.
    -- Stationary point found.
 Normal termination of Gaussian 09 at Wed Jul 20 01:03:55 2016.
