 Gaussian 09, Revision E.01,
 Gaussian 09:  EM64L-G09RevE.01 30-Nov-2015

 ------------------------------------------------------
 #p b3lyp/6-311++G(3df,2p) freq IOp(2/17=3) IOp(2/18=3)
 ------------------------------------------------------

 ---------
 b3lyp opt
 ---------
 Symbolic Z-matrix:
 Charge =  0 Multiplicity = 1

                         Standard orientation:
 ---------------------------------------------------------------------
 Center     Atomic      Atomic             Coordinates (Angstroms)
 Number     Number       Type             X           Y           Z
 ---------------------------------------------------------------------
      1          6           0        0.169429   -0.076858    1.228764
      2          1           0        1.128639   -0.509372    1.522630
      3          6           0        0.000000    0.748548   -0.000000
      4          1           0       -0.464565    0.208770   -2.055607
      5          6           0       -0.560310   -0.494590    0.000000
      6          1           0       -0.464565    0.208770    2.055607
      7          6           0        0.169429   -0.076858   -1.228764
      8          1           0        1.128639   -0.509372   -1.522630
 ---------------------------------------------------------------------

 SCF Done:  E(RB3LYP) =  -154.680568200     A.U. after   10 cycles

 The electronic state is 1-A'.
 Alpha  occ. eigenvalues --  -10.22939 -10.22937 -10.21076 -10.21004  -0.96436
 Alpha  occ. eigenvalues --   -0.73844  -0.59762  -0.49944  -0.48717  -0.48030
 Alpha  occ. eigenvalues --   -0.42020  -0.33631  -0.28524  -0.27094
 Alpha virt. eigenvalues --   -0.08766  -0.00327   0.01181   0.01900   0.03257
 Alpha virt. eigenvalues --    0.04284   0.05479   0.05618   0.07635   0.08341
 Alpha virt. eigenvalues --    0.10934   0.10939   0.11394   0.12327   0.12342

 Mulliken charges:
               1
     1  C   -0.240658
     2  H    0.136691
     3  C   -0.047861
     4  H    0.150532
     5  C   -0.045267
     6  H    0.150532
     7  C   -0.240658
     8  H    0.136691
 Sum of Mulliken charges =  -0.00000

 Dipole moment (field-independent basis, Debye):
    X=              0.7660    Y=             -0.3529    Z=             -0.0000  Tot=              0.8434
 Quadrupole moment (field-independent basis, Debye-Ang):
   XX=            -24.7618   YY=            -28.1304   ZZ=            -20.3710
   XY=             -1.9023   XZ=             -0.0000   YZ=              0.0000

  Exact polarizability:  38.308   1.418  40.835   0.000   0.000  52.016
 Approx polarizability:  59.277  11.248  79.179   0.000   0.000  73.059

                      1                      2                      3
                     A'                     A'                     A"
 Frequencies --    367.8121               400.1241               712.3096
 Red. masses --      2.2879                 7.5353                 1.9429
 Frc consts  --      0.1824                 0.7108                 0.5808
 IR Inten    --      3.7252               141.0320                 0.0007

                      4                      5                      6
                     A'                     A'                     A"
 Frequencies --    930.2397               935.1393              1068.6718
 Red. masses --      5.5217                 1.2265                 1.2395
 Frc consts  --      2.8152                 0.6319                 0.8340
 IR Inten    --     15.7497                 1.7234                 0.7308

                      7                      8                      9
                     A'                     A"                     A'
 Frequencies --   1072.3129              1108.4848              1135.3416
 Red. masses --      1.1629                 1.2509                 1.4804
 Frc consts  --      0.7878                 0.9056                 1.1243
 IR Inten    --     14.7094                 0.0000                 1.2635

                     10                     11                     12
                     A"                     A"                     A'
 Frequencies --   1160.8647              1334.4959              1411.3245
 Red. masses --      1.7992                 5.9267                 3.4678
 Frc consts  --      1.4285                 6.2187                 4.0696
 IR Inten    --      0.0020                30.9108                 1.8348

                     13                     14                     15
                     A"                     A'                     A'
 Frequencies --   1515.9547              1557.5653              3026.7752
 Red. masses --      1.1273                 1.3861                 1.0652
 Frc consts  --      1.5264                 1.9812                 5.7494
 IR Inten    --      4.2861                 1.9813                68.1230

                     16                     17                     18
                     A"                     A"                     A'
 Frequencies --   3027.9937              3185.0930              3187.5165
 Red. masses --      1.0681                 1.0996                 1.1025
 Frc consts  --      5.7699                 6.5724                 6.5997
 IR Inten    --     65.7193                 3.0936                 3.2880

 - Thermochemistry -
 -------------------
 Temperature   298.150 Kelvin.  Pressure   1.00000 Atm.
 Atom     1 has atomic number  6 and mass  12.00000

 Molecular mass:    52.03130 amu.
 Principal axes and moments of inertia in atomic units:
                           1         2         3
     Eigenvalues --    63.67414 200.34180 216.34575
           X            0.00000   0.40936   0.91237
           Y            0.00000   0.91237  -0.40936
           Z            1.00000  -0.00000  -0.00000
 This molecule is an asymmetric top.
 Rotational symmetry number  1.
 Rotational temperatures (Kelvin)      1.36027     0.43233     0.40035
 Rotational constants (GHZ):          28.34339     9.00831     8.34193
 Zero-point vibrational energy     162321.4 (Joules/Mol)
                                   38.79575 (Kcal/Mol)
 Warning -- explicit consideration of   2 degrees of freedom as
           vibrations may cause significant error
 Vibrational temperatures:    529.20   575.69  1024.85  1338.41  1345.46
          (Kelvin)           1537.58  1542.82  1594.86  1633.50  1670.22
                             1920.04  2030.58  2181.12  2240.99  4354.85
                             4356.60  4582.63  4586.12

 Zero-point correction=                           0.061825 (Hartree/Particle)
 Thermal correction to Energy=                    0.065659
 Thermal correction to Enthalpy=                  0.066603
 Thermal correction to Gibbs Free Energy=         0.036545
 Sum of electronic and zero-point Energies=           -154.618743
 Sum of electronic and thermal Energies=              -154.614910
 Sum of electronic and thermal Enthalpies=            -154.613965
 Sum of electronic and thermal Free Energies=         -154.644023

                     E (Thermal)             CV                S
                      KCal/Mol        Cal/Mol-Kelvin    Cal/Mol-Kelvin
 Total                   41.201             12.424             63.262
 Electronic               0.000              0.000              0.000
 Translational            0.889              2.981             37.771
 Rotational               0.889              2.981             22.539
 Vibrational             39.424              6.462              2.952
 Vibration     1          0.740              1.538              1.089
 Vibration     2          0.766              1.470              0.962

 Normal termination of Gaussian 09 at Thu Jan 31 06:16:12 2019.
