 Gaussian 09, Revision E.01,
 Gaussian 09:  EM64L-G09RevE.01 30-Nov-2015

 ---------------------------------------------
 #p b3lyp/6-311++G(3df,2p) freq symmetry=Loose
 ---------------------------------------------

 ---------
 b3lyp opt
 ---------
 Symbolic Z-matrix:
 Charge =  2 Multiplicity = 1

                         Standard orientation:
 ---------------------------------------------------------------------
 Center     Atomic      Atomic             Coordinates (Angstroms)
 Number     Number       Type             X           Y           Z
 ---------------------------------------------------------------------
      1          6           0       -0.403606    1.763280    0.000000
      2          1           0        0.304901    2.622045    0.000000
      3          1           0       -1.475682    2.054189    0.000000
      4          6           0        0.000000    0.572501    0.000000
      5          6           0        0.471874   -0.773640   -0.000000
      6          1           0        1.097927   -1.076752    0.920833
      7          1           0        1.097927   -1.076752   -0.920833
      8          6           0       -0.239114   -1.982596   -0.000000
 ---------------------------------------------------------------------

 SCF Done:  E(RB3LYP) =  -153.752268281     A.U. after   13 cycles

 The electronic state is 1-A'.
 Alpha  occ. eigenvalues --  -10.86327 -10.76740 -10.74369 -10.67665  -1.37138
 Alpha  occ. eigenvalues --   -1.27383  -1.13591  -1.00028  -0.98125  -0.96259
 Alpha  occ. eigenvalues --   -0.90870  -0.82437  -0.78547
 Alpha virt. eigenvalues --   -0.62689  -0.60584  -0.59942  -0.46986  -0.37255
 Alpha virt. eigenvalues --   -0.32929  -0.31685  -0.28685  -0.27234  -0.25841
 Alpha virt. eigenvalues --   -0.25318  -0.23374  -0.22273  -0.20241  -0.19999

 Mulliken charges:
               1
     1  C   -0.105654
     2  H    0.324837
     3  H    0.320515
     4  C    0.747641
     5  C   -0.202027
     6  H    0.350681
     7  H    0.350681
     8  C    0.213327
 Sum of Mulliken charges =   2.00000

 Dipole moment (field-independent basis, Debye):
    X=              0.9499    Y=              0.1208    Z=              0.0000  Tot=              0.9576
 Quadrupole moment (field-independent basis, Debye-Ang):
   XX=            -12.4840   YY=              7.0256   ZZ=            -18.1611
   XY=             -6.0116   XZ=              0.0000   YZ=             -0.0000

  Exact polarizability:  30.407  -4.503  63.146   0.000  -0.000  25.764
 Approx polarizability:  50.704  -4.621 109.560  -0.000  -0.000  39.282

                      1                      2                      3
                     A"                     A'                     A"
 Frequencies --    201.4793               206.1032               254.0994
 Red. masses --      1.0729                 2.7313                 2.0756
 Frc consts  --      0.0257                 0.0684                 0.0790
 IR Inten    --      0.2707                11.0147                24.4200

                      4                      5                      6
                     A'                     A"                     A'
 Frequencies --    354.2157               372.5934               659.4619
 Red. masses --      1.9913                 2.4828                 1.7734
 Frc consts  --      0.1472                 0.2031                 0.4544
 IR Inten    --     20.3681                 1.0085                11.9226

                      7                      8                      9
                     A'                     A"                     A'
 Frequencies --    765.2708               877.7302               937.8487
 Red. masses --      4.0424                 1.3127                 1.8427
 Frc consts  --      1.3948                 0.5958                 0.9549
 IR Inten    --      7.4416                63.3623                 5.4329

                     10                     11                     12
                     A"                     A'                     A'
 Frequencies --    992.9477              1167.8189              1217.4109
 Red. masses --      1.1700                 1.1286                 1.1661
 Frc consts  --      0.6797                 0.9068                 1.0183
 IR Inten    --      0.2324               196.8574               104.6991

                     13                     14                     15
                     A'                     A'                     A"
 Frequencies --   1405.1292              1883.2166              2557.7209
 Red. masses --      4.7559                 8.8920                 1.0872
 Frc consts  --      5.5324                18.5802                 4.1905
 IR Inten    --    243.5437                28.7975               293.6274

                     16                     17                     18
                     A'                     A'                     A'
 Frequencies --   2558.6142              2881.8799              2916.8703
 Red. masses --      1.0549                 1.0707                 1.0996
 Frc consts  --      4.0689                 5.2394                 5.5120
 IR Inten    --    284.4209               566.4590               324.4723

 - Thermochemistry -
 -------------------
 Temperature   298.150 Kelvin.  Pressure   1.00000 Atm.
 Atom     1 has atomic number  6 and mass  12.00000

 Molecular mass:    52.03130 amu.
 Principal axes and moments of inertia in atomic units:
                           1         2         3
     Eigenvalues --    36.80545 400.36766 424.96622
           X           -0.11784   0.99303   0.00000
           Y            0.99303   0.11784   0.00000
           Z           -0.00000   0.00000   1.00000
 This molecule is an asymmetric top.
 Rotational symmetry number  1.
 Rotational temperatures (Kelvin)      2.35329     0.21634     0.20381
 Rotational constants (GHZ):          49.03461     4.50771     4.24679
 Zero-point vibrational energy     132847.8 (Joules/Mol)
                                   31.75138 (Kcal/Mol)
 Warning -- explicit consideration of   5 degrees of freedom as
           vibrations may cause significant error
 Vibrational temperatures:    289.88   296.54   365.59   509.64   536.08
          (Kelvin)            948.82  1101.05  1262.86  1349.35  1428.63
                             1680.23  1751.58  2021.67  2709.53  3679.99
                             3681.27  4146.38  4196.72

 Zero-point correction=                           0.050599 (Hartree/Particle)
 Thermal correction to Energy=                    0.056121
 Thermal correction to Enthalpy=                  0.057065
 Thermal correction to Gibbs Free Energy=         0.023659
 Sum of electronic and zero-point Energies=           -153.701669
 Sum of electronic and thermal Energies=              -153.696147
 Sum of electronic and thermal Enthalpies=            -153.695203
 Sum of electronic and thermal Free Energies=         -153.728609

                     E (Thermal)             CV                S
                      KCal/Mol        Cal/Mol-Kelvin    Cal/Mol-Kelvin
 Total                   35.217             18.013             70.309
 Electronic               0.000              0.000              0.000
 Translational            0.889              2.981             37.771
 Rotational               0.889              2.981             23.353
 Vibrational             33.439             12.051              9.186
 Vibration     1          0.638              1.838              2.120
 Vibration     2          0.641              1.831              2.078
 Vibration     3          0.665              1.756              1.702
 Vibration     4          0.730              1.567              1.147
 Vibration     5          0.744              1.528              1.069

 Optimization completed.
    -- Stationary point found.
 Normal termination of Gaussian 09 at Tue Jul 19 18:11:00 2016.
