 Gaussian 09, Revision E.01,
 Gaussian 09:  EM64L-G09RevE.01 30-Nov-2015

 ---------------------------------------------
 #p b3lyp/6-311++G(3df,2p) freq symmetry=Loose
 ---------------------------------------------

 ---------
 b3lyp opt
 ---------
 Symbolic Z-matrix:
 Charge =  0 Multiplicity = 3

                         Standard orientation:
 ---------------------------------------------------------------------
 Center     Atomic      Atomic             Coordinates (Angstroms)
 Number     Number       Type             X           Y           Z
 ---------------------------------------------------------------------
      1          6           0       -0.951544   -0.713765   -0.357482
      2          6           0        0.206785   -0.201926    0.446878
      3          1           0        0.244843   -0.475403    1.502727
      4          6           0        1.485886    0.156735   -0.173059
      5          1           0        2.171534   -0.614489   -0.500165
      6          1           0        1.779896    1.189678   -0.304834
      7          6           0       -1.166936    0.499561   -0.039716
      8          1           0       -1.641419    1.456586    0.042544
 ---------------------------------------------------------------------

 SCF Done:  E(UB3LYP) =  -154.638587859     A.U. after   16 cycles

 The electronic state is 3-A.
 Alpha  occ. eigenvalues --  -10.23175 -10.20782 -10.20453 -10.19077  -0.89332
 Alpha  occ. eigenvalues --   -0.73203  -0.59589  -0.56043  -0.46410  -0.45405
 Alpha  occ. eigenvalues --   -0.41252  -0.37821  -0.28274  -0.24247  -0.22780
 Alpha virt. eigenvalues --   -0.00886  -0.00249   0.01049   0.01649   0.02859
 Alpha virt. eigenvalues --    0.04992   0.05540   0.07483   0.08206   0.09091
 Alpha virt. eigenvalues --    0.10224   0.10577   0.11342   0.11999   0.12465

  Beta  occ. eigenvalues --  -10.22707 -10.20329 -10.19591 -10.17699  -0.87833
  Beta  occ. eigenvalues --   -0.70005  -0.58169  -0.54376  -0.44847  -0.43824
  Beta  occ. eigenvalues --   -0.38715  -0.33966  -0.27484
  Beta virt. eigenvalues --   -0.12315  -0.07923  -0.00255   0.00330   0.01184
  Beta virt. eigenvalues --    0.01833   0.03073   0.05505   0.05835   0.07760
  Beta virt. eigenvalues --    0.09087   0.09720   0.10677   0.11116   0.11501

 Mulliken charges and spin densities:
               1          2
     1  C   -0.367298   0.695442
     2  C    0.057101   0.208864
     3  H    0.140758   0.025101
     4  C   -0.600645   1.071282
     5  H    0.163557  -0.007785
     6  H    0.164857  -0.017336
     7  C    0.168314   0.021954
     8  H    0.273356   0.002477
 Sum of Mulliken charges =  -0.00000   2.00000

 Dipole moment (field-independent basis, Debye):
    X=              0.5391    Y=              1.5113    Z=              0.7969  Tot=              1.7916
 Quadrupole moment (field-independent basis, Debye-Ang):
   XX=            -24.3427   YY=            -23.7854   ZZ=            -25.7835
   XY=             -2.7335   XZ=             -0.9028   YZ=             -0.5210

  Exact polarizability:  56.585   1.011  45.587   2.287   1.915  40.509
 Approx polarizability:  73.768   0.393  75.898   4.883   6.793  58.193

                      1                      2                      3
                      A                      A                      A
 Frequencies --    206.1679               310.7527               352.6558
 Red. masses --      1.0853                 2.3570                 1.6353
 Frc consts  --      0.0272                 0.1341                 0.1198
 IR Inten    --      2.6603                 9.9546                19.1460

                      4                      5                      6
                      A                      A                      A
 Frequencies --    520.1939               612.0251               640.2377
 Red. masses --      2.7022                 2.7341                 1.7061
 Frc consts  --      0.4308                 0.6034                 0.4120
 IR Inten    --     23.6074                18.5441                55.6836

                      7                      8                      9
                      A                      A                      A
 Frequencies --    829.9923               882.9101               925.0898
 Red. masses --      1.1287                 1.2472                 5.8707
 Frc consts  --      0.4581                 0.5728                 2.9601
 IR Inten    --     48.7931                32.0822                 5.4527

                     10                     11                     12
                      A                      A                      A
 Frequencies --   1033.3800              1133.5104              1325.3253
 Red. masses --      1.5568                 3.4710                 1.2331
 Frc consts  --      0.9795                 2.6276                 1.2761
 IR Inten    --     10.4089                19.2202                12.9717

                     13                     14                     15
                      A                      A                      A
 Frequencies --   1438.2772              1753.7660              3031.0108
 Red. masses --      1.1758                 6.7644                 1.0810
 Frc consts  --      1.4331                12.2580                 5.8515
 IR Inten    --      2.3704                19.1730                24.9766

                     16                     17                     18
                      A                      A                      A
 Frequencies --   3121.0441              3219.6029              3318.1565
 Red. masses --      1.0496                 1.1176                 1.1223
 Frc consts  --      6.0241                 6.8259                 7.2801
 IR Inten    --      6.1483                 3.3960                16.5898

 - Thermochemistry -
 -------------------
 Temperature   298.150 Kelvin.  Pressure   1.00000 Atm.
 Atom     1 has atomic number  6 and mass  12.00000

 Molecular mass:    52.03130 amu.
 Principal axes and moments of inertia in atomic units:
                           1         2         3
     Eigenvalues --    74.48816 256.14468 281.81820
           X            0.99922  -0.03431  -0.01953
           Y            0.03242   0.99543  -0.08986
           Z            0.02252   0.08915   0.99576
 This molecule is an asymmetric top.
 Rotational symmetry number  1.
 Rotational temperatures (Kelvin)      1.16279     0.33814     0.30734
 Rotational constants (GHZ):          24.22857     7.04579     6.40392
 Zero-point vibrational energy     147464.3 (Joules/Mol)
                                   35.24480 (Kcal/Mol)
 Warning -- explicit consideration of   5 degrees of freedom as
           vibrations may cause significant error
 Vibrational temperatures:    296.63   447.10   507.39   748.44   880.57
          (Kelvin)            921.16  1194.17  1270.31  1331.00  1486.80
                             1630.87  1906.85  2069.36  2523.27  4360.94
                             4490.48  4632.28  4774.08

 Zero-point correction=                           0.056166 (Hartree/Particle)
 Thermal correction to Energy=                    0.061066
 Thermal correction to Enthalpy=                  0.062011
 Thermal correction to Gibbs Free Energy=         0.028842
 Sum of electronic and zero-point Energies=           -154.582422
 Sum of electronic and thermal Energies=              -154.577521
 Sum of electronic and thermal Enthalpies=            -154.576577
 Sum of electronic and thermal Free Energies=         -154.609746

                     E (Thermal)             CV                S
                      KCal/Mol        Cal/Mol-Kelvin    Cal/Mol-Kelvin
 Total                   38.320             16.622             69.810
 Electronic               0.000              0.000              2.183
 Translational            0.889              2.981             37.771
 Rotational               0.889              2.981             23.201
 Vibrational             36.542             10.661              6.654
 Vibration     1          0.641              1.831              2.077
 Vibration     2          0.700              1.653              1.358
 Vibration     3          0.729              1.570              1.154
 Vibration     4          0.875              1.205              0.610
 Vibration     5          0.971              1.006              0.429

 Optimization completed.
    -- Stationary point found.
 Normal termination of Gaussian 09 at Tue Jun 21 21:54:08 2016.
