 Gaussian 09, Revision E.01,
 Gaussian 09:  EM64L-G09RevE.01 30-Nov-2015

 ---------------------------------------------
 #p b3lyp/6-311++G(3df,2p) freq symmetry=Loose
 ---------------------------------------------

 ---------
 b3lyp opt
 ---------
 Symbolic Z-matrix:
 Charge =  2 Multiplicity = 3

                         Standard orientation:
 ---------------------------------------------------------------------
 Center     Atomic      Atomic             Coordinates (Angstroms)
 Number     Number       Type             X           Y           Z
 ---------------------------------------------------------------------
      1          6           0        0.534389    0.534389    0.534389
      2          1           0        1.166764    1.166764    1.166764
      3          6           0       -0.534389   -0.534389    0.534389
      4          1           0       -1.166764   -1.166764    1.166764
      5          6           0        0.534389   -0.534389   -0.534389
      6          1           0        1.166764   -1.166764   -1.166764
      7          6           0       -0.534389    0.534389   -0.534389
      8          1           0       -1.166764    1.166764   -1.166764
 ---------------------------------------------------------------------

 SCF Done:  E(UB3LYP) =  -153.754336448     A.U. after    9 cycles

 The electronic state is 3-A1.
 Alpha  occ. eigenvalues --  -10.81527 -10.81476 -10.81476 -10.81476  -1.58800
 Alpha  occ. eigenvalues --   -1.16332  -1.16332  -1.16332  -1.06417  -0.95834
 Alpha  occ. eigenvalues --   -0.95834  -0.95834  -0.82833  -0.82833
 Alpha virt. eigenvalues --   -0.42735  -0.42735  -0.42735  -0.39103  -0.39103
 Alpha virt. eigenvalues --   -0.39103  -0.35891  -0.30842  -0.26791  -0.26791
 Alpha virt. eigenvalues --   -0.26791  -0.23289  -0.23289  -0.22965  -0.22965

  Beta  occ. eigenvalues --  -10.80606 -10.80558 -10.80558 -10.80558  -1.56219
  Beta  occ. eigenvalues --   -1.12391  -1.12391  -1.12391  -1.05340  -0.93386
  Beta  occ. eigenvalues --   -0.93386  -0.93386
  Beta virt. eigenvalues --   -0.70857  -0.70857  -0.38502  -0.38502  -0.38502
  Beta virt. eigenvalues --   -0.37381  -0.37381  -0.37381  -0.35257  -0.30641
  Beta virt. eigenvalues --   -0.26465  -0.26465  -0.26465  -0.22727  -0.22727

 Mulliken charges and spin densities:
               1          2
     1  C    0.114781   0.524404
     2  H    0.385219  -0.024404
     3  C    0.114781   0.524404
     4  H    0.385219  -0.024404
     5  C    0.114781   0.524404
     6  H    0.385219  -0.024404
     7  C    0.114781   0.524404
     8  H    0.385219  -0.024404
 Sum of Mulliken charges =   2.00000   2.00000

 Dipole moment (field-independent basis, Debye):
    X=              0.0000    Y=             -0.0000    Z=             -0.0000  Tot=              0.0000
 Quadrupole moment (field-independent basis, Debye-Ang):
   XX=            -10.4787   YY=            -10.4787   ZZ=            -10.4787
   XY=             -0.0000   XZ=             -0.0000   YZ=             -0.0000

  Exact polarizability:  28.522   0.000  28.522   0.000   0.000  28.522
 Approx polarizability:  46.218   0.000  46.218  -0.000  -0.000  46.218

                      1                      2                      3
                      E                      E                     T2
 Frequencies --    759.3517               759.3517               785.9607
 Red. masses --      2.6734                 2.6734                 1.0623
 Frc consts  --      0.9082                 0.9082                 0.3866
 IR Inten    --      0.0000                 0.0000                84.1495

                      4                      5                      6
                     T2                     T2                     T2
 Frequencies --    785.9607               785.9607               871.1002
 Red. masses --      1.0623                 1.0623                 6.8034
 Frc consts  --      0.3866                 0.3866                 3.0417
 IR Inten    --     84.1495                84.1495                63.8682

                      7                      8                      9
                     T2                     T2                      E
 Frequencies --    871.1003               871.1003               895.4536
 Red. masses --      6.8034                 6.8034                 1.4255
 Frc consts  --      3.0417                 3.0417                 0.6734
 IR Inten    --     63.8682                63.8682                 0.0000

                     10                     11                     12
                      E                     T1                     T1
 Frequencies --    895.4536               896.6597               896.6597
 Red. masses --      1.4255                 1.3654                 1.3654
 Frc consts  --      0.6734                 0.6468                 0.6468
 IR Inten    --      0.0000                 0.0000                 0.0000

                     13                     14                     15
                     T1                     A1                     T2
 Frequencies --    896.6597              1333.6985              3095.1180
 Red. masses --      1.3654                 5.1389                 1.1001
 Frc consts  --      0.6468                 5.3857                 6.2090
 IR Inten    --      0.0000                 0.0000               326.0128

                     16                     17                     18
                     T2                     T2                     A1
 Frequencies --   3095.1180              3095.1180              3137.6207
 Red. masses --      1.1001                 1.1001                 1.1351
 Frc consts  --      6.2090                 6.2090                 6.5840
 IR Inten    --    326.0128               326.0128                 0.0000

 - Thermochemistry -
 -------------------
 Temperature   298.150 Kelvin.  Pressure   1.00000 Atm.
 Atom     1 has atomic number  6 and mass  12.00000

 Molecular mass:    52.03130 amu.
 Principal axes and moments of inertia in atomic units:
                           1         2         3
     Eigenvalues --   137.09614 137.09614 137.09614
           X            0.06379  -0.39158   0.91793
           Y            0.98601   0.16667   0.00257
           Z           -0.15400   0.90493   0.39673
 This molecule is a spherical top.
 Rotational symmetry number 12.
 Rotational temperatures (Kelvin)      0.63177     0.63177     0.63177
 Rotational constants (GHZ):          13.16406    13.16406    13.16406
 Zero-point vibrational energy     147903.0 (Joules/Mol)
                                   35.34966 (Kcal/Mol)
 Vibrational temperatures:   1092.54  1092.54  1130.82  1130.82  1130.82
          (Kelvin)           1253.32  1253.32  1253.32  1288.36  1288.36
                             1290.09  1290.09  1290.09  1918.89  4453.18
                             4453.18  4453.18  4514.33

 Zero-point correction=                           0.056333 (Hartree/Particle)
 Thermal correction to Energy=                    0.060060
 Thermal correction to Enthalpy=                  0.061004
 Thermal correction to Gibbs Free Energy=         0.032576
 Sum of electronic and zero-point Energies=           -153.698003
 Sum of electronic and thermal Energies=              -153.694277
 Sum of electronic and thermal Enthalpies=            -153.693333
 Sum of electronic and thermal Free Energies=         -153.721761

                     E (Thermal)             CV                S
                      KCal/Mol        Cal/Mol-Kelvin    Cal/Mol-Kelvin
 Total                   37.688             13.706             59.832
 Electronic               0.000              0.000              2.183
 Translational            0.889              2.981             37.771
 Rotational               0.889              2.981             17.533
 Vibrational             35.911              7.744              2.346

 Optimization completed.
    -- Stationary point found.
 Normal termination of Gaussian 09 at Tue Jul 19 19:22:37 2016.
