 Gaussian 09, Revision E.01,
 Gaussian 09:  EM64L-G09RevE.01 30-Nov-2015

 ------------------------------------------------------
 #p b3lyp/6-311++G(3df,2p) freq IOp(2/17=3) IOp(2/18=3)
 ------------------------------------------------------

 ---------
 b3lyp opt
 ---------
 Symbolic Z-matrix:
 Charge =  0 Multiplicity = 3

                         Standard orientation:
 ---------------------------------------------------------------------
 Center     Atomic      Atomic             Coordinates (Angstroms)
 Number     Number       Type             X           Y           Z
 ---------------------------------------------------------------------
      1          6           0        0.000000    1.015557    0.000000
      2          1           0        0.000000    2.093179    0.000000
      3          6           0       -0.000000   -1.015557    0.000000
      4          1           0       -0.000000   -2.093179    0.000000
      5          6           0        1.015557   -0.000000    0.000000
      6          6           0       -1.015557    0.000000    0.000000
      7          1           0        2.093179   -0.000000    0.000000
      8          1           0       -2.093179    0.000000    0.000000
 ---------------------------------------------------------------------

 SCF Done:  E(UB3LYP) =  -154.722568081     A.U. after    9 cycles

 The electronic state is 3-A1G.
 Alpha  occ. eigenvalues --  -10.19180 -10.19149 -10.19149 -10.19107  -0.89481
 Alpha  occ. eigenvalues --   -0.65458  -0.65458  -0.52843  -0.52323  -0.40440
 Alpha  occ. eigenvalues --   -0.39910  -0.37066  -0.37066  -0.19144  -0.19144
 Alpha virt. eigenvalues --    0.00033   0.01243   0.01243   0.03405   0.03568
 Alpha virt. eigenvalues --    0.05637   0.07170   0.07423   0.09365   0.09365
 Alpha virt. eigenvalues --    0.09683   0.09683   0.12131   0.12783   0.12827

  Beta  occ. eigenvalues --  -10.18440 -10.18406 -10.18406 -10.18367  -0.87281
  Beta  occ. eigenvalues --   -0.63060  -0.63060  -0.52063  -0.50880  -0.39339
  Beta  occ. eigenvalues --   -0.36298  -0.36298  -0.33048
  Beta virt. eigenvalues --   -0.07870  -0.07870   0.00063   0.01293   0.01293
  Beta virt. eigenvalues --    0.03432   0.06082   0.07401   0.07511   0.08518
  Beta virt. eigenvalues --    0.09505   0.09505   0.10562   0.10562   0.12461

 Mulliken charges and spin densities:
               1          2
     1  C   -0.209544   0.529330
     2  H    0.209544  -0.029330
     3  C   -0.209544   0.529330
     4  H    0.209544  -0.029330
     5  C   -0.209544   0.529330
     6  C   -0.209544   0.529330
     7  H    0.209544  -0.029330
     8  H    0.209544  -0.029330
 Sum of Mulliken charges =   0.00000   2.00000

 Dipole moment (field-independent basis, Debye):
    X=             -0.0000    Y=             -0.0000    Z=              0.0000  Tot=              0.0000
 Quadrupole moment (field-independent basis, Debye-Ang):
   XX=            -21.9706   YY=            -21.9706   ZZ=            -27.2885
   XY=             -0.0000   XZ=             -0.0000   YZ=             -0.0000

  Exact polarizability:  53.461   0.000  53.461  -0.000  -0.000  35.055
 Approx polarizability:  84.264   0.000  84.264  -0.000  -0.000  49.026

                      1                      2                      3
                     B2U                    A2U                    EG
 Frequencies --    468.9994               558.6946               610.1929
 Red. masses --      1.8917                 1.0848                 1.3276
 Frc consts  --      0.2452                 0.1995                 0.2912
 IR Inten    --      0.0000               125.7835                 0.0000

                      4                      5                      6
                     EG                     B2U                    EU
 Frequencies --    610.1929               716.5653               896.7871
 Red. masses --      1.3276                 1.8284                 1.7724
 Frc consts  --      0.2912                 0.5531                 0.8398
 IR Inten    --      0.0000                 0.0000                18.1346

                      7                      8                      9
                     EU                     B1G                    B2G
 Frequencies --    896.7871               948.3992              1016.2579
 Red. masses --      1.7724                 6.5012                 1.0997
 Frc consts  --      0.8398                 3.4453                 0.6691
 IR Inten    --     18.1346                 0.0000                 0.0000

                     10                     11                     12
                     A2G                    A1G                    EU
 Frequencies --   1217.6587              1287.2548              1320.0644
 Red. masses --      1.3276                 5.5778                 1.9338
 Frc consts  --      1.1598                 5.4456                 1.9854
 IR Inten    --      0.0000                 0.0000                 5.1844

                     13                     14                     15
                     EU                     B2G                    B1G
 Frequencies --   1320.0644              1357.9568              3216.6399
 Red. masses --      1.9338                 6.0171                 1.0849
 Frc consts  --      1.9854                 6.5374                 6.6137
 IR Inten    --      5.1844                 0.0000                 0.0000

                     16                     17                     18
                     EU                     EU                     A1G
 Frequencies --   3230.3628              3230.3628              3254.3634
 Red. masses --      1.0916                 1.0916                 1.1157
 Frc consts  --      6.7117                 6.7117                 6.9620
 IR Inten    --      4.4941                 4.4941                 0.0000

 - Thermochemistry -
 -------------------
 Temperature   298.150 Kelvin.  Pressure   1.00000 Atm.
 Atom     1 has atomic number  6 and mass  12.00000

 Molecular mass:    52.03130 amu.
 Principal axes and moments of inertia in atomic units:
                           1         2         3
     Eigenvalues --   119.93038 119.93038 239.86076
           X            1.00000  -0.00000   0.00000
           Y            0.00000   1.00000   0.00000
           Z            0.00000   0.00000   1.00000
 This molecule is an oblate symmetric top.
 Rotational symmetry number  8.
 Rotational temperatures (Kelvin)      0.72220     0.72220     0.36110
 Rotational constants (GHZ):          15.04824    15.04824     7.52412
 Zero-point vibrational energy     156457.2 (Joules/Mol)
                                   37.39417 (Kcal/Mol)
 Warning -- explicit consideration of   4 degrees of freedom as
           vibrations may cause significant error
 Vibrational temperatures:    674.78   803.84   877.93   877.93  1030.98
          (Kelvin)           1290.28  1290.28  1364.53  1462.17  1751.94
                             1852.07  1899.28  1899.28  1953.79  4628.02
                             4647.77  4647.77  4682.30

 Zero-point correction=                           0.059591 (Hartree/Particle)
 Thermal correction to Energy=                    0.063517
 Thermal correction to Enthalpy=                  0.064461
 Thermal correction to Gibbs Free Energy=         0.035181
 Sum of electronic and zero-point Energies=           -154.662977
 Sum of electronic and thermal Energies=              -154.659051
 Sum of electronic and thermal Enthalpies=            -154.658107
 Sum of electronic and thermal Free Energies=         -154.687387

                     E (Thermal)             CV                S
                      KCal/Mol        Cal/Mol-Kelvin    Cal/Mol-Kelvin
 Total                   39.857             13.773             61.625
 Electronic               0.000              0.000              2.183
 Translational            0.889              2.981             37.771
 Rotational               0.889              2.981             18.628
 Vibrational             38.080              7.811              3.043
 Vibration     1          0.826              1.319              0.740
 Vibration     2          0.914              1.121              0.526
 Vibration     3          0.969              1.010              0.432
 Vibration     4          0.969              1.010              0.432

 Optimization completed.
    -- Stationary point found.
 Normal termination of Gaussian 09 at Thu Jan 31 06:14:56 2019.
