 Gaussian 09, Revision E.01,
 Gaussian 09:  EM64L-G09RevE.01 30-Nov-2015

 ---------------------------------------------
 #p b3lyp/6-311++G(3df,2p) freq symmetry=Loose
 ---------------------------------------------

 ---------
 b3lyp opt
 ---------
 Symbolic Z-matrix:
 Charge =  2 Multiplicity = 3

                         Standard orientation:
 ---------------------------------------------------------------------
 Center     Atomic      Atomic             Coordinates (Angstroms)
 Number     Number       Type             X           Y           Z
 ---------------------------------------------------------------------
      1          6           0        0.000000    0.000000   -0.915590
      2          1           0        0.837682   -0.000000   -1.689717
      3          1           0       -0.837682    0.000000   -1.689717
      4          6           0       -0.000000   -0.000000    1.142060
      5          6           0        0.000000   -1.048589    0.140955
      6          1           0        0.000000   -2.143517    0.164580
      7          6           0        0.000000    1.048589    0.140955
      8          1           0        0.000000    2.143517    0.164580
 ---------------------------------------------------------------------

 SCF Done:  E(UB3LYP) =  -153.756872221     A.U. after   12 cycles

 The electronic state is 3-B1.
 Alpha  occ. eigenvalues --  -10.79912 -10.79911 -10.79549 -10.73160  -1.45253
 Alpha  occ. eigenvalues --   -1.19735  -1.19030  -1.04252  -0.99589  -0.96593
 Alpha  occ. eigenvalues --   -0.95185  -0.90885  -0.82624  -0.79333
 Alpha virt. eigenvalues --   -0.65299  -0.52400  -0.36603  -0.35755  -0.34569
 Alpha virt. eigenvalues --   -0.32833  -0.32318  -0.28351  -0.27127  -0.25353
 Alpha virt. eigenvalues --   -0.24276  -0.23509  -0.22798  -0.21619  -0.21250

  Beta  occ. eigenvalues --  -10.79654 -10.79652 -10.77028 -10.72856  -1.42890
  Beta  occ. eigenvalues --   -1.17956  -1.16144  -1.03790  -0.94809  -0.93572
  Beta  occ. eigenvalues --   -0.92743  -0.90379
  Beta virt. eigenvalues --   -0.71287  -0.63613  -0.60457  -0.45881  -0.35703
  Beta virt. eigenvalues --   -0.34786  -0.33866  -0.32422  -0.31253  -0.27240
  Beta virt. eigenvalues --   -0.26967  -0.25271  -0.23355  -0.22376  -0.21473

 Mulliken charges and spin densities:
               1          2
     1  C    0.052529   0.083549
     2  H    0.276574   0.132174
     3  H    0.276574   0.132174
     4  C    0.527304   1.408469
     5  C    0.075679   0.122873
     6  H    0.357830  -0.001056
     7  C    0.075679   0.122873
     8  H    0.357830  -0.001056
 Sum of Mulliken charges =   2.00000   2.00000

 Dipole moment (field-independent basis, Debye):
    X=              0.0000    Y=             -0.0000    Z=             -1.6098  Tot=              1.6098
 Quadrupole moment (field-independent basis, Debye-Ang):
   XX=            -17.1030   YY=             -4.2997   ZZ=             -9.6629
   XY=              0.0000   XZ=             -0.0000   YZ=             -0.0000

  Exact polarizability:  22.023   0.000  37.268   0.000   0.000  39.768
 Approx polarizability:  34.239   0.000  59.331  -0.000  -0.000  69.708

                      1                      2                      3
                     B1                     B1                     A2
 Frequencies --    148.7083               543.8659               728.8135
 Red. masses --      1.7065                 1.2520                 1.0131
 Frc consts  --      0.0222                 0.2182                 0.3171
 IR Inten    --      0.0213                58.2844                 0.0000

                      4                      5                      6
                     B2                     A1                     A1
 Frequencies --    808.3352               881.2703               926.1145
 Red. masses --      1.9439                 5.6468                 1.6285
 Frc consts  --      0.7483                 2.5839                 0.8229
 IR Inten    --      6.9552                 0.4959                 8.7194

                      7                      8                      9
                     A1                     B1                     A2
 Frequencies --    984.2097               996.7455              1073.7789
 Red. masses --      1.3294                 2.1549                 1.3594
 Frc consts  --      0.7587                 1.2614                 0.9235
 IR Inten    --    336.4964                 0.9680                 0.0000

                     10                     11                     12
                     B2                     B2                     A1
 Frequencies --   1078.4572              1146.8488              1185.1430
 Red. masses --      3.4682                 1.3643                 2.9669
 Frc consts  --      2.3766                 1.0572                 2.4553
 IR Inten    --     22.4810                 9.7924                10.3284

                     13                     14                     15
                     B2                     A1                     B1
 Frequencies --   1216.3514              1321.9179              2506.5501
 Red. masses --      2.3715                 2.2905                 1.0717
 Frc consts  --      2.0672                 2.3583                 3.9670
 IR Inten    --    183.1883                42.7426               232.7250

                     16                     17                     18
                     A1                     B2                     A1
 Frequencies --   2639.2379              3111.5021              3113.4440
 Red. masses --      1.0762                 1.1019                 1.1082
 Frc consts  --      4.4168                 6.2855                 6.3293
 IR Inten    --    522.1024               277.5572                 0.1438

 - Thermochemistry -
 -------------------
 Temperature   298.150 Kelvin.  Pressure   1.00000 Atm.
 Atom     1 has atomic number  6 and mass  12.00000

 Molecular mass:    52.03130 amu.
 Principal axes and moments of inertia in atomic units:
                           1         2         3
     Eigenvalues --   118.68807 132.36010 240.94632
           X            0.00000   0.00000   1.00000
           Y            1.00000   0.00000  -0.00000
           Z           -0.00000   1.00000  -0.00000
 This molecule is an asymmetric top.
 Rotational symmetry number  2.
 Rotational temperatures (Kelvin)      0.72976     0.65438     0.35947
 Rotational constants (GHZ):          15.20575    13.63508     7.49022
 Zero-point vibrational energy     146012.0 (Joules/Mol)
                                   34.89770 (Kcal/Mol)
 Warning -- explicit consideration of   2 degrees of freedom as
           vibrations may cause significant error
 Vibrational temperatures:    213.96   782.50  1048.60  1163.01  1267.95
          (Kelvin)           1332.47  1416.06  1434.09  1544.93  1551.66
                             1650.06  1705.15  1750.06  1901.94  3606.36
                             3797.27  4476.75  4479.55

 Zero-point correction=                           0.055613 (Hartree/Particle)
 Thermal correction to Energy=                    0.059765
 Thermal correction to Enthalpy=                  0.060709
 Thermal correction to Gibbs Free Energy=         0.029390
 Sum of electronic and zero-point Energies=           -153.701259
 Sum of electronic and thermal Energies=              -153.697107
 Sum of electronic and thermal Enthalpies=            -153.696163
 Sum of electronic and thermal Free Energies=         -153.727482

                     E (Thermal)             CV                S
                      KCal/Mol        Cal/Mol-Kelvin    Cal/Mol-Kelvin
 Total                   37.503             13.592             65.916
 Electronic               0.000              0.000              2.183
 Translational            0.889              2.981             37.771
 Rotational               0.889              2.981             21.475
 Vibrational             35.726              7.631              4.487
 Vibration     1          0.618              1.904              2.689
 Vibration     2          0.899              1.153              0.557

 Optimization completed.
    -- Stationary point found.
 Normal termination of Gaussian 09 at Tue Jul 19 18:42:17 2016.
