 Gaussian 09, Revision E.01,
 Gaussian 09:  EM64L-G09RevE.01 30-Nov-2015

 ------------------------------------------------------
 #p b3lyp/6-311++G(3df,2p) freq IOp(2/17=3) IOp(2/18=3)
 ------------------------------------------------------

 ---------
 b3lyp opt
 ---------
 Symbolic Z-matrix:
 Charge =  0 Multiplicity = 3

                         Standard orientation:
 ---------------------------------------------------------------------
 Center     Atomic      Atomic             Coordinates (Angstroms)
 Number     Number       Type             X           Y           Z
 ---------------------------------------------------------------------
      1          6           0        0.704731    1.410462    0.000000
      2          1           0        0.000000    2.228344    0.000000
      3          1           0        1.761357    1.644491    0.000000
      4          6           0        0.296602    0.124851    0.000000
      5          6           0       -1.065886   -0.732164    0.000000
      6          1           0       -1.652159   -0.735034   -0.916214
      7          1           0       -1.652159   -0.735034    0.916214
      8          6           0        0.321678   -1.203611    0.000000
 ---------------------------------------------------------------------

 SCF Done:  E(UB3LYP) =  -154.675750424     A.U. after   14 cycles

 The electronic state is 3-A".
 Alpha  occ. eigenvalues --  -10.21746 -10.21712 -10.21630 -10.19588  -0.89762
 Alpha  occ. eigenvalues --   -0.75170  -0.62214  -0.51835  -0.47306  -0.47047
 Alpha  occ. eigenvalues --   -0.40987  -0.37970  -0.32658  -0.24775  -0.21623
 Alpha virt. eigenvalues --   -0.00484   0.01136   0.01898   0.02173   0.03834
 Alpha virt. eigenvalues --    0.04965   0.05464   0.07400   0.08270   0.09511
 Alpha virt. eigenvalues --    0.10102   0.10867   0.11731   0.12412   0.13135

  Beta  occ. eigenvalues --  -10.21785 -10.21307 -10.19640 -10.18800  -0.87730
  Beta  occ. eigenvalues --   -0.73187  -0.60316  -0.50470  -0.45908  -0.45888
  Beta  occ. eigenvalues --   -0.36409  -0.35234  -0.29786
  Beta virt. eigenvalues --   -0.12133  -0.09873  -0.00288   0.01232   0.02397
  Beta virt. eigenvalues --    0.02526   0.05231   0.05266   0.05707   0.07531
  Beta virt. eigenvalues --    0.09635   0.10291   0.11023   0.11443   0.12331

 Mulliken charges and spin densities:
               1          2
     1  C   -0.595828   0.609036
     2  H    0.182335  -0.015192
     3  H    0.165606   0.004112
     4  C    0.452297  -0.156511
     5  C   -0.444614   0.238825
     6  H    0.155507   0.021943
     7  H    0.155507   0.021943
     8  C   -0.070809   1.275846
 Sum of Mulliken charges =  -0.00000   2.00000

 Dipole moment (field-independent basis, Debye):
    X=             -0.9367    Y=              1.3187    Z=             -0.0000  Tot=              1.6175
 Quadrupole moment (field-independent basis, Debye-Ang):
   XX=            -22.6974   YY=            -25.2443   ZZ=            -25.5463
   XY=              1.7636   XZ=              0.0000   YZ=              0.0000

  Exact polarizability:  50.998   8.170  65.422   0.000   0.000  35.633
 Approx polarizability:  71.800   8.191 106.240  -0.000  -0.000  49.165

                      1                      2                      3
                     A'                     A"                     A"
 Frequencies --    329.7557               367.5769               541.2353
 Red. masses --      2.5464                 3.2444                 1.0433
 Frc consts  --      0.1631                 0.2583                 0.1801
 IR Inten    --      6.5712                 2.1807                 0.6253

                      4                      5                      6
                     A'                     A"                     A"
 Frequencies --    591.5854               761.0967               889.9240
 Red. masses --      5.1255                 1.3154                 1.2353
 Frc consts  --      1.0569                 0.4489                 0.5764
 IR Inten    --     10.1250                48.6041                 0.1111

                      7                      8                      9
                     A'                     A'                     A"
 Frequencies --    981.5948               994.3710              1011.2762
 Red. masses --      1.3465                 3.0043                 1.3073
 Frc consts  --      0.7644                 1.7502                 0.7877
 IR Inten    --     35.2630                31.5919                 0.0017

                     10                     11                     12
                     A'                     A'                     A'
 Frequencies --   1058.3397              1125.2949              1448.4752
 Red. masses --      1.9200                 4.6252                 1.1704
 Frc consts  --      1.2671                 3.4508                 1.4469
 IR Inten    --      9.1833                 1.1488                 2.6358

                     13                     14                     15
                     A'                     A'                     A'
 Frequencies --   1479.8841              1617.9515              3048.4641
 Red. masses --      1.1508                 8.9619                 1.0466
 Frc consts  --      1.4850                13.8223                 5.7303
 IR Inten    --      4.8046                12.8289                20.1199

                     16                     17                     18
                     A"                     A'                     A'
 Frequencies --   3122.2276              3137.8053              3232.0385
 Red. masses --      1.1164                 1.0540                 1.1156
 Frc consts  --      6.4120                 6.1140                 6.8660
 IR Inten    --     11.4295                 2.0877                 0.6839

 - Thermochemistry -
 -------------------
 Temperature   298.150 Kelvin.  Pressure   1.00000 Atm.
 Atom     1 has atomic number  6 and mass  12.00000

 Molecular mass:    52.03130 amu.
 Principal axes and moments of inertia in atomic units:
                           1         2         3
     Eigenvalues --    68.50814 254.47573 310.89915
           X            0.49929   0.86644   0.00000
           Y            0.86644  -0.49929   0.00000
           Z            0.00000  -0.00000   1.00000
 This molecule is an asymmetric top.
 Rotational symmetry number  1.
 Rotational temperatures (Kelvin)      1.26429     0.34036     0.27859
 Rotational constants (GHZ):          26.34346     7.09200     5.80491
 Zero-point vibrational energy     153952.8 (Joules/Mol)
                                   36.79560 (Kcal/Mol)
 Warning -- explicit consideration of   4 degrees of freedom as
           vibrations may cause significant error
 Vibrational temperatures:    474.44   528.86   778.72   851.16  1095.05
          (Kelvin)           1280.40  1412.29  1430.68  1455.00  1522.71
                             1619.05  2084.03  2129.22  2327.87  4386.05
                             4492.18  4514.60  4650.18

 Zero-point correction=                           0.058638 (Hartree/Particle)
 Thermal correction to Energy=                    0.062882
 Thermal correction to Enthalpy=                  0.063826
 Thermal correction to Gibbs Free Energy=         0.031812
 Sum of electronic and zero-point Energies=           -154.617113
 Sum of electronic and thermal Energies=              -154.612868
 Sum of electronic and thermal Enthalpies=            -154.611924
 Sum of electronic and thermal Free Energies=         -154.643938

                     E (Thermal)             CV                S
                      KCal/Mol        Cal/Mol-Kelvin    Cal/Mol-Kelvin
 Total                   39.459             14.499             67.379
 Electronic               0.000              0.000              2.183
 Translational            0.889              2.981             37.771
 Rotational               0.889              2.981             23.209
 Vibrational             37.682              8.537              4.215
 Vibration     1          0.713              1.616              1.261
 Vibration     2          0.740              1.539              1.090
 Vibration     3          0.896              1.159              0.563
 Vibration     4          0.949              1.050              0.464

 Optimization completed.
    -- Stationary point found.
 Normal termination of Gaussian 09 at Thu Jan 31 06:17:58 2019.
