 Gaussian 09, Revision E.01,
 Gaussian 09:  EM64L-G09RevE.01 30-Nov-2015

 ---------------------------------------------
 #p b3lyp/6-311++G(3df,2p) freq symmetry=Loose
 ---------------------------------------------

 ---------
 b3lyp opt
 ---------
 Symbolic Z-matrix:
 Charge =  2 Multiplicity = 3

                         Standard orientation:
 ---------------------------------------------------------------------
 Center     Atomic      Atomic             Coordinates (Angstroms)
 Number     Number       Type             X           Y           Z
 ---------------------------------------------------------------------
      1          6           0        0.000000   -0.000000    0.646919
      2          6           0        0.000000    0.000000   -0.646919
      3          6           0       -0.000000    0.000000   -1.979175
      4          1           0        0.000000    0.943913   -2.557005
      5          1           0       -0.000000   -0.943913   -2.557005
      6          6           0       -0.000000   -0.000000    1.979175
      7          1           0       -0.000000   -0.943913    2.557005
      8          1           0       -0.000000    0.943913    2.557005
 ---------------------------------------------------------------------

 SCF Done:  E(UB3LYP) =  -153.854872895     A.U. after   12 cycles

 The electronic state is 3-AU.
 Alpha  occ. eigenvalues --  -10.77504 -10.77389 -10.73128 -10.73125  -1.35465
 Alpha  occ. eigenvalues --   -1.27994  -1.19482  -1.00238  -0.97902  -0.95882
 Alpha  occ. eigenvalues --   -0.92793  -0.88297  -0.79808  -0.76980
 Alpha virt. eigenvalues --   -0.57512  -0.51362  -0.39113  -0.34428  -0.33007
 Alpha virt. eigenvalues --   -0.27847  -0.27074  -0.25842  -0.25365  -0.24179
 Alpha virt. eigenvalues --   -0.22805  -0.21525  -0.21492  -0.20756  -0.20201

  Beta  occ. eigenvalues --  -10.76684 -10.76573 -10.72493 -10.72490  -1.31889
  Beta  occ. eigenvalues --   -1.25136  -1.17056  -0.98413  -0.96487  -0.92621
  Beta  occ. eigenvalues --   -0.90800  -0.84287
  Beta virt. eigenvalues --   -0.68593  -0.66767  -0.52433  -0.46138  -0.35449
  Beta virt. eigenvalues --   -0.33918  -0.31320  -0.27476  -0.26338  -0.24942
  Beta virt. eigenvalues --   -0.23965  -0.23696  -0.22481  -0.21222  -0.20354

 Mulliken charges and spin densities:
               1          2
     1  C    0.563132   0.601408
     2  C    0.563132   0.601408
     3  C   -0.210465   0.329191
     4  H    0.323667   0.034700
     5  H    0.323667   0.034700
     6  C   -0.210465   0.329191
     7  H    0.323667   0.034700
     8  H    0.323667   0.034700
 Sum of Mulliken charges =   2.00000   2.00000

 Dipole moment (field-independent basis, Debye):
    X=             -0.0000    Y=             -0.0000    Z=              0.0000  Tot=              0.0000
 Quadrupole moment (field-independent basis, Debye-Ang):
   XX=            -20.2160   YY=            -14.6287   ZZ=             22.5181
   XY=             -0.0000   XZ=             -0.0000   YZ=              0.0000

  Exact polarizability:  20.649   0.000  25.465   0.000   0.000  90.885
 Approx polarizability:  28.577  -0.000  35.598  -0.000  -0.000 168.763

                      1                      2                      3
                     B3U                    B2U                    B3G
 Frequencies --    205.1039               208.6869               390.1133
 Red. masses --      3.7469                 2.3885                 2.6223
 Frc consts  --      0.0929                 0.0613                 0.2351
 IR Inten    --     21.2786                16.5716                 0.0000

                      4                      5                      6
                     B2G                    AU                     B2U
 Frequencies --    467.8788               683.6728               829.1217
 Red. masses --      6.4717                 1.0078                 1.4720
 Frc consts  --      0.8347                 0.2775                 0.5962
 IR Inten    --      0.0000                 0.0000                13.9791

                      7                      8                      9
                     AG                     B3G                    B2G
 Frequencies --    836.1935               858.1801               960.1783
 Red. masses --      4.3509                 1.7118                 1.3562
 Frc consts  --      1.7924                 0.7428                 0.7367
 IR Inten    --      0.0000                 0.0000                 0.0000

                     10                     11                     12
                     B3U                    B1U                    AG
 Frequencies --    964.3449              1282.1688              1300.1029
 Red. masses --      1.3545                 1.0694                 1.1362
 Frc consts  --      0.7422                 1.0358                 1.1315
 IR Inten    --     66.3585               242.1326                 0.0000

                     13                     14                     15
                     B1U                    AG                     B1U
 Frequencies --   1367.0729              2071.2650              2888.2653
 Red. masses --      9.3236                10.9444                 1.0471
 Frc consts  --     10.2663                27.6639                 5.1463
 IR Inten    --     17.1177                 0.0000              1053.2106

                     16                     17                     18
                     AG                     B2U                    B3G
 Frequencies --   2917.5824              2982.4557              2982.6188
 Red. masses --      1.0529                 1.1119                 1.1122
 Frc consts  --      5.2804                 5.8273                 5.8293
 IR Inten    --      0.0000               462.9681                 0.0000

 - Thermochemistry -
 -------------------
 Temperature   298.150 Kelvin.  Pressure   1.00000 Atm.
 Atom     1 has atomic number  6 and mass  12.00000

 Molecular mass:    52.03130 amu.
 Principal axes and moments of inertia in atomic units:
                           1         2         3
     Eigenvalues --    12.82645 465.71329 478.53974
           X           -0.00000   0.00000   1.00000
           Y            0.00000   1.00000  -0.00000
           Z            1.00000  -0.00000   0.00000
 This molecule is an asymmetric top.
 Rotational symmetry number  4.
 Rotational temperatures (Kelvin)      6.75275     0.18598     0.18100
 Rotational constants (GHZ):         140.70467     3.87522     3.77135
 Zero-point vibrational energy     144718.3 (Joules/Mol)
                                   34.58850 (Kcal/Mol)
 Warning -- explicit consideration of   4 degrees of freedom as
           vibrations may cause significant error
 Vibrational temperatures:    295.10   300.25   561.29   673.17   983.65
          (Kelvin)           1192.92  1203.09  1234.73  1381.48  1387.48
                             1844.75  1870.56  1966.91  2980.08  4155.56
                             4197.75  4291.08  4291.32

 Zero-point correction=                           0.055120 (Hartree/Particle)
 Thermal correction to Energy=                    0.060060
 Thermal correction to Enthalpy=                  0.061004
 Thermal correction to Gibbs Free Energy=         0.029261
 Sum of electronic and zero-point Energies=           -153.799753
 Sum of electronic and thermal Energies=              -153.794813
 Sum of electronic and thermal Enthalpies=            -153.793869
 Sum of electronic and thermal Free Energies=         -153.825612

                     E (Thermal)             CV                S
                      KCal/Mol        Cal/Mol-Kelvin    Cal/Mol-Kelvin
 Total                   37.688             16.326             66.809
 Electronic               0.000              0.000              2.183
 Translational            0.889              2.981             37.771
 Rotational               0.889              2.981             19.819
 Vibrational             35.911             10.364              7.037
 Vibration     1          0.640              1.833              2.087
 Vibration     2          0.642              1.827              2.055
 Vibration     3          0.758              1.491              1.000
 Vibration     4          0.825              1.321              0.744

 Optimization completed.
    -- Stationary point found.
 Normal termination of Gaussian 09 at Tue Jul 19 19:21:19 2016.
