 Gaussian 09, Revision E.01,
 Gaussian 09:  EM64L-G09RevE.01 30-Nov-2015

 ---------------------------------------------
 #p b3lyp/6-311++G(3df,2p) freq symmetry=Loose
 ---------------------------------------------

 ---------
 b3lyp opt
 ---------
 Symbolic Z-matrix:
 Charge =  2 Multiplicity = 1

                         Standard orientation:
 ---------------------------------------------------------------------
 Center     Atomic      Atomic             Coordinates (Angstroms)
 Number     Number       Type             X           Y           Z
 ---------------------------------------------------------------------
      1          6           0        1.687311   -0.156147    0.001151
      2          1           0        2.203619    0.860058   -0.027136
      3          1           0        2.025745   -0.684406   -0.923540
      4          1           0        2.036058   -0.647421    0.941127
      5          6           0        0.364552    0.121684    0.000541
      6          6           0       -1.959871   -0.530561   -0.000196
      7          6           0       -0.918084    0.400808    0.000034
      8          1           0       -1.308866    1.457064    0.000374
 ---------------------------------------------------------------------

 SCF Done:  E(RB3LYP) =  -153.771041060     A.U. after   13 cycles

 The electronic state is 1-A.
 Alpha  occ. eigenvalues --  -10.84240 -10.84176 -10.72110 -10.68130  -1.37331
 Alpha  occ. eigenvalues --   -1.28546  -1.15932  -1.01257  -0.97728  -0.93588
 Alpha  occ. eigenvalues --   -0.90998  -0.83132  -0.81067
 Alpha virt. eigenvalues --   -0.63513  -0.63053  -0.60976  -0.45172  -0.36329
 Alpha virt. eigenvalues --   -0.31436  -0.30614  -0.28188  -0.27119  -0.26608
 Alpha virt. eigenvalues --   -0.26423  -0.24412  -0.23380  -0.21906  -0.20166

 Mulliken charges:
               1
     1  C   -0.171125
     2  H    0.308694
     3  H    0.296371
     4  H    0.295796
     5  C    0.615382
     6  C    0.215904
     7  C    0.164372
     8  H    0.274606
 Sum of Mulliken charges =   2.00000

 Dipole moment (field-independent basis, Debye):
    X=              1.5063    Y=              1.1627    Z=             -0.0154  Tot=              1.9029
 Quadrupole moment (field-independent basis, Debye-Ang):
   XX=              7.0925   YY=            -13.7413   ZZ=            -18.3156
   XY=             -2.6404   XZ=             -0.0341   YZ=             -0.0001

  Exact polarizability:  73.495   1.223  30.762  -0.029   0.007  25.704
 Approx polarizability: 156.590   9.415  52.040  -0.055   0.034  38.091

                      1                      2                      3
                      A                      A                      A
 Frequencies --     45.1530               207.0433               362.8781
 Red. masses --      1.2282                 3.8653                 1.8033
 Frc consts  --      0.0015                 0.0976                 0.1399
 IR Inten    --      2.7543                 2.6622                14.5374

                      4                      5                      6
                      A                      A                      A
 Frequencies --    411.1822               533.6473               748.0778
 Red. masses --      1.9221                 1.7415                 1.6347
 Frc consts  --      0.1915                 0.2922                 0.5390
 IR Inten    --     21.7575                 1.3130                 3.8656

                      7                      8                      9
                      A                      A                      A
 Frequencies --    896.1712               905.7429               942.9564
 Red. masses --      1.8176                 2.7744                 1.8322
 Frc consts  --      0.8601                 1.3410                 0.9598
 IR Inten    --     59.4130                15.3588                20.5244

                     10                     11                     12
                      A                      A                      A
 Frequencies --   1146.9698              1156.5637              1280.3942
 Red. masses --      1.0432                 1.1132                 1.2196
 Frc consts  --      0.8085                 0.8773                 1.1780
 IR Inten    --     62.8405               158.0782               151.5682

                     13                     14                     15
                      A                      A                      A
 Frequencies --   1376.3682              1830.8776              2647.6937
 Red. masses --      6.5130                11.2222                 1.0673
 Frc consts  --      7.2694                22.1640                 4.4082
 IR Inten    --    172.7322              1256.1202               474.4373

                     16                     17                     18
                      A                      A                      A
 Frequencies --   2761.8917              2812.4513              2859.5249
 Red. masses --      1.0827                 1.0512                 1.0998
 Frc consts  --      4.8661                 4.8988                 5.2984
 IR Inten    --    684.8542               348.9048               238.3430

 - Thermochemistry -
 -------------------
 Temperature   298.150 Kelvin.  Pressure   1.00000 Atm.
 Atom     1 has atomic number  6 and mass  12.00000

 Molecular mass:    52.03130 amu.
 Principal axes and moments of inertia in atomic units:
                           1         2         3
     Eigenvalues --    40.06876 386.59969 414.14822
           X            0.99964  -0.02683  -0.00015
           Y            0.02683   0.99964   0.00003
           Z            0.00015  -0.00003   1.00000
 This molecule is an asymmetric top.
 Rotational symmetry number  1.
 Rotational temperatures (Kelvin)      2.16163     0.22404     0.20914
 Rotational constants (GHZ):          45.04111     4.66824     4.35772
 Zero-point vibrational energy     137125.5 (Joules/Mol)
                                   32.77377 (Kcal/Mol)
 Warning -- explicit consideration of   5 degrees of freedom as
           vibrations may cause significant error
 Vibrational temperatures:     64.97   297.89   522.10   591.60   767.80
          (Kelvin)           1076.32  1289.39  1303.16  1356.70  1650.23
                             1664.04  1842.20  1980.28  2634.22  3809.44
                             3973.74  4046.49  4114.21

 Zero-point correction=                           0.052228 (Hartree/Particle)
 Thermal correction to Energy=                    0.057613
 Thermal correction to Enthalpy=                  0.058557
 Thermal correction to Gibbs Free Energy=         0.024513
 Sum of electronic and zero-point Energies=           -153.718813
 Sum of electronic and thermal Energies=              -153.713429
 Sum of electronic and thermal Enthalpies=            -153.712484
 Sum of electronic and thermal Free Energies=         -153.746528

                     E (Thermal)             CV                S
                      KCal/Mol        Cal/Mol-Kelvin    Cal/Mol-Kelvin
 Total                   36.152             16.897             71.651
 Electronic               0.000              0.000              0.000
 Translational            0.889              2.981             37.771
 Rotational               0.889              2.981             23.377
 Vibrational             34.375             10.936             10.503
 Vibration     1          0.595              1.979              5.019
 Vibration     2          0.641              1.830              2.070
 Vibration     3          0.737              1.549              1.110
 Vibration     4          0.775              1.446              0.922
 Vibration     5          0.889              1.176              0.579

 Normal termination of Gaussian 09 at Tue Jun 21 23:17:26 2016.
