 Gaussian 09, Revision E.01,
 Gaussian 09:  EM64L-G09RevE.01 30-Nov-2015

 ---------------------------------------------
 #p b3lyp/6-311++G(3df,2p) freq symmetry=Loose
 ---------------------------------------------

 ---------
 b3lyp opt
 ---------
 Symbolic Z-matrix:
 Charge =  0 Multiplicity = 1

                         Standard orientation:
 ---------------------------------------------------------------------
 Center     Atomic      Atomic             Coordinates (Angstroms)
 Number     Number       Type             X           Y           Z
 ---------------------------------------------------------------------
      1          6           0       -1.086001   -0.061374    0.182607
      2          1           0       -2.156386   -0.021808    0.284730
      3          6           0       -0.030810    0.853807   -0.012678
      4          1           0       -0.035018    1.661262   -0.743925
      5          6           0        1.088034   -0.089201    0.139071
      6          1           0        1.357354   -0.357357    1.151796
      7          1           0        1.948700   -0.012951   -0.520316
      8          6           0       -0.156998   -0.914755   -0.337714
 ---------------------------------------------------------------------

 SCF Done:  E(RB3LYP) =  -154.718829908     A.U. after   12 cycles

 The electronic state is 1-A.
 Alpha  occ. eigenvalues --  -10.22432 -10.20415 -10.20312 -10.20188  -0.92378
 Alpha  occ. eigenvalues --   -0.69443  -0.61190  -0.55280  -0.48450  -0.42177
 Alpha  occ. eigenvalues --   -0.41192  -0.37997  -0.30422  -0.22604
 Alpha virt. eigenvalues --   -0.04325  -0.02152   0.00075   0.01298   0.01583
 Alpha virt. eigenvalues --    0.03132   0.05211   0.07567   0.08046   0.08398
 Alpha virt. eigenvalues --    0.09452   0.10736   0.11377   0.12220   0.12829

 Mulliken charges:
               1
     1  C    0.042527
     2  H    0.212895
     3  C   -0.121080
     4  H    0.150683
     5  C   -0.332614
     6  H    0.184217
     7  H    0.112296
     8  C   -0.248924
 Sum of Mulliken charges =  -0.00000

 Dipole moment (field-independent basis, Debye):
    X=              0.0839    Y=              1.8260    Z=              0.7685  Tot=              1.9829
 Quadrupole moment (field-independent basis, Debye-Ang):
   XX=            -20.8228   YY=            -27.2832   ZZ=            -25.6404
   XY=             -0.6622   XZ=             -0.5844   YZ=             -3.1412

  Exact polarizability:  49.940   0.975  52.597  -0.789   3.866  36.803
 Approx polarizability:  73.612   0.892 101.513  -4.304  11.458  55.427

                      1                      2                      3
                      A                      A                      A
 Frequencies --    519.8170               619.0183               655.6401
 Red. masses --      2.3700                 2.1084                 3.9869
 Frc consts  --      0.3773                 0.4760                 1.0098
 IR Inten    --      8.5268                70.8028                19.5799

                      4                      5                      6
                      A                      A                      A
 Frequencies --    794.6797               945.4483              1015.9296
 Red. masses --      1.5150                 1.8614                 1.5487
 Frc consts  --      0.5637                 0.9803                 0.9418
 IR Inten    --     39.4835                52.5528                 5.9283

                      7                      8                      9
                      A                      A                      A
 Frequencies --   1036.3743              1070.4413              1105.5000
 Red. masses --      1.3146                 1.3534                 1.2227
 Frc consts  --      0.8319                 0.9137                 0.8804
 IR Inten    --      2.6293                 3.7802                 5.7356

                     10                     11                     12
                      A                      A                      A
 Frequencies --   1155.4529              1254.0522              1314.1548
 Red. masses --      1.7677                 1.8859                 2.4310
 Frc consts  --      1.3905                 1.7475                 2.4735
 IR Inten    --      0.3586                 3.9075                 5.5988

                     13                     14                     15
                      A                      A                      A
 Frequencies --   1466.8212              1503.7652              3074.5545
 Red. masses --      4.0913                 1.2238                 1.0872
 Frc consts  --      5.1864                 1.6305                 6.0551
 IR Inten    --      0.5122                 2.0315                24.8226

                     16                     17                     18
                      A                      A                      A
 Frequencies --   3095.9144              3174.1547              3257.5612
 Red. masses --      1.0624                 1.1093                 1.1046
 Frc consts  --      5.9995                 6.5850                 6.9062
 IR Inten    --     22.3841                 4.0635                 0.1294

 - Thermochemistry -
 -------------------
 Temperature   298.150 Kelvin.  Pressure   1.00000 Atm.
 Atom     1 has atomic number  6 and mass  12.00000

 Molecular mass:    52.03130 amu.
 Principal axes and moments of inertia in atomic units:
                           1         2         3
     Eigenvalues --    93.01720 154.01836 217.74204
           X            0.99959  -0.02880   0.00030
           Y            0.02870   0.99538  -0.09166
           Z            0.00234   0.09163   0.99579
 This molecule is an asymmetric top.
 Rotational symmetry number  1.
 Rotational temperatures (Kelvin)      0.93116     0.56236     0.39778
 Rotational constants (GHZ):          19.40223    11.71770     8.28844
 Zero-point vibrational energy     161850.4 (Joules/Mol)
                                   38.68318 (Kcal/Mol)
 Warning -- explicit consideration of   2 degrees of freedom as
           vibrations may cause significant error
 Vibrational temperatures:    747.90   890.63   943.32  1143.37  1360.29
          (Kelvin)           1461.69  1491.11  1540.12  1590.57  1662.44
                             1804.30  1890.77  2110.43  2163.58  4423.59
                             4454.32  4566.89  4686.90

 Zero-point correction=                           0.061646 (Hartree/Particle)
 Thermal correction to Energy=                    0.065269
 Thermal correction to Enthalpy=                  0.066213
 Thermal correction to Gibbs Free Energy=         0.036477
 Sum of electronic and zero-point Energies=           -154.657184
 Sum of electronic and thermal Energies=              -154.653561
 Sum of electronic and thermal Enthalpies=            -154.652617
 Sum of electronic and thermal Free Energies=         -154.682353

                     E (Thermal)             CV                S
                      KCal/Mol        Cal/Mol-Kelvin    Cal/Mol-Kelvin
 Total                   40.957             12.165             62.584
 Electronic               0.000              0.000              0.000
 Translational            0.889              2.981             37.771
 Rotational               0.889              2.981             22.660
 Vibrational             39.179              6.203              2.153
 Vibration     1          0.875              1.206              0.610
 Vibration     2          0.979              0.992              0.418

 Optimization completed.
    -- Stationary point found.
 Normal termination of Gaussian 09 at Tue Jun 21 21:06:03 2016.
