 Gaussian 09, Revision E.01,
 Gaussian 09:  EM64L-G09RevE.01 30-Nov-2015

 ---------------------------------------------
 #p b3lyp/6-311++G(3df,2p) freq symmetry=Loose
 ---------------------------------------------

 ---------
 b3lyp opt
 ---------
 Symbolic Z-matrix:
 Charge =  1 Multiplicity = 2

                         Standard orientation:
 ---------------------------------------------------------------------
 Center     Atomic      Atomic             Coordinates (Angstroms)
 Number     Number       Type             X           Y           Z
 ---------------------------------------------------------------------
      1          6           0        0.000000    0.686600    0.750171
      2          1           0        0.000000    1.452766    1.512186
      3          6           0        0.000000    0.686600   -0.750171
      4          1           0        0.000000    1.452766   -1.512186
      5          6           0       -0.000000   -0.686600    0.750171
      6          6           0       -0.000000   -0.686600   -0.750171
      7          1           0       -0.000000   -1.452766   -1.512186
      8          1           0       -0.000000   -1.452766    1.512186
 ---------------------------------------------------------------------

 SCF Done:  E(UB3LYP) =  -154.449865449     A.U. after    9 cycles

 The electronic state is 2-B2G.
 Alpha  occ. eigenvalues --  -10.47247 -10.47228 -10.47191 -10.47164  -1.16817
 Alpha  occ. eigenvalues --   -0.93408  -0.89016  -0.77904  -0.76730  -0.67182
 Alpha  occ. eigenvalues --   -0.64860  -0.64843  -0.60513  -0.46356
 Alpha virt. eigenvalues --   -0.35506  -0.18994  -0.14865  -0.14723  -0.13398
 Alpha virt. eigenvalues --   -0.12204  -0.10762  -0.10676  -0.08710  -0.08277
 Alpha virt. eigenvalues --   -0.05558  -0.05387  -0.04716  -0.02700  -0.01372

  Beta  occ. eigenvalues --  -10.46832 -10.46808 -10.46778 -10.46750  -1.15526
  Beta  occ. eigenvalues --   -0.91463  -0.88200  -0.77465  -0.75958  -0.66590
  Beta  occ. eigenvalues --   -0.64289  -0.60908  -0.60317
  Beta virt. eigenvalues --   -0.36536  -0.32777  -0.15342  -0.14783  -0.14392
  Beta virt. eigenvalues --   -0.13228  -0.11899  -0.10523  -0.10397  -0.08403
  Beta virt. eigenvalues --   -0.08267  -0.05319  -0.05050  -0.04466  -0.02291

 Mulliken charges and spin densities:
               1          2
     1  C   -0.031879   0.260949
     2  H    0.281879  -0.010949
     3  C   -0.031879   0.260949
     4  H    0.281879  -0.010949
     5  C   -0.031879   0.260949
     6  C   -0.031879   0.260949
     7  H    0.281879  -0.010949
     8  H    0.281879  -0.010949
 Sum of Mulliken charges =   1.00000   1.00000

 Dipole moment (field-independent basis, Debye):
    X=             -0.0000    Y=             -0.0000    Z=             -0.0000  Tot=              0.0000
 Quadrupole moment (field-independent basis, Debye-Ang):
   XX=            -22.3895   YY=            -13.3180   ZZ=            -13.3459
   XY=              0.0000   XZ=             -0.0000   YZ=             -0.0000

  Exact polarizability:  23.666  -0.000  42.540   0.000   0.000  42.067
 Approx polarizability:  35.536   0.000  73.104  -0.000   0.000  60.125

                      1                      2                      3
                     AU                     B3U                    B2U
 Frequencies --    268.4665               639.2509               833.0878
 Red. masses --      1.8288                 1.0848                 2.1767
 Frc consts  --      0.0777                 0.2612                 0.8901
 IR Inten    --      0.0000                79.8028                 0.9700

                      4                      5                      6
                     B3G                    B2G                    AU
 Frequencies --    836.2125               874.1008               949.4926
 Red. masses --      6.4169                 1.3141                 1.8912
 Frc consts  --      2.6437                 0.5916                 1.0045
 IR Inten    --      0.0000                 0.0000                 0.0000

                      7                      8                      9
                     B1G                    AG                     B1U
 Frequencies --    983.9276              1030.1256              1061.0223
 Red. masses --      1.3443                 1.2114                 1.1826
 Frc consts  --      0.7668                 0.7574                 0.7844
 IR Inten    --      0.0000                 0.0000                 0.8767

                     10                     11                     12
                     AG                     B3G                    B2U
 Frequencies --   1211.4353              1235.3552              1306.9201
 Red. masses --      3.5349                 1.3335                 1.6080
 Frc consts  --      3.0565                 1.1990                 1.6182
 IR Inten    --      0.0000                 0.0000                71.1368

                     13                     14                     15
                     B1U                    AG                     B3G
 Frequencies --   1489.8260              1509.7198              3203.6831
 Red. masses --      4.0207                 6.6409                 1.0835
 Frc consts  --      5.2580                 8.9180                 6.5522
 IR Inten    --     86.6274                 0.0000                 0.0000

                     16                     17                     18
                     B2U                    B1U                    AG
 Frequencies --   3226.0155              3239.2232              3247.2875
 Red. masses --      1.0916                 1.1073                 1.1209
 Frc consts  --      6.6935                 6.8453                 6.9640
 IR Inten    --     50.1645                29.7108                 0.0000

 - Thermochemistry -
 -------------------
 Temperature   298.150 Kelvin.  Pressure   1.00000 Atm.
 Atom     1 has atomic number  6 and mass  12.00000

 Molecular mass:    52.03130 amu.
 Principal axes and moments of inertia in atomic units:
                           1         2         3
     Eigenvalues --   111.18968 129.38221 240.57189
           X            0.00000   0.00000   1.00000
           Y            0.00000   1.00000  -0.00000
           Z            1.00000  -0.00000  -0.00000
 This molecule is an asymmetric top.
 Rotational symmetry number  4.
 Rotational temperatures (Kelvin)      0.77897     0.66944     0.36003
 Rotational constants (GHZ):          16.23119    13.94891     7.50188
 Zero-point vibrational energy     162364.1 (Joules/Mol)
                                   38.80594 (Kcal/Mol)
 Warning -- explicit consideration of   1 degrees of freedom as
           vibrations may cause significant error
 Vibrational temperatures:    386.26   919.74  1198.63  1203.12  1257.63
          (Kelvin)           1366.11  1415.65  1482.12  1526.57  1742.98
                             1777.40  1880.36  2143.52  2172.15  4609.38
                             4641.51  4660.51  4672.12

 Zero-point correction=                           0.061841 (Hartree/Particle)
 Thermal correction to Energy=                    0.065669
 Thermal correction to Enthalpy=                  0.066613
 Thermal correction to Gibbs Free Energy=         0.037078
 Sum of electronic and zero-point Energies=           -154.388024
 Sum of electronic and thermal Energies=              -154.384196
 Sum of electronic and thermal Enthalpies=            -154.383252
 Sum of electronic and thermal Free Energies=         -154.412787

                     E (Thermal)             CV                S
                      KCal/Mol        Cal/Mol-Kelvin    Cal/Mol-Kelvin
 Total                   41.208             12.536             62.162
 Electronic               0.000              0.000              1.377
 Translational            0.889              2.981             37.771
 Rotational               0.889              2.981             20.009
 Vibrational             39.430              6.575              3.005
 Vibration     1          0.673              1.731              1.606

 Optimization completed.
    -- Stationary point found.
 Normal termination of Gaussian 09 at Tue Jul 19 23:21:37 2016.
