 Gaussian 09, Revision E.01,
 Gaussian 09:  EM64L-G09RevE.01 30-Nov-2015

 ---------------------------------------------
 #p b3lyp/6-311++G(3df,2p) freq symmetry=Loose
 ---------------------------------------------

 ---------
 b3lyp opt
 ---------
 Symbolic Z-matrix:
 Charge =  3 Multiplicity = 4

                         Standard orientation:
 ---------------------------------------------------------------------
 Center     Atomic      Atomic             Coordinates (Angstroms)
 Number     Number       Type             X           Y           Z
 ---------------------------------------------------------------------
      1          6           0        1.350567   -0.075317    0.000000
      2          6           0        0.291335   -0.884368    0.000000
      3          6           0       -1.004536   -0.288899   -0.000000
      4          6           0       -0.000000    0.854776   -0.000000
      5          1           0       -1.900336   -0.485197    0.799659
      6          1           0       -1.900336   -0.485197   -0.799659
      7          1           0       -0.011761    1.666621    0.892100
      8          1           0       -0.011761    1.666621   -0.892100
 ---------------------------------------------------------------------

 SCF Done:  E(UB3LYP) =  -152.752236649     A.U. after   15 cycles

 The electronic state is 4-A'.
 Alpha  occ. eigenvalues --  -11.12871 -11.12718 -11.06102 -11.05949  -1.75924
 Alpha  occ. eigenvalues --   -1.52566  -1.43369  -1.32637  -1.26624  -1.22023
 Alpha  occ. eigenvalues --   -1.20892  -1.13888  -1.13238  -1.09610
 Alpha virt. eigenvalues --   -0.87615  -0.82274  -0.66981  -0.63989  -0.61307
 Alpha virt. eigenvalues --   -0.60758  -0.55646  -0.53435  -0.49679  -0.47579
 Alpha virt. eigenvalues --   -0.44410  -0.44211  -0.41799  -0.39641  -0.39350

  Beta  occ. eigenvalues --  -11.12176 -11.09781 -11.05648 -11.05283  -1.73037
  Beta  occ. eigenvalues --   -1.48423  -1.39915  -1.28719  -1.19918  -1.19533
  Beta  occ. eigenvalues --   -1.17946
  Beta virt. eigenvalues --   -1.00459  -0.95626  -0.92611  -0.85208  -0.73508
  Beta virt. eigenvalues --   -0.63646  -0.59831  -0.59780  -0.58671  -0.53996
  Beta virt. eigenvalues --   -0.48902  -0.48610  -0.46147  -0.43322  -0.42781

 Mulliken charges and spin densities:
               1          2
     1  C    0.522210   1.423677
     2  C    0.929676   0.291888
     3  C    0.010093   0.373390
     4  C   -0.012000   0.205245
     5  H    0.388268   0.175708
     6  H    0.388268   0.175708
     7  H    0.386743   0.177192
     8  H    0.386743   0.177192
 Sum of Mulliken charges =   3.00000   3.00000

 Dipole moment (field-independent basis, Debye):
    X=             -2.8753    Y=              1.4068    Z=              0.0000  Tot=              3.2010
 Quadrupole moment (field-independent basis, Debye-Ang):
   XX=              4.7810   YY=             -2.5995   ZZ=            -12.2484
   XY=              2.6134   XZ=             -0.0000   YZ=             -0.0000

  Exact polarizability:  40.489   3.188  37.043  -0.000  -0.000  23.512
 Approx polarizability:  76.011   8.358  78.170   0.000   0.000  35.987

                      1                      2                      3
                     A"                     A"                     A'
 Frequencies --    321.6084               353.7903               383.0958
 Red. masses --      1.3883                 1.5566                 9.2631
 Frc consts  --      0.0846                 0.1148                 0.8010
 IR Inten    --      3.7839                12.2971                81.3951

                      4                      5                      6
                     A"                     A'                     A"
 Frequencies --    580.3323               602.2289               638.3105
 Red. masses --      1.1429                 8.4148                 1.3892
 Frc consts  --      0.2268                 1.7981                 0.3335
 IR Inten    --    112.6617                34.1184                13.2560

                      7                      8                      9
                     A"                     A'                     A'
 Frequencies --    681.2545               705.5417               814.4717
 Red. masses --      1.6655                 1.1503                 1.2925
 Frc consts  --      0.4554                 0.3374                 0.5052
 IR Inten    --     35.0372               461.2251                94.2563

                     10                     11                     12
                     A'                     A'                     A'
 Frequencies --    920.6957               980.8266              1031.8913
 Red. masses --      1.4065                 2.0625                 1.1528
 Frc consts  --      0.7025                 1.1690                 0.7232
 IR Inten    --    196.9272                68.2665               130.6434

                     13                     14                     15
                     A'                     A'                     A"
 Frequencies --   1138.3503              1574.3550              1701.5920
 Red. masses --      4.6446                 9.0294                 1.0514
 Frc consts  --      3.5461                13.1861                 1.7936
 IR Inten    --     28.2702                63.2629               833.5988

                     16                     17                     18
                     A"                     A'                     A'
 Frequencies --   1798.1882              2119.0884              2283.0307
 Red. masses --      1.0592                 1.1215                 1.1275
 Frc consts  --      2.0179                 2.9672                 3.4624
 IR Inten    --    523.1107              1477.2027               728.6681

 - Thermochemistry -
 -------------------
 Temperature   298.150 Kelvin.  Pressure   1.00000 Atm.
 Atom     1 has atomic number  6 and mass  12.00000

 Molecular mass:    52.03130 amu.
 Principal axes and moments of inertia in atomic units:
                           1         2         3
     Eigenvalues --   100.00294 160.66690 240.00724
           X            0.99765  -0.06845   0.00000
           Y            0.06845   0.99765   0.00000
           Z            0.00000  -0.00000   1.00000
 This molecule is an asymmetric top.
 Rotational symmetry number  1.
 Rotational temperatures (Kelvin)      0.86611     0.53909     0.36088
 Rotational constants (GHZ):          18.04688    11.23281     7.51953
 Zero-point vibrational energy     111424.1 (Joules/Mol)
                                   26.63100 (Kcal/Mol)
 Warning -- explicit consideration of   5 degrees of freedom as
           vibrations may cause significant error
 Vibrational temperatures:    462.72   509.02   551.19   834.97   866.47
          (Kelvin)            918.39   980.17  1015.12  1171.84  1324.67
                             1411.19  1484.66  1637.83  2265.14  2448.21
                             2587.19  3048.89  3284.77

 Zero-point correction=                           0.042439 (Hartree/Particle)
 Thermal correction to Energy=                    0.047275
 Thermal correction to Enthalpy=                  0.048219
 Thermal correction to Gibbs Free Energy=         0.015245
 Sum of electronic and zero-point Energies=           -152.709797
 Sum of electronic and thermal Energies=              -152.704961
 Sum of electronic and thermal Enthalpies=            -152.704017
 Sum of electronic and thermal Free Energies=         -152.736992

                     E (Thermal)             CV                S
                      KCal/Mol        Cal/Mol-Kelvin    Cal/Mol-Kelvin
 Total                   29.666             17.626             69.401
 Electronic               0.000              0.000              2.755
 Translational            0.889              2.981             37.771
 Rotational               0.889              2.981             22.871
 Vibrational             27.888             11.664              6.005
 Vibration     1          0.707              1.632              1.302
 Vibration     2          0.730              1.567              1.149
 Vibration     3          0.752              1.506              1.027
 Vibration     4          0.937              1.074              0.485
 Vibration     5          0.961              1.027              0.446

 Optimization completed.
    -- Stationary point found.
 Normal termination of Gaussian 09 at Tue Jul 19 22:37:04 2016.
