 Gaussian 09, Revision E.01,
 Gaussian 09:  EM64L-G09RevE.01 30-Nov-2015

 ---------------------------------------------
 #p b3lyp/6-311++G(3df,2p) freq symmetry=Loose
 ---------------------------------------------

 ---------
 b3lyp opt
 ---------
 Symbolic Z-matrix:
 Charge =  1 Multiplicity = 4

                         Standard orientation:
 ---------------------------------------------------------------------
 Center     Atomic      Atomic             Coordinates (Angstroms)
 Number     Number       Type             X           Y           Z
 ---------------------------------------------------------------------
      1          6           0       -0.947554   -0.772506   -0.301457
      2          6           0        0.162229   -0.168134    0.403009
      3          1           0        0.187170   -0.373538    1.500939
      4          6           0        1.501119    0.141181   -0.174153
      5          1           0        2.140174   -0.693632   -0.427351
      6          1           0        1.828859    1.169117   -0.228559
      7          6           0       -1.134697    0.534340   -0.052003
      8          1           0       -1.642784    1.488766   -0.097406
 ---------------------------------------------------------------------

 SCF Done:  E(UB3LYP) =  -154.278853924     A.U. after   14 cycles

 The electronic state is 4-A.
 Alpha  occ. eigenvalues --  -10.53391 -10.53106 -10.49706 -10.41890  -1.20420
 Alpha  occ. eigenvalues --   -0.97380  -0.86303  -0.81883  -0.72978  -0.70747
 Alpha  occ. eigenvalues --   -0.66484  -0.63857  -0.56579  -0.52986  -0.45176
 Alpha virt. eigenvalues --   -0.31218  -0.16973  -0.15821  -0.14127  -0.12965
 Alpha virt. eigenvalues --   -0.11624  -0.09721  -0.09552  -0.07585  -0.06768
 Alpha virt. eigenvalues --   -0.05645  -0.05262  -0.03849  -0.02584  -0.02160

  Beta  occ. eigenvalues --  -10.52045 -10.51537 -10.49397 -10.40222  -1.17215
  Beta  occ. eigenvalues --   -0.92959  -0.83777  -0.77957  -0.68518  -0.67552
  Beta  occ. eigenvalues --   -0.63473  -0.60621
  Beta virt. eigenvalues --   -0.44409  -0.39212  -0.28802  -0.25000  -0.15551
  Beta virt. eigenvalues --   -0.15253  -0.13128  -0.11993  -0.10652  -0.09248
  Beta virt. eigenvalues --   -0.08337  -0.06635  -0.06091  -0.05044  -0.04619

 Mulliken charges and spin densities:
               1          2
     1  C    0.071501   1.080784
     2  C    0.190430  -0.032705
     3  H    0.234177   0.152862
     4  C   -0.589062   1.197386
     5  H    0.233459  -0.004273
     6  H    0.232243  -0.013622
     7  C    0.277317   0.631930
     8  H    0.349935  -0.012362
 Sum of Mulliken charges =   1.00000   3.00000

 Dipole moment (field-independent basis, Debye):
    X=             -1.1608    Y=              1.2578    Z=              0.7447  Tot=              1.8666
 Quadrupole moment (field-independent basis, Debye-Ang):
   XX=            -13.0131   YY=            -17.6276   ZZ=            -20.1359
   XY=             -2.6122   XZ=             -0.3643   YZ=             -0.6790

  Exact polarizability:  49.746   0.701  37.074   1.897   0.915  30.961
 Approx polarizability:  70.684   2.036  61.953   5.278   3.945  46.715

                      1                      2                      3
                      A                      A                      A
 Frequencies --    155.1407               299.1604               392.6454
 Red. masses --      1.1040                 2.3102                 6.1871
 Frc consts  --      0.0157                 0.1218                 0.5620
 IR Inten    --      0.0931                 3.3098                 1.5341

                      4                      5                      6
                      A                      A                      A
 Frequencies --    457.3616               661.4044               686.7025
 Red. masses --      1.1946                 1.3240                 2.8833
 Frc consts  --      0.1472                 0.3413                 0.8011
 IR Inten    --     57.8299                 8.6684                 5.8305

                      7                      8                      9
                      A                      A                      A
 Frequencies --    850.2423               864.9456               899.8367
 Red. masses --      1.1862                 4.8124                 1.4006
 Frc consts  --      0.5052                 2.1212                 0.6682
 IR Inten    --     46.2195                 5.9499                39.8908

                     10                     11                     12
                      A                      A                      A
 Frequencies --   1000.4120              1028.9461              1137.6590
 Red. masses --      1.5999                 1.3448                 3.8061
 Frc consts  --      0.9434                 0.8389                 2.9024
 IR Inten    --     12.4250                33.5043                11.4147

                     13                     14                     15
                      A                      A                      A
 Frequencies --   1380.3409              1505.7126              2749.4492
 Red. masses --      1.1624                 5.9995                 1.0697
 Frc consts  --      1.3049                 8.0140                 4.7645
 IR Inten    --      2.6483                 9.0027                83.0779

                     16                     17                     18
                      A                      A                      A
 Frequencies --   3131.0856              3226.6182              3268.0298
 Red. masses --      1.0440                 1.1103                 1.1240
 Frc consts  --      6.0300                 6.8108                 7.0727
 IR Inten    --     35.2859               108.4269                22.3379

 - Thermochemistry -
 -------------------
 Temperature   298.150 Kelvin.  Pressure   1.00000 Atm.
 Atom     1 has atomic number  6 and mass  12.00000

 Molecular mass:    52.03130 amu.
 Principal axes and moments of inertia in atomic units:
                           1         2         3
     Eigenvalues --    75.77658 250.57906 284.29942
           X            0.99923  -0.03729  -0.01252
           Y            0.03638   0.99715  -0.06603
           Z            0.01495   0.06552   0.99774
 This molecule is an asymmetric top.
 Rotational symmetry number  1.
 Rotational temperatures (Kelvin)      1.14302     0.34565     0.30466
 Rotational constants (GHZ):          23.81661     7.20228     6.34803
 Zero-point vibrational energy     141731.7 (Joules/Mol)
                                   33.87469 (Kcal/Mol)
 Warning -- explicit consideration of   4 degrees of freedom as
           vibrations may cause significant error
 Vibrational temperatures:    223.21   430.42   564.93   658.04   951.61
          (Kelvin)            988.01  1223.31  1244.46  1294.66  1439.37
                             1480.42  1636.84  1986.00  2166.38  3955.84
                             4504.93  4642.38  4701.96

 Zero-point correction=                           0.053983 (Hartree/Particle)
 Thermal correction to Energy=                    0.058977
 Thermal correction to Enthalpy=                  0.059921
 Thermal correction to Gibbs Free Energy=         0.026219
 Sum of electronic and zero-point Energies=           -154.224871
 Sum of electronic and thermal Energies=              -154.219877
 Sum of electronic and thermal Enthalpies=            -154.218932
 Sum of electronic and thermal Free Energies=         -154.252635

                     E (Thermal)             CV                S
                      KCal/Mol        Cal/Mol-Kelvin    Cal/Mol-Kelvin
 Total                   37.009             16.906             70.933
 Electronic               0.000              0.000              2.755
 Translational            0.889              2.981             37.771
 Rotational               0.889              2.981             23.205
 Vibrational             35.231             10.944              7.203
 Vibration     1          0.620              1.897              2.608
 Vibration     2          0.692              1.675              1.422
 Vibration     3          0.760              1.486              0.990
 Vibration     4          0.815              1.345              0.774

 Normal termination of Gaussian 09 at Tue Jun 21 22:57:02 2016.
