 Gaussian 09, Revision E.01,
 Gaussian 09:  EM64L-G09RevE.01 30-Nov-2015

 ---------------------------------------------
 #p b3lyp/6-311++G(3df,2p) freq symmetry=Loose
 ---------------------------------------------

 ---------
 b3lyp opt
 ---------
 Symbolic Z-matrix:
 Charge =  1 Multiplicity = 4

                         Standard orientation:
 ---------------------------------------------------------------------
 Center     Atomic      Atomic             Coordinates (Angstroms)
 Number     Number       Type             X           Y           Z
 ---------------------------------------------------------------------
      1          6           0       -1.085779   -0.000934   -0.000112
      2          1           0       -2.162052   -0.000223   -0.000386
      3          6           0        0.000614   -0.964890   -0.145122
      4          1           0        0.002403   -1.898736    0.443195
      5          6           0       -0.000583    0.964565    0.145013
      6          6           0        1.085719    0.000868    0.000220
      7          1           0       -0.001939    1.899942   -0.441011
      8          1           0        2.161761    0.001366   -0.001791
 ---------------------------------------------------------------------

 SCF Done:  E(UB3LYP) =  -154.326158311     A.U. after   12 cycles

 The electronic state is 4-A.
 Alpha  occ. eigenvalues --  -10.48975 -10.48969 -10.47653 -10.47647  -1.18047
 Alpha  occ. eigenvalues --   -0.93271  -0.92230  -0.78458  -0.77192  -0.69179
 Alpha  occ. eigenvalues --   -0.67639  -0.66160  -0.57253  -0.49049  -0.46742
 Alpha virt. eigenvalues --   -0.26109  -0.15433  -0.15203  -0.13736  -0.12345
 Alpha virt. eigenvalues --   -0.11815  -0.09439  -0.08322  -0.06929  -0.06891
 Alpha virt. eigenvalues --   -0.06306  -0.05566  -0.02748  -0.02114  -0.01178

  Beta  occ. eigenvalues --  -10.47786 -10.47778 -10.46464 -10.46460  -1.13892
  Beta  occ. eigenvalues --   -0.89412  -0.87849  -0.76781  -0.73313  -0.64995
  Beta  occ. eigenvalues --   -0.64913  -0.63314
  Beta virt. eigenvalues --   -0.44376  -0.34491  -0.32700  -0.16976  -0.15014
  Beta virt. eigenvalues --   -0.14309  -0.13152  -0.11378  -0.11097  -0.08789
  Beta virt. eigenvalues --   -0.08209  -0.06246  -0.05690  -0.05371  -0.04675

 Mulliken charges and spin densities:
               1          2
     1  C   -0.132783   0.800291
     2  H    0.304802  -0.023929
     3  C    0.113972   0.634134
     4  H    0.213944   0.090070
     5  C    0.114115   0.633396
     6  C   -0.132696   0.800130
     7  H    0.213752   0.089815
     8  H    0.304894  -0.023907
 Sum of Mulliken charges =   1.00000   3.00000

 Dipole moment (field-independent basis, Debye):
    X=              0.0002    Y=              0.0028    Z=              0.0006  Tot=              0.0028
 Quadrupole moment (field-independent basis, Debye-Ang):
   XX=            -12.7994   YY=            -14.2225   ZZ=            -22.6789
   XY=             -0.0060   XZ=             -0.0009   YZ=             -1.8289

  Exact polarizability:  44.760  -0.005  44.695   0.003   0.311  25.665
 Approx polarizability:  72.178  -0.011  78.761   0.009   4.800  38.521

                      1                      2                      3
                      A                      A                      A
 Frequencies --    369.4870               432.6592               491.4215
 Red. masses --      1.2857                 1.1305                 2.1271
 Frc consts  --      0.1034                 0.1247                 0.3027
 IR Inten    --      0.0038               123.2892                 4.4511

                      4                      5                      6
                      A                      A                      A
 Frequencies --    605.9812               703.8299               872.4469
 Red. masses --      1.5295                 2.9650                 1.9676
 Frc consts  --      0.3309                 0.8654                 0.8824
 IR Inten    --     40.1752                 0.0002                29.2803

                      7                      8                      9
                      A                      A                      A
 Frequencies --    909.4943               917.7484               966.0511
 Red. masses --      1.1328                 1.7281                 1.2289
 Frc consts  --      0.5521                 0.8576                 0.6757
 IR Inten    --     66.8220                 0.0004                 0.0011

                     10                     11                     12
                      A                      A                      A
 Frequencies --   1051.8665              1052.8757              1147.8693
 Red. masses --      4.5163                 4.2433                 1.3290
 Frc consts  --      2.9441                 2.7714                 1.0317
 IR Inten    --      0.8716                 0.4459                 0.0003

                     13                     14                     15
                      A                      A                      A
 Frequencies --   1188.5939              1210.4600              2941.9382
 Red. masses --      5.9369                 1.8029                 1.0830
 Frc consts  --      4.9417                 1.5564                 5.5226
 IR Inten    --      0.0001                 5.5312               223.5544

                     16                     17                     18
                      A                      A                      A
 Frequencies --   2951.4102              3274.0595              3283.4734
 Red. masses --      1.0783                 1.0934                 1.1069
 Frc consts  --      5.5340                 6.9058                 7.0313
 IR Inten    --      0.1810               144.0077                 1.8318

 - Thermochemistry -
 -------------------
 Temperature   298.150 Kelvin.  Pressure   1.00000 Atm.
 Atom     1 has atomic number  6 and mass  12.00000

 Molecular mass:    52.03130 amu.
 Principal axes and moments of inertia in atomic units:
                           1         2         3
     Eigenvalues --   108.94347 137.54288 240.75365
           X            1.00000  -0.00060  -0.00002
           Y            0.00060   0.99833  -0.05775
           Z            0.00006   0.05775   0.99833
 This molecule is an asymmetric top.
 Rotational symmetry number  1.
 Rotational temperatures (Kelvin)      0.79503     0.62972     0.35976
 Rotational constants (GHZ):          16.56585    13.12130     7.49622
 Zero-point vibrational energy     145774.9 (Joules/Mol)
                                   34.84105 (Kcal/Mol)
 Warning -- explicit consideration of   4 degrees of freedom as
           vibrations may cause significant error
 Vibrational temperatures:    531.61   622.50   707.04   871.87  1012.65
          (Kelvin)           1255.25  1308.56  1320.43  1389.93  1513.40
                             1514.85  1651.53  1710.12  1741.58  4232.79
                             4246.42  4710.64  4724.18

 Zero-point correction=                           0.055523 (Hartree/Particle)
 Thermal correction to Energy=                    0.059792
 Thermal correction to Enthalpy=                  0.060736
 Thermal correction to Gibbs Free Energy=         0.028666
 Sum of electronic and zero-point Energies=           -154.270636
 Sum of electronic and thermal Energies=              -154.266367
 Sum of electronic and thermal Enthalpies=            -154.265422
 Sum of electronic and thermal Free Energies=         -154.297492

                     E (Thermal)             CV                S
                      KCal/Mol        Cal/Mol-Kelvin    Cal/Mol-Kelvin
 Total                   37.520             15.223             67.496
 Electronic               0.000              0.000              2.755
 Translational            0.889              2.981             37.771
 Rotational               0.889              2.981             22.805
 Vibrational             35.742              9.262              4.166
 Vibration     1          0.742              1.535              1.082
 Vibration     2          0.794              1.399              0.850
 Vibration     3          0.847              1.269              0.680
 Vibration     4          0.965              1.019              0.439

 Normal termination of Gaussian 09 at Tue Jun 21 22:33:29 2016.
