 Gaussian 09, Revision E.01,
 Gaussian 09:  EM64L-G09RevE.01 30-Nov-2015

 ---------------------------------------------
 #p b3lyp/6-311++G(3df,2p) freq symmetry=Loose
 ---------------------------------------------

 ---------
 b3lyp opt
 ---------
 Symbolic Z-matrix:
 Charge =  2 Multiplicity = 1

                         Standard orientation:
 ---------------------------------------------------------------------
 Center     Atomic      Atomic             Coordinates (Angstroms)
 Number     Number       Type             X           Y           Z
 ---------------------------------------------------------------------
      1          6           0        0.000021    1.592451    0.000000
      2          1           0       -0.948399    2.154109    0.000000
      3          1           0        0.948778    2.153375    0.000000
      4          6           0        0.000021   -1.020313    0.662095
      5          1           0        0.000150   -1.455603    1.665622
      6          6           0       -0.000175    0.215463    0.000000
      7          6           0        0.000021   -1.020313   -0.662095
      8          1           0        0.000150   -1.455603   -1.665622
 ---------------------------------------------------------------------

 SCF Done:  E(RB3LYP) =  -153.904533331     A.U. after   10 cycles

 The electronic state is 1-A'.
 Alpha  occ. eigenvalues --  -10.78832 -10.76996 -10.75338 -10.75249  -1.46209
 Alpha  occ. eigenvalues --   -1.27879  -1.07879  -1.04803  -1.01154  -0.97154
 Alpha  occ. eigenvalues --   -0.90119  -0.87496  -0.87314
 Alpha virt. eigenvalues --   -0.63496  -0.53751  -0.50351  -0.35624  -0.32030
 Alpha virt. eigenvalues --   -0.30082  -0.29475  -0.28512  -0.28476  -0.28454
 Alpha virt. eigenvalues --   -0.25332  -0.25088  -0.23307  -0.20395  -0.19880

 Mulliken charges:
               1
     1  C   -0.338386
     2  H    0.326221
     3  H    0.326136
     4  C    0.298463
     5  H    0.384235
     6  C    0.320632
     7  C    0.298463
     8  H    0.384235
 Sum of Mulliken charges =   2.00000

 Dipole moment (field-independent basis, Debye):
    X=              0.0004    Y=              1.8246    Z=             -0.0000  Tot=              1.8246
 Quadrupole moment (field-independent basis, Debye-Ang):
   XX=            -17.1035   YY=              4.3312   ZZ=            -10.3636
   XY=             -0.0010   XZ=              0.0000   YZ=             -0.0000

  Exact polarizability:  21.385  -0.001  49.862   0.000  -0.000  28.450
 Approx polarizability:  30.898  -0.002  85.261   0.000   0.000  44.674

                      1                      2                      3
                     A"                     A'                     A"
 Frequencies --    246.4945               380.2902               478.2674
 Red. masses --      2.8888                 2.3392                 1.1654
 Frc consts  --      0.1034                 0.1993                 0.1571
 IR Inten    --     20.7172                22.9293                 0.0000

                      4                      5                      6
                     A'                     A'                     A"
 Frequencies --    826.7849               829.8526               925.5013
 Red. masses --      1.1578                 1.9317                 1.3317
 Frc consts  --      0.4663                 0.7838                 0.6721
 IR Inten    --     45.6579                 1.1892                 0.0000

                      7                      8                      9
                     A"                     A'                     A'
 Frequencies --    972.5244               977.5974               990.8049
 Red. masses --      5.1464                 1.6738                 1.6417
 Frc consts  --      2.8678                 0.9425                 0.9495
 IR Inten    --     92.9200                 0.7525                 7.3719

                     10                     11                     12
                     A"                     A"                     A'
 Frequencies --   1015.1195              1193.0752              1267.1384
 Red. masses --      1.2815                 1.5756                 4.4391
 Frc consts  --      0.7780                 1.3214                 4.1995
 IR Inten    --      2.0702                 0.0567               148.1909

                     13                     14                     15
                     A'                     A'                     A'
 Frequencies --   1398.2229              1741.5811              2971.4770
 Red. masses --      1.2385                 5.1637                 1.0531
 Frc consts  --      1.4266                 9.2278                 5.4784
 IR Inten    --     14.2949               127.6099               236.7636

                     16                     17                     18
                     A'                     A"                     A'
 Frequencies --   3070.8558              3099.1319              3151.4534
 Red. masses --      1.1214                 1.0955                 1.1663
 Frc consts  --      6.2308                 6.1995                 6.8245
 IR Inten    --    171.4774               346.4345               165.7702

 - Thermochemistry -
 -------------------
 Temperature   298.150 Kelvin.  Pressure   1.00000 Atm.
 Atom     1 has atomic number  6 and mass  12.00000

 Molecular mass:    52.03130 amu.
 Principal axes and moments of inertia in atomic units:
                           1         2         3
     Eigenvalues --    64.01714 254.86765 305.93094
           X           -0.00001  -0.00000   1.00000
           Y            1.00000  -0.00000   0.00001
           Z            0.00000   1.00000   0.00000
 This molecule is an asymmetric top.
 Rotational symmetry number  1.
 Rotational temperatures (Kelvin)      1.35298     0.33984     0.28312
 Rotational constants (GHZ):          28.19153     7.08109     5.89918
 Zero-point vibrational energy     152740.2 (Joules/Mol)
                                   36.50579 (Kcal/Mol)
 Warning -- explicit consideration of   3 degrees of freedom as
           vibrations may cause significant error
 Vibrational temperatures:    354.65   547.15   688.12  1189.56  1193.97
          (Kelvin)           1331.59  1399.24  1406.54  1425.55  1460.53
                             1716.57  1823.13  2011.73  2505.74  4275.29
                             4418.27  4458.95  4534.23

 Zero-point correction=                           0.058176 (Hartree/Particle)
 Thermal correction to Energy=                    0.062453
 Thermal correction to Enthalpy=                  0.063397
 Thermal correction to Gibbs Free Energy=         0.032328
 Sum of electronic and zero-point Energies=           -153.846358
 Sum of electronic and thermal Energies=              -153.842080
 Sum of electronic and thermal Enthalpies=            -153.841136
 Sum of electronic and thermal Free Energies=         -153.872206

                     E (Thermal)             CV                S
                      KCal/Mol        Cal/Mol-Kelvin    Cal/Mol-Kelvin
 Total                   39.190             14.289             65.392
 Electronic               0.000              0.000              0.000
 Translational            0.889              2.981             37.771
 Rotational               0.889              2.981             23.128
 Vibrational             37.412              8.328              4.493
 Vibration     1          0.661              1.769              1.756
 Vibration     2          0.750              1.512              1.038
 Vibration     3          0.835              1.298              0.715

 Optimization completed.
    -- Stationary point found.
 Normal termination of Gaussian 09 at Tue Jul 19 18:05:13 2016.
