 Gaussian 09, Revision E.01,
 Gaussian 09:  EM64L-G09RevE.01 30-Nov-2015

 ------------------------------------------------------
 #p b3lyp/6-311++G(3df,2p) freq IOp(2/17=3) IOp(2/18=3)
 ------------------------------------------------------

 ---------
 b3lyp opt
 ---------
 Symbolic Z-matrix:
 Charge =  3 Multiplicity = 4

                         Standard orientation:
 ---------------------------------------------------------------------
 Center     Atomic      Atomic             Coordinates (Angstroms)
 Number     Number       Type             X           Y           Z
 ---------------------------------------------------------------------
      1          6           0        0.000000    0.000000   -1.011805
      2          1           0       -0.000000    0.838527   -1.857136
      3          1           0       -0.000000   -0.838527   -1.857136
      4          6           0       -0.000000    0.000000    1.259813
      5          6           0        0.938516   -0.000000    0.158238
      6          1           0        2.151124   -0.000000    0.163786
      7          6           0       -0.938516    0.000000    0.158238
      8          1           0       -2.151124    0.000000    0.163786
 ---------------------------------------------------------------------

 SCF Done:  E(UB3LYP) =  -152.789880728     A.U. after   13 cycles

 The electronic state is 4-A2.
 Alpha  occ. eigenvalues --  -11.10996 -11.10995 -11.10087 -11.03508  -1.75215
 Alpha  occ. eigenvalues --   -1.49533  -1.44293  -1.30043  -1.28991  -1.23104
 Alpha  occ. eigenvalues --   -1.22399  -1.13752  -1.10515  -1.09395
 Alpha virt. eigenvalues --   -0.90477  -0.80283  -0.64913  -0.60916  -0.58673
 Alpha virt. eigenvalues --   -0.56191  -0.55764  -0.52639  -0.50859  -0.50320
 Alpha virt. eigenvalues --   -0.44501  -0.43793  -0.42583  -0.40713  -0.39509

  Beta  occ. eigenvalues --  -11.10445 -11.10443 -11.07074 -11.02696  -1.71321
  Beta  occ. eigenvalues --   -1.44905  -1.40849  -1.24703  -1.24025  -1.19870
  Beta  occ. eigenvalues --   -1.17645
  Beta virt. eigenvalues --   -1.02078  -0.97508  -0.89062  -0.88387  -0.72913
  Beta virt. eigenvalues --   -0.61825  -0.57662  -0.57196  -0.54853  -0.52816
  Beta virt. eigenvalues --   -0.49448  -0.49316  -0.45699  -0.43613  -0.42982

 Mulliken charges and spin densities:
               1          2
     1  C   -0.165993   0.400655
     2  H    0.362016   0.142974
     3  H    0.362016   0.142974
     4  C    0.420362   1.503176
     5  C    0.562137   0.215955
     6  H    0.448663   0.189155
     7  C    0.562137   0.215955
     8  H    0.448663   0.189155
 Sum of Mulliken charges =   3.00000   3.00000

 Dipole moment (field-independent basis, Debye):
    X=             -0.0000    Y=              0.0000    Z=             -2.2870  Tot=              2.2870
 Quadrupole moment (field-independent basis, Debye-Ang):
   XX=              5.2401   YY=            -15.1514   ZZ=              1.0059
   XY=             -0.0000   XZ=              0.0000   YZ=             -0.0000

  Exact polarizability:  44.766   0.000  20.286   0.000   0.000  40.802
 Approx polarizability:  91.773  -0.000  31.369   0.000   0.000  80.273

                      1                      2                      3
                     B2                     A1                     A2
 Frequencies --    179.9586               400.7357               418.1646
 Red. masses --      1.5836                 1.3721                 1.4552
 Frc consts  --      0.0302                 0.1298                 0.1499
 IR Inten    --     15.9549               153.8570                 0.0000

                      4                      5                      6
                     B1                     B2                     A2
 Frequencies --    521.0003               553.8940               764.0881
 Red. masses --      6.7288                 1.2077                 1.0091
 Frc consts  --      1.0761                 0.2183                 0.3471
 IR Inten    --      6.7733               175.3968                 0.0000

                      7                      8                      9
                     A1                     B1                     B2
 Frequencies --    769.6271               781.2019               812.7257
 Red. masses --      3.5886                 1.1595                 2.5610
 Frc consts  --      1.2524                 0.4169                 0.9967
 IR Inten    --    109.1072                 3.4548                 4.0971

                     10                     11                     12
                     A1                     A1                     B1
 Frequencies --    887.1304               922.6026               950.8466
 Red. masses --      1.4145                 2.5201                 2.0393
 Frc consts  --      0.6559                 1.2639                 1.0863
 IR Inten    --    542.5240                50.3458                 3.2402

                     13                     14                     15
                     B1                     A1                     B1
 Frequencies --   1034.6045              1146.5174              1727.8487
 Red. masses --      2.4179                 4.0797                 1.0668
 Frc consts  --      1.5249                 3.1596                 1.8764
 IR Inten    --     48.0631                 0.3069              3796.4012

                     16                     17                     18
                     B2                     A1                     A1
 Frequencies --   1989.7850              2174.5415              2306.4378
 Red. masses --      1.0655                 1.1446                 1.0887
 Frc consts  --      2.4854                 3.1888                 3.4123
 IR Inten    --    587.6823                21.8295              1080.6966

 - Thermochemistry -
 -------------------
 Temperature   298.150 Kelvin.  Pressure   1.00000 Atm.
 Atom     1 has atomic number  6 and mass  12.00000

 Molecular mass:    52.03130 amu.
 Principal axes and moments of inertia in atomic units:
                           1         2         3
     Eigenvalues --   113.85932 143.33417 247.07124
           X            0.00000   1.00000   0.00000
           Y            0.00000  -0.00000   1.00000
           Z            1.00000   0.00000  -0.00000
 This molecule is an asymmetric top.
 Rotational symmetry number  2.
 Rotational temperatures (Kelvin)      0.76071     0.60428     0.35056
 Rotational constants (GHZ):          15.85062    12.59114     7.30454
 Zero-point vibrational energy     109707.8 (Joules/Mol)
                                   26.22079 (Kcal/Mol)
 Warning -- explicit consideration of   5 degrees of freedom as
           vibrations may cause significant error
 Vibrational temperatures:    258.92   576.57   601.64   749.60   796.93
          (Kelvin)           1099.35  1107.32  1123.97  1169.33  1276.38
                             1327.42  1368.05  1488.56  1649.58  2485.99
                             2862.85  3128.68  3318.45

 Zero-point correction=                           0.041785 (Hartree/Particle)
 Thermal correction to Energy=                    0.046750
 Thermal correction to Enthalpy=                  0.047695
 Thermal correction to Gibbs Free Energy=         0.014998
 Sum of electronic and zero-point Energies=           -152.748095
 Sum of electronic and thermal Energies=              -152.743130
 Sum of electronic and thermal Enthalpies=            -152.742186
 Sum of electronic and thermal Free Energies=         -152.774882

                     E (Thermal)             CV                S
                      KCal/Mol        Cal/Mol-Kelvin    Cal/Mol-Kelvin
 Total                   29.336             17.849             68.815
 Electronic               0.000              0.000              2.755
 Translational            0.889              2.981             37.771
 Rotational               0.889              2.981             21.538
 Vibrational             27.559             11.887              6.752
 Vibration     1          0.629              1.867              2.329
 Vibration     2          0.767              1.469              0.960
 Vibration     3          0.781              1.431              0.898
 Vibration     4          0.876              1.203              0.608
 Vibration     5          0.909              1.131              0.536

 Optimization completed.
    -- Stationary point found.
 Normal termination of Gaussian 09 at Thu Jan 31 06:23:24 2019.
