 Gaussian 09, Revision E.01,
 Gaussian 09:  EM64L-G09RevE.01 30-Nov-2015

 ---------------------------------------------
 #p b3lyp/6-311++G(3df,2p) freq symmetry=Loose
 ---------------------------------------------

 ---------
 b3lyp opt
 ---------
 Symbolic Z-matrix:
 Charge =  3 Multiplicity = 2

                         Standard orientation:
 ---------------------------------------------------------------------
 Center     Atomic      Atomic             Coordinates (Angstroms)
 Number     Number       Type             X           Y           Z
 ---------------------------------------------------------------------
      1          6           0       -0.260114    0.663605    0.000000
      2          1           0       -1.395887    0.877862    0.000000
      3          6           0        0.260114   -0.663605    0.000000
      4          1           0        1.395887   -0.877862    0.000000
      5          6           0        0.260114    1.881394    0.000000
      6          6           0       -0.260114   -1.881394    0.000000
      7          1           0       -0.542606   -2.976160    0.000000
      8          1           0        0.542606    2.976160    0.000000
 ---------------------------------------------------------------------

 SCF Done:  E(UB3LYP) =  -152.991490403     A.U. after   12 cycles

 The electronic state is 2-BG.
 Alpha  occ. eigenvalues --  -11.08671 -11.08670 -10.99626 -10.99586  -1.60285
 Alpha  occ. eigenvalues --   -1.54444  -1.36917  -1.27920  -1.23910  -1.22829
 Alpha  occ. eigenvalues --   -1.14622  -1.11461  -1.04413
 Alpha virt. eigenvalues --   -0.87220  -0.84596  -0.81521  -0.67054  -0.58239
 Alpha virt. eigenvalues --   -0.55317  -0.54653  -0.49659  -0.46715  -0.45600
 Alpha virt. eigenvalues --   -0.42630  -0.41662  -0.40489  -0.40470  -0.38116

  Beta  occ. eigenvalues --  -11.07845 -11.07844 -10.99558 -10.99515  -1.58993
  Beta  occ. eigenvalues --   -1.52097  -1.35808  -1.27095  -1.23401  -1.22617
  Beta  occ. eigenvalues --   -1.14316  -1.07435
  Beta virt. eigenvalues --   -0.93466  -0.86114  -0.83664  -0.76557  -0.64292
  Beta virt. eigenvalues --   -0.57373  -0.55144  -0.53988  -0.49413  -0.46563
  Beta virt. eigenvalues --   -0.45437  -0.42246  -0.41242  -0.40186  -0.40101

 Mulliken charges and spin densities:
               1          2
     1  C    0.192456   0.089124
     2  H    0.303088  -0.008163
     3  C    0.192456   0.089124
     4  H    0.303088  -0.008163
     5  C    0.481936   0.430458
     6  C    0.481936   0.430458
     7  H    0.522520  -0.011420
     8  H    0.522520  -0.011420
 Sum of Mulliken charges =   3.00000   1.00000

 Dipole moment (field-independent basis, Debye):
    X=              0.0000    Y=              0.0000    Z=              0.0000  Tot=              0.0000
 Quadrupole moment (field-independent basis, Debye-Ang):
   XX=             -8.6605   YY=             39.9976   ZZ=            -18.8905
   XY=              4.9594   XZ=              0.0000   YZ=              0.0000

  Exact polarizability:  27.016   3.792  74.480  -0.000   0.000  18.427
 Approx polarizability:  45.368  15.566 136.308  -0.000  -0.000  25.618

                      1                      2                      3
                     AU                     BU                     AG
 Frequencies --    191.0415               237.1593               349.7098
 Red. masses --      2.5104                 2.6114                 2.5935
 Frc consts  --      0.0540                 0.0865                 0.1869
 IR Inten    --     27.2630                49.8863                 0.0000

                      4                      5                      6
                     BG                     AU                     AU
 Frequencies --    644.2613               693.2218               723.3602
 Red. masses --      1.2882                 1.0847                 1.4768
 Frc consts  --      0.3150                 0.3071                 0.4553
 IR Inten    --      0.0000               161.9705                16.6757

                      7                      8                      9
                     BG                     AG                     BU
 Frequencies --    773.1946               817.4684               840.5101
 Red. masses --      2.0749                 2.8326                 1.1565
 Frc consts  --      0.7309                 1.1153                 0.4814
 IR Inten    --      0.0000                 0.0000                49.2606

                     10                     11                     12
                     BU                     AG                     AG
 Frequencies --   1025.0404              1040.1693              1105.0445
 Red. masses --      1.4605                 1.9312                 1.2459
 Frc consts  --      0.9041                 1.2311                 0.8964
 IR Inten    --     71.1074                 0.0000                 0.0000

                     13                     14                     15
                     BU                     AG                     AG
 Frequencies --   1444.2933              1696.7228              2513.3454
 Red. masses --      3.9111                 5.6083                 1.0805
 Frc consts  --      4.8068                 9.5126                 4.0213
 IR Inten    --    943.7005                 0.0000                 0.0000

                     16                     17                     18
                     BU                     BU                     AG
 Frequencies --   2513.8000              2794.1310              2809.5756
 Red. masses --      1.0753                 1.1406                 1.1379
 Frc consts  --      4.0035                 5.2464                 5.2924
 IR Inten    --    917.8169              1291.3271                 0.0000

 - Thermochemistry -
 -------------------
 Temperature   298.150 Kelvin.  Pressure   1.00000 Atm.
 Atom     1 has atomic number  6 and mass  12.00000

 Molecular mass:    52.03130 amu.
 Principal axes and moments of inertia in atomic units:
                           1         2         3
     Eigenvalues --    25.41197 412.74331 438.15528
           X            0.07756   0.99699   0.00000
           Y            0.99699  -0.07756   0.00000
           Z            0.00000  -0.00000   1.00000
 This molecule is an asymmetric top.
 Rotational symmetry number  2.
 Rotational temperatures (Kelvin)      3.40839     0.20985     0.19768
 Rotational constants (GHZ):          71.01934     4.37255     4.11895
 Zero-point vibrational energy     132857.6 (Joules/Mol)
                                   31.75372 (Kcal/Mol)
 Warning -- explicit consideration of   3 degrees of freedom as
           vibrations may cause significant error
 Vibrational temperatures:    274.87   341.22   503.15   926.95   997.39
          (Kelvin)           1040.75  1112.45  1176.15  1209.31  1474.80
                             1496.57  1589.91  2078.01  2441.20  3616.14
                             3616.79  4020.13  4042.35

 Zero-point correction=                           0.050603 (Hartree/Particle)
 Thermal correction to Energy=                    0.055558
 Thermal correction to Enthalpy=                  0.056502
 Thermal correction to Gibbs Free Energy=         0.024267
 Sum of electronic and zero-point Energies=           -152.940888
 Sum of electronic and thermal Energies=              -152.935932
 Sum of electronic and thermal Enthalpies=            -152.934988
 Sum of electronic and thermal Free Energies=         -152.967223

                     E (Thermal)             CV                S
                      KCal/Mol        Cal/Mol-Kelvin    Cal/Mol-Kelvin
 Total                   34.863             16.739             67.845
 Electronic               0.000              0.000              1.377
 Translational            0.889              2.981             37.771
 Rotational               0.889              2.981             21.668
 Vibrational             33.086             10.777              7.029
 Vibration     1          0.634              1.852              2.218
 Vibration     2          0.656              1.784              1.824
 Vibration     3          0.727              1.576              1.168

 Optimization completed.
    -- Stationary point found.
 Normal termination of Gaussian 09 at Wed Jun 22 00:26:12 2016.
