 Gaussian 09, Revision E.01,
 Gaussian 09:  EM64L-G09RevE.01 30-Nov-2015

 ---------------------------------------------
 #p b3lyp/6-311++G(3df,2p) freq symmetry=Loose
 ---------------------------------------------

 ---------
 b3lyp opt
 ---------
 Symbolic Z-matrix:
 Charge =  3 Multiplicity = 2

                         Standard orientation:
 ---------------------------------------------------------------------
 Center     Atomic      Atomic             Coordinates (Angstroms)
 Number     Number       Type             X           Y           Z
 ---------------------------------------------------------------------
      1          6           0        0.000000    0.000000    1.206692
      2          6           0        0.816625   -0.000000   -0.000043
      3          1           0        0.000000   -0.898731    1.963306
      4          1           0        0.000000    0.898731    1.963306
      5          1           0       -0.000000    0.898012   -1.964606
      6          6           0       -0.816625    0.000000   -0.000043
      7          6           0       -0.000000    0.000000   -1.206173
      8          1           0       -0.000000   -0.898012   -1.964606
 ---------------------------------------------------------------------

 SCF Done:  E(UB3LYP) =  -152.854869519     A.U. after   12 cycles

 The electronic state is 2-A1.
 Alpha  occ. eigenvalues --  -11.18711 -11.18698 -11.03580 -11.03564  -1.80320
 Alpha  occ. eigenvalues --   -1.53726  -1.39276  -1.32988  -1.26455  -1.23505
 Alpha  occ. eigenvalues --   -1.22506  -1.16720  -1.14818
 Alpha virt. eigenvalues --   -0.93996  -0.91006  -0.86653  -0.60702  -0.59532
 Alpha virt. eigenvalues --   -0.55625  -0.54226  -0.53054  -0.52962  -0.51529
 Alpha virt. eigenvalues --   -0.51490  -0.42873  -0.41704  -0.41338  -0.40037

  Beta  occ. eigenvalues --  -11.17408 -11.17402 -11.03671 -11.03655  -1.79402
  Beta  occ. eigenvalues --   -1.53645  -1.34526  -1.32864  -1.25915  -1.23232
  Beta  occ. eigenvalues --   -1.21921  -1.15049
  Beta virt. eigenvalues --   -1.00348  -0.92835  -0.88165  -0.79889  -0.60174
  Beta virt. eigenvalues --   -0.59574  -0.55694  -0.53382  -0.52834  -0.52535
  Beta virt. eigenvalues --   -0.51250  -0.49671  -0.42626  -0.40810  -0.40403

 Mulliken charges and spin densities:
               1          2
     1  C   -0.387106  -0.089190
     2  C    1.118455   0.583205
     3  H    0.384212   0.003041
     4  H    0.384212   0.003041
     5  H    0.384413   0.002998
     6  C    1.118455   0.583205
     7  C   -0.387054  -0.089297
     8  H    0.384413   0.002998
 Sum of Mulliken charges =   3.00000   1.00000

 Dipole moment (field-independent basis, Debye):
    X=              0.0000    Y=             -0.0000    Z=             -0.0138  Tot=              0.0138
 Quadrupole moment (field-independent basis, Debye-Ang):
   XX=            -11.8559   YY=            -11.3854   ZZ=             13.2922
   XY=              0.0000   XZ=              0.0000   YZ=              0.0000

  Exact polarizability:  25.924  -0.000  22.691  -0.000   0.000  51.851
 Approx polarizability:  58.507  -0.000  35.941   0.000  -0.000 108.275

                      1                      2                      3
                     B2                     B1                     B2
 Frequencies --    372.9723               423.7959               550.8406
 Red. masses --      1.3286                11.2909                 1.3550
 Frc consts  --      0.1089                 1.1948                 0.2422
 IR Inten    --     86.7037                 0.0003                 0.0033

                      4                      5                      6
                     A2                     B1                     A1
 Frequencies --    579.1279               588.6686               760.2685
 Red. masses --      1.0078                 3.6952                 1.3210
 Frc consts  --      0.1992                 0.7545                 0.4499
 IR Inten    --      0.0000                12.1388              1619.6179

                      7                      8                      9
                     B2                     A1                     B1
 Frequencies --    885.4566               905.3364               955.0274
 Red. masses --      2.9158                 5.7385                 1.2913
 Frc consts  --      1.3469                 2.7712                 0.6939
 IR Inten    --     17.5620                 0.0105                 0.0013

                     10                     11                     12
                     A2                     B1                     A1
 Frequencies --    985.8083               998.5080              1029.0500
 Red. masses --      1.1923                 1.3614                 1.1114
 Frc consts  --      0.6827                 0.7997                 0.6934
 IR Inten    --      0.0000               232.7900                 0.0094

                     13                     14                     15
                     A1                     A1                     B2
 Frequencies --   1091.7576              1245.9928              2220.6605
 Red. masses --      6.3076                 3.5863                 1.0772
 Frc consts  --      4.4296                 3.2804                 3.1298
 IR Inten    --      0.0039                 2.7261                 5.3458

                     16                     17                     18
                     A1                     B2                     A1
 Frequencies --   2258.9533              2265.2417              2455.6204
 Red. masses --      1.0400                 1.1088                 1.0886
 Frc consts  --      3.1267                 3.3522                 3.8676
 IR Inten    --   3190.0810              1217.3911                 0.2701

 - Thermochemistry -
 -------------------
 Temperature   298.150 Kelvin.  Pressure   1.00000 Atm.
 Atom     1 has atomic number  6 and mass  12.00000

 Molecular mass:    52.03130 amu.
 Principal axes and moments of inertia in atomic units:
                           1         2         3
     Eigenvalues --    68.77364 191.88860 237.42498
           X            0.00000   1.00000  -0.00000
           Y            0.00000   0.00000   1.00000
           Z            1.00000  -0.00000  -0.00000
 This molecule is an asymmetric top.
 Rotational symmetry number  2.
 Rotational temperatures (Kelvin)      1.25940     0.45138     0.36480
 Rotational constants (GHZ):          26.24176     9.40515     7.60131
 Zero-point vibrational energy     123054.4 (Joules/Mol)
                                   29.41070 (Kcal/Mol)
 Warning -- explicit consideration of   5 degrees of freedom as
           vibrations may cause significant error
 Vibrational temperatures:    536.62   609.75   792.54   833.23   846.96
          (Kelvin)           1093.86  1273.97  1302.58  1374.07  1418.36
                             1436.63  1480.57  1570.79  1792.70  3195.03
                             3250.13  3259.17  3533.09

 Zero-point correction=                           0.046869 (Hartree/Particle)
 Thermal correction to Energy=                    0.051246
 Thermal correction to Enthalpy=                  0.052190
 Thermal correction to Gibbs Free Energy=         0.021356
 Sum of electronic and zero-point Energies=           -152.808001
 Sum of electronic and thermal Energies=              -152.803624
 Sum of electronic and thermal Enthalpies=            -152.802679
 Sum of electronic and thermal Free Energies=         -152.833514

                     E (Thermal)             CV                S
                      KCal/Mol        Cal/Mol-Kelvin    Cal/Mol-Kelvin
 Total                   32.157             15.936             64.897
 Electronic               0.000              0.000              1.377
 Translational            0.889              2.981             37.771
 Rotational               0.889              2.981             21.287
 Vibrational             30.380              9.975              4.461
 Vibration     1          0.744              1.528              1.068
 Vibration     2          0.786              1.418              0.879
 Vibration     3          0.906              1.138              0.542
 Vibration     4          0.936              1.076              0.487
 Vibration     5          0.946              1.056              0.470

 Optimization completed.
    -- Stationary point found.
 Normal termination of Gaussian 09 at Tue Jul 19 21:43:29 2016.
