 Gaussian 09, Revision E.01,
 Gaussian 09:  EM64L-G09RevE.01 30-Nov-2015

 ---------------------------------------------
 #p b3lyp/6-311++G(3df,2p) freq symmetry=Loose
 ---------------------------------------------

 ---------
 b3lyp opt
 ---------
 Symbolic Z-matrix:
 Charge =  2 Multiplicity = 3

                         Standard orientation:
 ---------------------------------------------------------------------
 Center     Atomic      Atomic             Coordinates (Angstroms)
 Number     Number       Type             X           Y           Z
 ---------------------------------------------------------------------
      1          6           0        0.468268   -0.692882   -0.000000
      2          6           0        0.000000    0.572539    0.000000
      3          1           0        1.589188   -0.701122    0.000000
      4          1           0       -1.406015    2.140812    0.000000
      5          6           0       -0.339811    1.827082    0.000000
      6          1           0        0.412882    2.644798    0.000000
      7          6           0       -0.231078   -1.894336   -0.000000
      8          1           0        0.019673   -2.958913   -0.000000
 ---------------------------------------------------------------------

 SCF Done:  E(UB3LYP) =  -153.808753532     A.U. after   14 cycles

 The electronic state is 3-A".
 Alpha  occ. eigenvalues --  -10.79519 -10.75061 -10.74201 -10.72757  -1.35491
 Alpha  occ. eigenvalues --   -1.28099  -1.15682  -1.01201  -0.98408  -0.95970
 Alpha  occ. eigenvalues --   -0.92900  -0.87820  -0.76941  -0.74393
 Alpha virt. eigenvalues --   -0.61262  -0.57035  -0.41630  -0.35279  -0.31296
 Alpha virt. eigenvalues --   -0.29154  -0.28463  -0.27091  -0.25779  -0.24544
 Alpha virt. eigenvalues --   -0.23292  -0.21668  -0.21441  -0.19582  -0.19323

  Beta  occ. eigenvalues --  -10.79463 -10.73818 -10.72732 -10.72175  -1.33951
  Beta  occ. eigenvalues --   -1.25273  -1.12277  -0.99951  -0.97184  -0.94039
  Beta  occ. eigenvalues --   -0.92059  -0.84632
  Beta virt. eigenvalues --   -0.66088  -0.60977  -0.55145  -0.51162  -0.38168
  Beta virt. eigenvalues --   -0.34757  -0.30563  -0.28493  -0.27711  -0.26428
  Beta virt. eigenvalues --   -0.25319  -0.24126  -0.22826  -0.21169  -0.20857

 Mulliken charges and spin densities:
               1          2
     1  C    0.289454   0.380481
     2  C    0.628059  -0.014599
     3  H    0.272283   0.032630
     4  H    0.330376  -0.008820
     5  C   -0.201157   0.259681
     6  H    0.339604  -0.007673
     7  C   -0.000666   1.346931
     8  H    0.342047   0.011368
 Sum of Mulliken charges =   2.00000   2.00000

 Dipole moment (field-independent basis, Debye):
    X=              0.4177    Y=              0.9022    Z=              0.0000  Tot=              0.9942
 Quadrupole moment (field-independent basis, Debye-Ang):
   XX=            -12.8642   YY=             16.8548   ZZ=            -20.4577
   XY=             -4.2060   XZ=             -0.0000   YZ=              0.0000

  Exact polarizability:  29.705  -5.013  78.779  -0.000   0.000  21.192
 Approx polarizability:  45.369 -10.797 132.676   0.000   0.000  29.626

                      1                      2                      3
                     A'                     A"                     A"
 Frequencies --    157.0169               234.7033               315.7275
 Red. masses --      2.9736                 1.4160                 1.8092
 Frc consts  --      0.0432                 0.0460                 0.1063
 IR Inten    --      9.3326                10.7660                30.8332

                      4                      5                      6
                     A'                     A"                     A'
 Frequencies --    409.2635               618.5617               738.2024
 Red. masses --      1.6961                 1.5564                 1.3792
 Frc consts  --      0.1674                 0.3509                 0.4428
 IR Inten    --      7.5045                20.5769                25.8098

                      7                      8                      9
                     A'                     A"                     A"
 Frequencies --    812.1911               868.8118               898.9530
 Red. masses --      2.0617                 1.3962                 1.3591
 Frc consts  --      0.8013                 0.6210                 0.6471
 IR Inten    --     11.3261                 5.3235                45.1327

                     10                     11                     12
                     A'                     A'                     A'
 Frequencies --    964.2215              1130.9135              1225.3625
 Red. masses --      2.9300                 1.3859                 1.1426
 Frc consts  --      1.6050                 1.0443                 1.0108
 IR Inten    --      6.4021                 1.3670               172.5589

                     13                     14                     15
                     A'                     A'                     A'
 Frequencies --   1393.4168              1710.1695              2800.5034
 Red. masses --      6.3112                 9.6101                 1.0731
 Frc consts  --      7.2198                16.5598                 4.9586
 IR Inten    --    112.6807                 8.7392               367.0555

                     16                     17                     18
                     A'                     A'                     A'
 Frequencies --   2885.9210              2934.8250              3118.8543
 Red. masses --      1.0578                 1.1090                 1.1012
 Frc consts  --      5.1908                 5.6279                 6.3112
 IR Inten    --    501.1854               302.4124               226.6266

 - Thermochemistry -
 -------------------
 Temperature   298.150 Kelvin.  Pressure   1.00000 Atm.
 Atom     1 has atomic number  6 and mass  12.00000

 Molecular mass:    52.03130 amu.
 Principal axes and moments of inertia in atomic units:
                           1         2         3
     Eigenvalues --    30.54239 409.19721 439.73959
           X           -0.08727   0.99618   0.00000
           Y            0.99618   0.08727   0.00000
           Z           -0.00000  -0.00000   1.00000
 This molecule is an asymmetric top.
 Rotational symmetry number  1.
 Rotational temperatures (Kelvin)      2.83586     0.21167     0.19697
 Rotational constants (GHZ):          59.08972     4.41044     4.10411
 Zero-point vibrational energy     138872.2 (Joules/Mol)
                                   33.19125 (Kcal/Mol)
 Warning -- explicit consideration of   5 degrees of freedom as
           vibrations may cause significant error
 Vibrational temperatures:    225.91   337.69   454.26   588.84   889.97
          (Kelvin)           1062.11  1168.56  1250.02  1293.39  1387.30
                             1627.13  1763.02  2004.81  2460.55  4029.29
                             4152.19  4222.55  4487.33

 Zero-point correction=                           0.052894 (Hartree/Particle)
 Thermal correction to Energy=                    0.058094
 Thermal correction to Enthalpy=                  0.059039
 Thermal correction to Gibbs Free Energy=         0.025177
 Sum of electronic and zero-point Energies=           -153.755860
 Sum of electronic and thermal Energies=              -153.750659
 Sum of electronic and thermal Enthalpies=            -153.749715
 Sum of electronic and thermal Free Energies=         -153.783577

                     E (Thermal)             CV                S
                      KCal/Mol        Cal/Mol-Kelvin    Cal/Mol-Kelvin
 Total                   36.455             17.171             71.269
 Electronic               0.000              0.000              2.183
 Translational            0.889              2.981             37.771
 Rotational               0.889              2.981             23.223
 Vibrational             34.677             11.209              8.092
 Vibration     1          0.621              1.895              2.585
 Vibration     2          0.655              1.788              1.843
 Vibration     3          0.703              1.644              1.332
 Vibration     4          0.774              1.450              0.929
 Vibration     5          0.978              0.993              0.419

 Optimization completed.
    -- Stationary point found.
 Normal termination of Gaussian 09 at Tue Jul 19 19:40:17 2016.
