 Gaussian 09, Revision E.01,
 Gaussian 09:  EM64L-G09RevE.01 30-Nov-2015

 ---------------------------------------------
 #p b3lyp/6-311++G(3df,2p) freq symmetry=Loose
 ---------------------------------------------

 ---------
 b3lyp opt
 ---------
 Symbolic Z-matrix:
 Charge =  1 Multiplicity = 4

                         Standard orientation:
 ---------------------------------------------------------------------
 Center     Atomic      Atomic             Coordinates (Angstroms)
 Number     Number       Type             X           Y           Z
 ---------------------------------------------------------------------
      1          6           0        1.844091   -0.018598    0.000213
      2          6           0        0.517180   -0.316486   -0.000589
      3          6           0       -0.686173    0.364220   -0.000189
      4          1           0        2.194487    1.014766   -0.000080
      5          1           0        2.597247   -0.800755    0.001201
      6          1           0       -0.680828    1.464077    0.000512
      7          6           0       -1.872151   -0.298074    0.000197
      8          1           0       -2.928588   -0.064460    0.000576
 ---------------------------------------------------------------------

 SCF Done:  E(UB3LYP) =  -154.348417201     A.U. after   14 cycles

 The electronic state is 4-A.
 Alpha  occ. eigenvalues --  -10.48259 -10.47261 -10.46928 -10.45841  -1.08540
 Alpha  occ. eigenvalues --   -1.01178  -0.87908  -0.77378  -0.73840  -0.71147
 Alpha  occ. eigenvalues --   -0.67500  -0.60857  -0.51887  -0.50432  -0.48092
 Alpha virt. eigenvalues --   -0.31922  -0.18631  -0.15108  -0.13545  -0.12010
 Alpha virt. eigenvalues --   -0.10343  -0.09560  -0.09199  -0.07727  -0.05825
 Alpha virt. eigenvalues --   -0.05713  -0.04109  -0.03611  -0.03029  -0.02099

  Beta  occ. eigenvalues --  -10.46220 -10.46000 -10.45813 -10.45505  -1.05299
  Beta  occ. eigenvalues --   -0.97307  -0.84313  -0.74144  -0.71246  -0.68945
  Beta  occ. eigenvalues --   -0.65860  -0.56767
  Beta virt. eigenvalues --   -0.41068  -0.32153  -0.31365  -0.26277  -0.15360
  Beta virt. eigenvalues --   -0.14656  -0.12946  -0.11551  -0.09834  -0.09098
  Beta virt. eigenvalues --   -0.08691  -0.07342  -0.05151  -0.04778  -0.03219

 Mulliken charges and spin densities:
               1          2
     1  C   -0.292117   0.332841
     2  C    0.433685   1.188180
     3  C    0.134192  -0.139065
     4  H    0.205852   0.049398
     5  H    0.244075   0.013073
     6  H    0.193663   0.107221
     7  C   -0.201846   1.434058
     8  H    0.282496   0.014293
 Sum of Mulliken charges =   1.00000   3.00000

 Dipole moment (field-independent basis, Debye):
    X=              0.2618    Y=              1.1039    Z=              0.0015  Tot=              1.1345
 Quadrupole moment (field-independent basis, Debye-Ang):
   XX=             -0.3448   YY=            -19.6105   ZZ=            -22.8145
   XY=             -0.6320   XZ=             -0.0001   YZ=             -0.0003

  Exact polarizability:  85.981   0.982  34.295  -0.001   0.001  25.903
 Approx polarizability: 135.635   3.401  48.895  -0.004   0.002  36.778

                      1                      2                      3
                      A                      A                      A
 Frequencies --    151.1474               241.7898               496.6426
 Red. masses --      3.0255                 2.5968                 3.2683
 Frc consts  --      0.0407                 0.0894                 0.4750
 IR Inten    --     12.4847                 6.3585                 1.3806

                      4                      5                      6
                      A                      A                      A
 Frequencies --    515.4793               683.7442               790.6346
 Red. masses --      1.1703                 1.3363                 1.3706
 Frc consts  --      0.1832                 0.3681                 0.5048
 IR Inten    --      3.5242                20.4539                18.1872

                      7                      8                      9
                      A                      A                      A
 Frequencies --    921.6743               943.4164              1015.0165
 Red. masses --      1.4634                 1.4668                 1.3754
 Frc consts  --      0.7324                 0.7692                 0.8349
 IR Inten    --      0.8161                 3.7797                22.8349

                     10                     11                     12
                      A                      A                      A
 Frequencies --   1134.5402              1236.3694              1371.0698
 Red. masses --      3.5027                 1.2772                 3.4827
 Frc consts  --      2.6564                 1.1503                 3.8574
 IR Inten    --     28.7614                 0.4435               164.9590

                     13                     14                     15
                      A                      A                      A
 Frequencies --   1454.8753              1636.1919              2968.1890
 Red. masses --      1.2910                 8.7955                 1.0813
 Frc consts  --      1.6100                13.8732                 5.6126
 IR Inten    --      6.5706                 1.2185                11.0019

                     16                     17                     18
                      A                      A                      A
 Frequencies --   3065.6582              3183.3774              3223.3281
 Red. masses --      1.0572                 1.1115                 1.0994
 Frc consts  --      5.8543                 6.6363                 6.7301
 IR Inten    --     24.6620                25.4317                52.9335

 - Thermochemistry -
 -------------------
 Temperature   298.150 Kelvin.  Pressure   1.00000 Atm.
 Atom     1 has atomic number  6 and mass  12.00000

 Molecular mass:    52.03130 amu.
 Principal axes and moments of inertia in atomic units:
                           1         2         3
     Eigenvalues --    27.35350 401.62769 428.98114
           X            0.99998  -0.00591   0.00001
           Y            0.00591   0.99998  -0.00003
           Z           -0.00001   0.00003   1.00000
 This molecule is an asymmetric top.
 Rotational symmetry number  1.
 Rotational temperatures (Kelvin)      3.16646     0.21566     0.20191
 Rotational constants (GHZ):          65.97843     4.49357     4.20704
 Zero-point vibrational energy     149731.5 (Joules/Mol)
                                   35.78668 (Kcal/Mol)
 Warning -- explicit consideration of   4 degrees of freedom as
           vibrations may cause significant error
 Vibrational temperatures:    217.47   347.88   714.56   741.66   983.75
          (Kelvin)           1137.55  1326.08  1357.36  1460.38  1632.35
                             1778.86  1972.66  2093.24  2354.11  4270.56
                             4410.79  4580.16  4637.64

 Zero-point correction=                           0.057030 (Hartree/Particle)
 Thermal correction to Energy=                    0.061825
 Thermal correction to Enthalpy=                  0.062770
 Thermal correction to Gibbs Free Energy=         0.029351
 Sum of electronic and zero-point Energies=           -154.291388
 Sum of electronic and thermal Energies=              -154.286592
 Sum of electronic and thermal Enthalpies=            -154.285648
 Sum of electronic and thermal Free Energies=         -154.319066

                     E (Thermal)             CV                S
                      KCal/Mol        Cal/Mol-Kelvin    Cal/Mol-Kelvin
 Total                   38.796             15.600             70.336
 Electronic               0.000              0.000              2.755
 Translational            0.889              2.981             37.771
 Rotational               0.889              2.981             23.070
 Vibrational             37.019              9.639              6.740
 Vibration     1          0.619              1.901              2.658
 Vibration     2          0.658              1.776              1.790
 Vibration     3          0.852              1.257              0.667
 Vibration     4          0.871              1.216              0.621

 Optimization completed.
    -- Stationary point found.
 Normal termination of Gaussian 09 at Tue Jun 21 22:56:50 2016.
