 Gaussian 09, Revision E.01,
 Gaussian 09:  EM64L-G09RevE.01 30-Nov-2015

 ---------------------------------------------
 #p b3lyp/6-311++G(3df,2p) freq symmetry=Loose
 ---------------------------------------------

 ---------
 b3lyp opt
 ---------
 Symbolic Z-matrix:
 Charge =  0 Multiplicity = 3

                         Standard orientation:
 ---------------------------------------------------------------------
 Center     Atomic      Atomic             Coordinates (Angstroms)
 Number     Number       Type             X           Y           Z
 ---------------------------------------------------------------------
      1          6           0       -1.533597   -0.375861   -0.000137
      2          1           0       -2.161739   -0.225178    0.881540
      3          1           0       -1.187852   -1.406746   -0.005238
      4          1           0       -2.167519   -0.217656   -0.876077
      5          6           0       -0.383948    0.587771    0.000274
      6          1           0       -0.602522    1.652068   -0.000111
      7          6           0        0.920217    0.238850   -0.000261
      8          6           0        2.017267   -0.417841    0.000105
 ---------------------------------------------------------------------

 SCF Done:  E(UB3LYP) =  -154.661415783     A.U. after   20 cycles

 The electronic state is 3-A.
 Alpha  occ. eigenvalues --  -10.22998 -10.22143 -10.21774 -10.19280  -0.83862
 Alpha  occ. eigenvalues --   -0.76227  -0.67441  -0.52188  -0.45445  -0.44636
 Alpha  occ. eigenvalues --   -0.40537  -0.35625  -0.35198  -0.30608  -0.21671
 Alpha virt. eigenvalues --   -0.01978  -0.00981   0.01062   0.02583   0.03583
 Alpha virt. eigenvalues --    0.04789   0.05952   0.06720   0.06929   0.07788
 Alpha virt. eigenvalues --    0.08886   0.09639   0.11011   0.11671   0.12476

  Beta  occ. eigenvalues --  -10.21918 -10.21027 -10.20817 -10.19290  -0.81542
  Beta  occ. eigenvalues --   -0.73561  -0.65100  -0.50815  -0.44309  -0.43423
  Beta  occ. eigenvalues --   -0.39934  -0.31820  -0.28838
  Beta virt. eigenvalues --   -0.19047  -0.09516  -0.01171   0.01178   0.01399
  Beta virt. eigenvalues --    0.02633   0.04075   0.06124   0.06303   0.06804
  Beta virt. eigenvalues --    0.07448   0.08207   0.09881   0.11111   0.11222

 Mulliken charges and spin densities:
               1          2
     1  C   -0.449326  -0.024797
     2  H    0.150501   0.028229
     3  H    0.149027   0.002862
     4  H    0.150295   0.027868
     5  C   -0.572155   0.672188
     6  H    0.163450   0.005296
     7  C    0.625933   0.083590
     8  C   -0.217725   1.204763
 Sum of Mulliken charges =  -0.00000   2.00000

 Dipole moment (field-independent basis, Debye):
    X=             -2.5425    Y=              1.1927    Z=              0.0000  Tot=              2.8083
 Quadrupole moment (field-independent basis, Debye-Ang):
   XX=            -26.4102   YY=            -24.2927   ZZ=            -26.0191
   XY=              2.0785   XZ=              0.0005   YZ=             -0.0007

  Exact polarizability:  97.284 -20.545  48.546  -0.007  -0.006  36.964
 Approx polarizability: 124.400 -33.613  72.592  -0.015  -0.009  50.281

                      1                      2                      3
                      A                      A                      A
 Frequencies --     87.1696               206.4937               431.1758
 Red. masses --      1.1251                 4.3262                 5.9493
 Frc consts  --      0.0050                 0.1087                 0.6517
 IR Inten    --      0.0002                 5.6151                 0.6596

                      4                      5                      6
                      A                      A                      A
 Frequencies --    567.3443               575.4571               843.7766
 Red. masses --      4.7291                 1.2613                 3.4525
 Frc consts  --      0.8969                 0.2461                 1.4482
 IR Inten    --      2.8287                48.9976               162.4053

                      7                      8                      9
                      A                      A                      A
 Frequencies --   1012.9038              1037.4859              1110.8212
 Red. masses --      1.3531                 1.5581                 3.0291
 Frc consts  --      0.8179                 0.9881                 2.2022
 IR Inten    --      0.2511               331.3831               176.4533

                     10                     11                     12
                      A                      A                      A
 Frequencies --   1249.8311              1387.0610              1441.1379
 Red. masses --      1.7356                 1.4961                 1.6924
 Frc consts  --      1.5973                 1.6960                 2.0709
 IR Inten    --    706.1878                95.6542               175.8556

                     13                     14                     15
                      A                      A                      A
 Frequencies --   1478.1320              1507.9196              3011.3785
 Red. masses --      1.0462                 1.3462                 1.0376
 Frc consts  --      1.3467                 1.8035                 5.5440
 IR Inten    --      6.4383               182.4662                23.9729

                     16                     17                     18
                      A                      A                      A
 Frequencies --   3053.1293              3113.8346              3127.4308
 Red. masses --      1.0997                 1.0893                 1.0919
 Frc consts  --      6.0397                 6.2228                 6.2923
 IR Inten    --     10.4359                 6.2346                 3.8366

 - Thermochemistry -
 -------------------
 Temperature   298.150 Kelvin.  Pressure   1.00000 Atm.
 Atom     1 has atomic number  6 and mass  12.00000

 Molecular mass:    52.03130 amu.
 Principal axes and moments of inertia in atomic units:
                           1         2         3
     Eigenvalues --    53.52736 361.02793 403.43685
           X            0.99982   0.01910  -0.00001
           Y           -0.01910   0.99982  -0.00005
           Z            0.00000   0.00005   1.00000
 This molecule is an asymmetric top.
 Rotational symmetry number  1.
 Rotational temperatures (Kelvin)      1.61812     0.23991     0.21469
 Rotational constants (GHZ):          33.71624     4.99890     4.47342
 Zero-point vibrational energy     150983.6 (Joules/Mol)
                                   36.08594 (Kcal/Mol)
 Warning -- explicit consideration of   5 degrees of freedom as
           vibrations may cause significant error
 Vibrational temperatures:    125.42   297.10   620.37   816.28   827.95
          (Kelvin)           1214.00  1457.34  1492.71  1598.22  1798.23
                             1995.67  2073.47  2126.70  2169.56  4332.70
                             4392.77  4480.11  4499.67

 Zero-point correction=                           0.057507 (Hartree/Particle)
 Thermal correction to Energy=                    0.062478
 Thermal correction to Enthalpy=                  0.063422
 Thermal correction to Gibbs Free Energy=         0.029367
 Sum of electronic and zero-point Energies=           -154.603909
 Sum of electronic and thermal Energies=              -154.598938
 Sum of electronic and thermal Enthalpies=            -154.597994
 Sum of electronic and thermal Free Energies=         -154.632049

                     E (Thermal)             CV                S
                      KCal/Mol        Cal/Mol-Kelvin    Cal/Mol-Kelvin
 Total                   39.205             15.424             71.675
 Electronic               0.000              0.000              2.183
 Translational            0.889              2.981             37.771
 Rotational               0.889              2.981             23.571
 Vibrational             37.428              9.462              8.150
 Vibration     1          0.601              1.958              3.723
 Vibration     2          0.641              1.831              2.074
 Vibration     3          0.792              1.402              0.855
 Vibration     4          0.923              1.102              0.509
 Vibration     5          0.932              1.084              0.494

 Normal termination of Gaussian 09 at Tue Jun 21 21:41:19 2016.
