 Gaussian 09, Revision E.01,
 Gaussian 09:  EM64L-G09RevE.01 30-Nov-2015

 ---------------------------------------------
 #p b3lyp/6-311++G(3df,2p) freq symmetry=Loose
 ---------------------------------------------

 ---------
 b3lyp opt
 ---------
 Symbolic Z-matrix:
 Charge =  1 Multiplicity = 4

                         Standard orientation:
 ---------------------------------------------------------------------
 Center     Atomic      Atomic             Coordinates (Angstroms)
 Number     Number       Type             X           Y           Z
 ---------------------------------------------------------------------
      1          6           0        1.719847   -0.175617   -0.215601
      2          1           0        2.107756   -1.185065   -0.231647
      3          6           0        0.584466    0.497751    0.071516
      4          1           0        0.575380    1.583075   -0.004229
      5          6           0       -0.654708   -0.183472    0.425000
      6          1           0       -1.273713    0.408472    1.151644
      7          1           0       -0.573987   -1.216379    0.780198
      8          6           0       -1.788844   -0.070346   -0.563576
 ---------------------------------------------------------------------

 SCF Done:  E(UB3LYP) =  -154.232973827     A.U. after   21 cycles

 The electronic state is 4-A.
 Alpha  occ. eigenvalues --  -10.53628 -10.48009 -10.46928 -10.46897  -1.09750
 Alpha  occ. eigenvalues --   -1.00687  -0.84652  -0.79780  -0.72892  -0.71939
 Alpha  occ. eigenvalues --   -0.65655  -0.60187  -0.54139  -0.50591  -0.47340
 Alpha virt. eigenvalues --   -0.35347  -0.27091  -0.16548  -0.14649  -0.12618
 Alpha virt. eigenvalues --   -0.11486  -0.10979  -0.09226  -0.07549  -0.06985
 Alpha virt. eigenvalues --   -0.06533  -0.05170  -0.03984  -0.02729  -0.02302

  Beta  occ. eigenvalues --  -10.51390 -10.46712 -10.46626 -10.45811  -1.07438
  Beta  occ. eigenvalues --   -0.96438  -0.80898  -0.76393  -0.71335  -0.69986
  Beta  occ. eigenvalues --   -0.64321  -0.52854
  Beta virt. eigenvalues --   -0.43273  -0.33615  -0.31426  -0.29764  -0.22414
  Beta virt. eigenvalues --   -0.16128  -0.14267  -0.12085  -0.10791  -0.10501
  Beta virt. eigenvalues --   -0.08555  -0.07087  -0.06100  -0.05741  -0.04655

 Mulliken charges and spin densities:
               1          2
     1  C   -0.259613   1.398176
     2  H    0.267313   0.009215
     3  C    0.379322   0.065674
     4  H    0.228283   0.031205
     5  C    0.026152   0.030654
     6  H    0.227815   0.021670
     7  H    0.243632   0.043072
     8  C   -0.112903   1.400334
 Sum of Mulliken charges =   1.00000   3.00000

 Dipole moment (field-independent basis, Debye):
    X=              0.3440    Y=             -0.4301    Z=              0.9887  Tot=              1.1318
 Quadrupole moment (field-independent basis, Debye-Ang):
   XX=            -13.6250   YY=            -17.8324   ZZ=            -20.9366
   XY=             -2.1980   XZ=             -2.2021   YZ=              0.6441

  Exact polarizability: 104.683   1.576  36.046   8.305   0.893  34.441
 Approx polarizability: 200.564   4.807  51.728  25.432   5.004  56.328

                      1                      2                      3
                      A                      A                      A
 Frequencies --    152.8711               346.9258               390.7885
 Red. masses --      3.4861                 2.7209                 2.2242
 Frc consts  --      0.0480                 0.1929                 0.2001
 IR Inten    --      2.3418                 1.6187                 5.3029

                      4                      5                      6
                      A                      A                      A
 Frequencies --    590.3858               756.3662               770.7804
 Red. masses --      1.5600                 1.6683                 1.4848
 Frc consts  --      0.3204                 0.5623                 0.5197
 IR Inten    --      6.3115                 3.0805                10.5079

                      7                      8                      9
                      A                      A                      A
 Frequencies --    864.6008               905.6777              1014.8127
 Red. masses --      1.7497                 1.7881                 1.3431
 Frc consts  --      0.7706                 0.8641                 0.8150
 IR Inten    --     34.5081                 1.2175                 4.1588

                     10                     11                     12
                      A                      A                      A
 Frequencies --   1092.9988              1160.9588              1275.0253
 Red. masses --      3.1285                 1.2366                 1.2380
 Frc consts  --      2.2020                 0.9820                 1.1858
 IR Inten    --     14.4350                76.0227                31.3514

                     13                     14                     15
                      A                      A                      A
 Frequencies --   1314.1315              1480.0391              2805.7105
 Red. masses --      1.2319                 3.6388                 1.0706
 Frc consts  --      1.2535                 4.6963                 4.9653
 IR Inten    --     82.6592               296.1401                99.1439

                     16                     17                     18
                      A                      A                      A
 Frequencies --   3035.5406              3125.8188              3225.1816
 Red. masses --      1.0865                 1.0879                 1.1002
 Frc consts  --      5.8988                 6.2629                 6.7425
 IR Inten    --     20.1184                17.8224                38.6121

 - Thermochemistry -
 -------------------
 Temperature   298.150 Kelvin.  Pressure   1.00000 Atm.
 Atom     1 has atomic number  6 and mass  12.00000

 Molecular mass:    52.03130 amu.
 Principal axes and moments of inertia in atomic units:
                           1         2         3
     Eigenvalues --    63.77411 351.53291 354.99682
           X            0.99943  -0.02270  -0.02514
           Y            0.01750   0.98152  -0.19055
           Z            0.02900   0.19000   0.98135
 This molecule is an asymmetric top.
 Rotational symmetry number  1.
 Rotational temperatures (Kelvin)      1.35813     0.24639     0.24398
 Rotational constants (GHZ):          28.29896     5.13392     5.08382
 Zero-point vibrational energy     145397.8 (Joules/Mol)
                                   34.75091 (Kcal/Mol)
 Warning -- explicit consideration of   4 degrees of freedom as
           vibrations may cause significant error
 Vibrational temperatures:    219.95   499.15   562.26   849.43  1088.24
          (Kelvin)           1108.98  1243.97  1303.07  1460.09  1572.58
                             1670.36  1834.47  1890.74  2129.44  4036.79
                             4367.46  4497.35  4640.31

 Zero-point correction=                           0.055379 (Hartree/Particle)
 Thermal correction to Energy=                    0.060101
 Thermal correction to Enthalpy=                  0.061045
 Thermal correction to Gibbs Free Energy=         0.027576
 Sum of electronic and zero-point Energies=           -154.177595
 Sum of electronic and thermal Energies=              -154.172873
 Sum of electronic and thermal Enthalpies=            -154.171929
 Sum of electronic and thermal Free Energies=         -154.205398

                     E (Thermal)             CV                S
                      KCal/Mol        Cal/Mol-Kelvin    Cal/Mol-Kelvin
 Total                   37.714             15.715             70.442
 Electronic               0.000              0.000              2.755
 Translational            0.889              2.981             37.771
 Rotational               0.889              2.981             23.591
 Vibrational             35.936              9.753              6.325
 Vibration     1          0.619              1.899              2.636
 Vibration     2          0.725              1.582              1.180
 Vibration     3          0.758              1.490              0.997
 Vibration     4          0.948              1.052              0.466

 Optimization completed.
    -- Stationary point found.
 Normal termination of Gaussian 09 at Tue Jun 21 22:33:29 2016.
