 Gaussian 09, Revision E.01,
 Gaussian 09:  EM64L-G09RevE.01 30-Nov-2015

 ---------------------------------------------
 #p b3lyp/6-311++G(3df,2p) freq symmetry=Loose
 ---------------------------------------------

 ---------
 b3lyp opt
 ---------
 Symbolic Z-matrix:
 Charge =  0 Multiplicity = 1

                         Standard orientation:
 ---------------------------------------------------------------------
 Center     Atomic      Atomic             Coordinates (Angstroms)
 Number     Number       Type             X           Y           Z
 ---------------------------------------------------------------------
      1          6           0        1.522660    0.056306   -0.000414
      2          1           0        1.904014    1.075573   -0.026224
      3          1           0        1.908053   -0.497275   -0.858718
      4          1           0        1.902191   -0.448001    0.890434
      5          6           0        0.052591   -0.011193   -0.000695
      6          6           0       -1.084440   -0.854850    0.000063
      7          6           0       -1.147680    0.549871    0.000115
      8          1           0       -1.773047    1.428904    0.000097
 ---------------------------------------------------------------------

 SCF Done:  E(RB3LYP) =  -154.737067034     A.U. after   12 cycles

 The electronic state is 1-A.
 Alpha  occ. eigenvalues --  -10.22880 -10.21818 -10.20070 -10.18289  -0.92486
 Alpha  occ. eigenvalues --   -0.76386  -0.58757  -0.52569  -0.47150  -0.45610
 Alpha  occ. eigenvalues --   -0.41507  -0.36312  -0.32342  -0.22996
 Alpha virt. eigenvalues --   -0.02925  -0.01641  -0.01236   0.00686   0.02672
 Alpha virt. eigenvalues --    0.03269   0.04809   0.06134   0.07051   0.07564
 Alpha virt. eigenvalues --    0.09430   0.10109   0.10535   0.11017   0.12160

 Mulliken charges:
               1
     1  C   -0.446221
     2  H    0.144794
     3  H    0.157156
     4  H    0.157698
     5  C    0.048347
     6  C   -0.556920
     7  C    0.246096
     8  H    0.249049
 Sum of Mulliken charges =  -0.00000

 Dipole moment (field-independent basis, Debye):
    X=              2.3223    Y=              3.0650    Z=              0.0063  Tot=              3.8454
 Quadrupole moment (field-independent basis, Debye-Ang):
   XX=            -23.9928   YY=            -27.4259   ZZ=            -24.0766
   XY=             -5.4900   XZ=              0.0119   YZ=             -0.0002

  Exact polarizability:  54.746  -0.265  45.385   0.012  -0.001  34.387
 Approx polarizability:  75.040  -3.395  66.037   0.024   0.010  51.149

                      1                      2                      3
                      A                      A                      A
 Frequencies --     50.6660               339.4739               386.7299
 Red. masses --      1.1691                 2.9315                 2.7585
 Frc consts  --      0.0018                 0.1990                 0.2431
 IR Inten    --      9.3036                 9.9211                 0.1446

                      4                      5                      6
                      A                      A                      A
 Frequencies --    757.3446               891.6324               927.7515
 Red. masses --      3.3921                 1.2894                 1.3309
 Frc consts  --      1.1463                 0.6040                 0.6749
 IR Inten    --      1.0914                 5.2742                 8.8904

                      7                      8                      9
                      A                      A                      A
 Frequencies --   1012.1680              1036.6820              1198.9109
 Red. masses --      1.7680                 1.5950                 3.8763
 Frc consts  --      1.0672                 1.0100                 3.2827
 IR Inten    --      7.2676                 6.2226                14.5729

                     10                     11                     12
                      A                      A                      A
 Frequencies --   1315.8868              1398.6237              1477.2568
 Red. masses --      5.9415                 1.2180                 1.0708
 Frc consts  --      6.0615                 1.4037                 1.3768
 IR Inten    --     30.4540                 6.4155                16.0261

                     13                     14                     15
                      A                      A                      A
 Frequencies --   1480.0075              1772.2123              3028.8417
 Red. masses --      1.0447                 7.9746                 1.0346
 Frc consts  --      1.3483                14.7568                 5.5918
 IR Inten    --      8.5102                16.8275                 7.5969

                     16                     17                     18
                      A                      A                      A
 Frequencies --   3085.1241              3108.7582              3219.7655
 Red. masses --      1.0982                 1.1038                 1.1130
 Frc consts  --      6.1586                 6.2849                 6.7984
 IR Inten    --      2.9528                13.3529                 0.2089

 - Thermochemistry -
 -------------------
 Temperature   298.150 Kelvin.  Pressure   1.00000 Atm.
 Atom     1 has atomic number  6 and mass  12.00000

 Molecular mass:    52.03130 amu.
 Principal axes and moments of inertia in atomic units:
                           1         2         3
     Eigenvalues --    62.58607 261.55671 313.12287
           X            0.99925  -0.03866   0.00008
           Y            0.03866   0.99925   0.00000
           Z           -0.00008   0.00000   1.00000
 This molecule is an asymmetric top.
 Rotational symmetry number  1.
 Rotational temperatures (Kelvin)      1.38392     0.33115     0.27661
 Rotational constants (GHZ):          28.83615     6.90000     5.76368
 Zero-point vibrational energy     158432.4 (Joules/Mol)
                                   37.86626 (Kcal/Mol)
 Warning -- explicit consideration of   3 degrees of freedom as
           vibrations may cause significant error
 Vibrational temperatures:     72.90   488.43   556.42  1089.65  1282.86
          (Kelvin)           1334.83  1456.28  1491.55  1724.96  1893.27
                             2012.31  2125.44  2129.40  2549.82  4357.82
                             4438.80  4472.80  4632.52

 Zero-point correction=                           0.060344 (Hartree/Particle)
 Thermal correction to Energy=                    0.065016
 Thermal correction to Enthalpy=                  0.065960
 Thermal correction to Gibbs Free Energy=         0.033298
 Sum of electronic and zero-point Energies=           -154.676723
 Sum of electronic and thermal Energies=              -154.672052
 Sum of electronic and thermal Enthalpies=            -154.671107
 Sum of electronic and thermal Free Energies=         -154.703769

                     E (Thermal)             CV                S
                      KCal/Mol        Cal/Mol-Kelvin    Cal/Mol-Kelvin
 Total                   40.798             14.078             68.742
 Electronic               0.000              0.000              0.000
 Translational            0.889              2.981             37.771
 Rotational               0.889              2.981             23.154
 Vibrational             39.020              8.116              7.817
 Vibration     1          0.595              1.977              4.791
 Vibration     2          0.719              1.597              1.215
 Vibration     3          0.755              1.499              1.013

 Normal termination of Gaussian 09 at Tue Jun 21 21:14:50 2016.
