 Gaussian 09, Revision E.01,
 Gaussian 09:  EM64L-G09RevE.01 30-Nov-2015

 ---------------------------------------------
 #p b3lyp/6-311++G(3df,2p) freq symmetry=Loose
 ---------------------------------------------

 ---------
 b3lyp opt
 ---------
 Symbolic Z-matrix:
 Charge =  3 Multiplicity = 4

                         Standard orientation:
 ---------------------------------------------------------------------
 Center     Atomic      Atomic             Coordinates (Angstroms)
 Number     Number       Type             X           Y           Z
 ---------------------------------------------------------------------
      1          6           0        1.810576    0.621918    0.050800
      2          6           0       -0.461310   -0.234459    0.365245
      3          1           0       -0.523069   -0.486791    1.479997
      4          6           0       -1.665481    0.229429   -0.178850
      5          1           0       -1.925743    1.305099   -0.420209
      6          1           0       -2.512805   -0.517654   -0.344439
      7          6           0        0.938750   -0.436568   -0.228267
      8          1           0        1.226408   -1.382573   -0.768920
 ---------------------------------------------------------------------

 SCF Done:  E(UB3LYP) =  -152.849580121     A.U. after   18 cycles

 The electronic state is 4-A.
 Alpha  occ. eigenvalues --  -11.10692 -11.05472 -11.05423 -11.02764  -1.61533
 Alpha  occ. eigenvalues --   -1.53249  -1.37262  -1.28188  -1.22015  -1.20855
 Alpha  occ. eigenvalues --   -1.16534  -1.13920  -1.07943  -0.99235
 Alpha virt. eigenvalues --   -0.89069  -0.85108  -0.80520  -0.57321  -0.53830
 Alpha virt. eigenvalues --   -0.50792  -0.49402  -0.48028  -0.46601  -0.45674
 Alpha virt. eigenvalues --   -0.43161  -0.42182  -0.41404  -0.39221  -0.38609

  Beta  occ. eigenvalues --  -11.06555 -11.05018 -11.04421 -11.02548  -1.58125
  Beta  occ. eigenvalues --   -1.49185  -1.33705  -1.24873  -1.20355  -1.19582
  Beta  occ. eigenvalues --   -1.15474
  Beta virt. eigenvalues --   -0.92422  -0.90316  -0.87332  -0.83327  -0.78206
  Beta virt. eigenvalues --   -0.70060  -0.55104  -0.53259  -0.49788  -0.47957
  Beta virt. eigenvalues --   -0.47438  -0.45397  -0.44344  -0.42198  -0.41502

 Mulliken charges and spin densities:
               1          2
     1  C    0.587898   2.088806
     2  C    0.359923   0.185776
     3  H    0.355236   0.016356
     4  C    0.118476   0.148563
     5  H    0.372588   0.012768
     6  H    0.366351   0.004390
     7  C    0.488645   0.500623
     8  H    0.350884   0.042718
 Sum of Mulliken charges =   3.00000   3.00000

 Dipole moment (field-independent basis, Debye):
    X=             -1.3490    Y=              0.1567    Z=              0.0012  Tot=              1.3580
 Quadrupole moment (field-independent basis, Debye-Ang):
   XX=             21.5185   YY=             -8.8973   ZZ=            -12.1139
   XY=             -0.2795   XZ=              0.4330   YZ=             -0.1176

  Exact polarizability:  79.398   3.828  27.810  -0.713  -0.315  23.485
 Approx polarizability: 158.029  22.164  47.556   1.003  -1.173  35.128

                      1                      2                      3
                      A                      A                      A
 Frequencies --    156.5729               263.2510               338.5654
 Red. masses --      2.9158                 2.1060                 2.6354
 Frc consts  --      0.0421                 0.0860                 0.1780
 IR Inten    --      5.7454                43.8613                13.5018

                      4                      5                      6
                      A                      A                      A
 Frequencies --    475.1930               639.1774               746.2497
 Red. masses --      1.6026                 1.1145                 2.6211
 Frc consts  --      0.2132                 0.2683                 0.8600
 IR Inten    --    126.4576               146.4077                33.2030

                      7                      8                      9
                      A                      A                      A
 Frequencies --    792.8826               897.3801              1026.6342
 Red. masses --      1.5779                 1.7863                 1.5180
 Frc consts  --      0.5845                 0.8476                 0.9427
 IR Inten    --     18.4304                50.7261                13.9627

                     10                     11                     12
                      A                      A                      A
 Frequencies --   1083.2866              1153.4314              1177.6125
 Red. masses --      2.2367                 1.2025                 1.7831
 Frc consts  --      1.5465                 0.9426                 1.4569
 IR Inten    --     14.1287                26.9109                 1.6127

                     13                     14                     15
                      A                      A                      A
 Frequencies --   1224.2892              1292.6018              2583.0824
 Red. masses --      1.1713                 5.0531                 1.0763
 Frc consts  --      1.0344                 4.9744                 4.2312
 IR Inten    --    193.5054                16.7633               537.0007

                     16                     17                     18
                      A                      A                      A
 Frequencies --   2607.3906              2711.3803              2754.1111
 Red. masses --      1.0552                 1.1018                 1.0894
 Frc consts  --      4.2267                 4.7723                 4.8685
 IR Inten    --   1079.0840               500.5532               361.8048

 - Thermochemistry -
 -------------------
 Temperature   298.150 Kelvin.  Pressure   1.00000 Atm.
 Atom     1 has atomic number  6 and mass  12.00000

 Molecular mass:    52.03130 amu.
 Principal axes and moments of inertia in atomic units:
                           1         2         3
     Eigenvalues --    64.33131 368.53411 391.85756
           X            0.99955  -0.03002  -0.00031
           Y            0.03002   0.99954  -0.00384
           Z            0.00043   0.00383   0.99999
 This molecule is an asymmetric top.
 Rotational symmetry number  1.
 Rotational temperatures (Kelvin)      1.34637     0.23502     0.22103
 Rotational constants (GHZ):          28.05385     4.89708     4.60561
 Zero-point vibrational energy     131129.2 (Joules/Mol)
                                   31.34063 (Kcal/Mol)
 Warning -- explicit consideration of   4 degrees of freedom as
           vibrations may cause significant error
 Vibrational temperatures:    225.27   378.76   487.12   683.70   919.63
          (Kelvin)           1073.69  1140.78  1291.13  1477.10  1558.61
                             1659.53  1694.32  1761.48  1859.76  3716.47
                             3751.45  3901.07  3962.55

 Zero-point correction=                           0.049944 (Hartree/Particle)
 Thermal correction to Energy=                    0.054990
 Thermal correction to Enthalpy=                  0.055934
 Thermal correction to Gibbs Free Energy=         0.021842
 Sum of electronic and zero-point Energies=           -152.799636
 Sum of electronic and thermal Energies=              -152.794590
 Sum of electronic and thermal Enthalpies=            -152.793646
 Sum of electronic and thermal Free Energies=         -152.827738

                     E (Thermal)             CV                S
                      KCal/Mol        Cal/Mol-Kelvin    Cal/Mol-Kelvin
 Total                   34.507             16.806             71.752
 Electronic               0.000              0.000              2.755
 Translational            0.889              2.981             37.771
 Rotational               0.889              2.981             23.745
 Vibrational             32.729             10.844              7.482
 Vibration     1          0.620              1.895              2.591
 Vibration     2          0.670              1.740              1.640
 Vibration     3          0.719              1.598              1.219
 Vibration     4          0.832              1.305              0.723

 Optimization completed.
    -- Stationary point found.
 Normal termination of Gaussian 09 at Wed Jun 22 00:57:53 2016.
