 Gaussian 09, Revision E.01,
 Gaussian 09:  EM64L-G09RevE.01 30-Nov-2015

 ---------------------------------------------
 #p b3lyp/6-311++G(3df,2p) freq symmetry=Loose
 ---------------------------------------------

 ---------
 b3lyp opt
 ---------
 Symbolic Z-matrix:
 Charge =  2 Multiplicity = 3

                         Standard orientation:
 ---------------------------------------------------------------------
 Center     Atomic      Atomic             Coordinates (Angstroms)
 Number     Number       Type             X           Y           Z
 ---------------------------------------------------------------------
      1          6           0        1.127250   -0.112694    0.111095
      2          1           0        2.188529   -0.177605    0.378244
      3          6           0        0.081512    0.883850   -0.032217
      4          1           0        0.117481    1.887964   -0.483517
      5          6           0       -1.054344   -0.072874    0.109865
      6          1           0       -2.003324    0.047356   -0.488827
      7          1           0       -1.501593   -0.259024    1.141865
      8          6           0        0.045400   -0.948064   -0.280038
 ---------------------------------------------------------------------

 SCF Done:  E(UB3LYP) =  -153.766010057     A.U. after   14 cycles

 The electronic state is 3-A.
 Alpha  occ. eigenvalues --  -10.82834 -10.80021 -10.79310 -10.73712  -1.48455
 Alpha  occ. eigenvalues --   -1.22604  -1.16044  -1.06525  -1.00984  -0.95420
 Alpha  occ. eigenvalues --   -0.94695  -0.94000  -0.83608  -0.80360
 Alpha virt. eigenvalues --   -0.60102  -0.56344  -0.37436  -0.34514  -0.33535
 Alpha virt. eigenvalues --   -0.32347  -0.32003  -0.28572  -0.27679  -0.26787
 Alpha virt. eigenvalues --   -0.24677  -0.23712  -0.23416  -0.22147  -0.21652

  Beta  occ. eigenvalues --  -10.81034 -10.79538 -10.78592 -10.73441  -1.46012
  Beta  occ. eigenvalues --   -1.20415  -1.13311  -1.04681  -0.96568  -0.93521
  Beta  occ. eigenvalues --   -0.92790  -0.91686
  Beta virt. eigenvalues --   -0.72897  -0.64104  -0.55848  -0.50754  -0.36240
  Beta virt. eigenvalues --   -0.33718  -0.32410  -0.31324  -0.31273  -0.27850
  Beta virt. eigenvalues --   -0.26965  -0.25996  -0.23615  -0.22770  -0.22388

 Mulliken charges and spin densities:
               1          2
     1  C    0.267210   0.408880
     2  H    0.386993   0.001849
     3  C    0.215951   0.278435
     4  H    0.318108   0.026347
     5  C   -0.232768   0.056755
     6  H    0.267839   0.119117
     7  H    0.326961   0.123347
     8  C    0.449707   0.985269
 Sum of Mulliken charges =   2.00000   2.00000

 Dipole moment (field-independent basis, Debye):
    X=             -0.1232    Y=              0.8321    Z=              0.4555  Tot=              0.9566
 Quadrupole moment (field-independent basis, Debye-Ang):
   XX=             -2.4843   YY=            -11.7107   ZZ=            -16.5694
   XY=              0.0243   XZ=              0.0464   YZ=             -1.3425

  Exact polarizability:  43.948  -0.044  33.853  -0.508   0.045  23.124
 Approx polarizability:  73.442   0.244  63.333  -1.433   2.841  35.721

                      1                      2                      3
                      A                      A                      A
 Frequencies --    372.7324               565.0693               638.7884
 Red. masses --      1.6466                 1.5356                 1.7325
 Frc consts  --      0.1348                 0.2889                 0.4165
 IR Inten    --     27.0734                28.0157                17.2956

                      4                      5                      6
                      A                      A                      A
 Frequencies --    703.9566               820.8627               883.3949
 Red. masses --      1.4852                 1.9511                 1.8112
 Frc consts  --      0.4336                 0.7746                 0.8328
 IR Inten    --      0.9556                29.1668                60.8443

                      7                      8                      9
                      A                      A                      A
 Frequencies --    940.3605               973.9334              1010.9916
 Red. masses --      2.7029                 1.6401                 1.2211
 Frc consts  --      1.4082                 0.9166                 0.7354
 IR Inten    --     19.0431                98.2009                 4.6615

                     10                     11                     12
                      A                      A                      A
 Frequencies --   1083.2926              1098.9946              1181.4281
 Red. masses --      1.2627                 1.6536                 2.2650
 Frc consts  --      0.8730                 1.1767                 1.8627
 IR Inten    --    257.2561                42.1609                98.8679

                     13                     14                     15
                      A                      A                      A
 Frequencies --   1190.5851              1324.3936              2554.3792
 Red. masses --      2.5629                 4.3122                 1.0734
 Frc consts  --      2.1404                 4.4564                 4.1267
 IR Inten    --     10.5612                27.4652               344.3364

                     16                     17                     18
                      A                      A                      A
 Frequencies --   2698.2685              3025.7155              3090.7934
 Red. masses --      1.0719                 1.0964                 1.1089
 Frc consts  --      4.5979                 5.9137                 6.2415
 IR Inten    --    616.4435               223.8904               233.9883

 - Thermochemistry -
 -------------------
 Temperature   298.150 Kelvin.  Pressure   1.00000 Atm.
 Atom     1 has atomic number  6 and mass  12.00000

 Molecular mass:    52.03130 amu.
 Principal axes and moments of inertia in atomic units:
                           1         2         3
     Eigenvalues --    97.14261 153.27734 228.29361
           X            0.99998   0.00594   0.00047
           Y           -0.00590   0.99814  -0.06072
           Z           -0.00083   0.06072   0.99815
 This molecule is an asymmetric top.
 Rotational symmetry number  1.
 Rotational temperatures (Kelvin)      0.89162     0.56508     0.37940
 Rotational constants (GHZ):          18.57827    11.77435     7.90535
 Zero-point vibrational energy     144496.6 (Joules/Mol)
                                   34.53551 (Kcal/Mol)
 Warning -- explicit consideration of   2 degrees of freedom as
           vibrations may cause significant error
 Vibrational temperatures:    536.28   813.01   919.07  1012.84  1181.04
          (Kelvin)           1271.01  1352.97  1401.27  1454.59  1558.61
                             1581.21  1699.81  1712.98  1905.50  3675.18
                             3882.20  4353.32  4446.96

 Zero-point correction=                           0.055036 (Hartree/Particle)
 Thermal correction to Energy=                    0.058986
 Thermal correction to Enthalpy=                  0.059930
 Thermal correction to Gibbs Free Energy=         0.028636
 Sum of electronic and zero-point Energies=           -153.710974
 Sum of electronic and thermal Energies=              -153.707024
 Sum of electronic and thermal Enthalpies=            -153.706080
 Sum of electronic and thermal Free Energies=         -153.737374

                     E (Thermal)             CV                S
                      KCal/Mol        Cal/Mol-Kelvin    Cal/Mol-Kelvin
 Total                   37.014             13.871             65.865
 Electronic               0.000              0.000              2.183
 Translational            0.889              2.981             37.771
 Rotational               0.889              2.981             22.746
 Vibrational             35.237              7.909              3.166
 Vibration     1          0.744              1.528              1.069
 Vibration     2          0.921              1.107              0.514

 Optimization completed.
    -- Stationary point found.
 Normal termination of Gaussian 09 at Tue Jun 21 23:28:09 2016.
