 Gaussian 09, Revision E.01,
 Gaussian 09:  EM64L-G09RevE.01 30-Nov-2015

 ---------------------------------------------
 #p b3lyp/6-311++G(3df,2p) freq symmetry=Loose
 ---------------------------------------------

 ---------
 b3lyp opt
 ---------
 Symbolic Z-matrix:
 Charge =  3 Multiplicity = 4

                         Standard orientation:
 ---------------------------------------------------------------------
 Center     Atomic      Atomic             Coordinates (Angstroms)
 Number     Number       Type             X           Y           Z
 ---------------------------------------------------------------------
      1          6           0        0.647679    1.721920    0.000000
      2          1           0        1.756182    1.864463    0.000000
      3          1           0        0.019383    2.705436    0.515338
      4          1           0        0.019383    2.705436   -0.515338
      5          6           0        0.000000    0.512115    0.000000
      6          6           0       -0.248398   -0.808052   -0.000000
      7          6           0       -0.553464   -2.107432   -0.000000
      8          1           0       -0.869849   -3.186647   -0.000000
 ---------------------------------------------------------------------

 SCF Done:  E(UB3LYP) =  -152.889531280     A.U. after   16 cycles

 The electronic state is 4-A".
 Alpha  occ. eigenvalues --  -11.05708 -11.04648 -11.02853 -11.00189  -1.59790
 Alpha  occ. eigenvalues --   -1.53750  -1.44357  -1.29374  -1.22917  -1.19667
 Alpha  occ. eigenvalues --   -1.12138  -1.11960  -1.04157  -0.97379
 Alpha virt. eigenvalues --   -0.84652  -0.73084  -0.67431  -0.64428  -0.58484
 Alpha virt. eigenvalues --   -0.54795  -0.50294  -0.48215  -0.45664  -0.44101
 Alpha virt. eigenvalues --   -0.41686  -0.41360  -0.40862  -0.38118  -0.37125

  Beta  occ. eigenvalues --  -11.04542 -11.02962 -11.01773 -10.99381  -1.54845
  Beta  occ. eigenvalues --   -1.49030  -1.40578  -1.27147  -1.21034  -1.16710
  Beta  occ. eigenvalues --   -1.07490
  Beta virt. eigenvalues --   -0.95781  -0.92948  -0.81164  -0.79884  -0.64184
  Beta virt. eigenvalues --   -0.63531  -0.60764  -0.54862  -0.51459  -0.49368
  Beta virt. eigenvalues --   -0.46952  -0.44416  -0.43150  -0.40949  -0.40589

 Mulliken charges and spin densities:
               1          2
     1  C   -0.007576   0.391510
     2  H    0.386058   0.031259
     3  H    0.337540   0.075899
     4  H    0.337540   0.075899
     5  C    0.526378   0.813832
     6  C    0.361315   0.840248
     7  C    0.551132   0.802180
     8  H    0.507612  -0.030828
 Sum of Mulliken charges =   3.00000   3.00000

 Dipole moment (field-independent basis, Debye):
    X=             -0.4110    Y=              2.2373    Z=              0.0000  Tot=              2.2747
 Quadrupole moment (field-independent basis, Debye-Ang):
   XX=            -10.6543   YY=             50.4293   ZZ=            -17.1908
   XY=             14.3623   XZ=             -0.0000   YZ=              0.0000

  Exact polarizability:  26.275  16.689  88.463  -0.000  -0.000  19.798
 Approx polarizability:  39.429  34.152 170.045  -0.000   0.000  27.840

                      1                      2                      3
                     A'                     A"                     A'
 Frequencies --    139.4862               217.0142               348.3642
 Red. masses --      3.2038                 2.4734                 1.5412
 Frc consts  --      0.0367                 0.0686                 0.1102
 IR Inten    --     50.0602                76.3658                39.2529

                      4                      5                      6
                     A'                     A"                     A"
 Frequencies --    373.0019               378.0616               488.8019
 Red. masses --      3.1002                 1.2060                 2.6476
 Frc consts  --      0.2541                 0.1016                 0.3727
 IR Inten    --      4.9588                 0.0381                 8.8673

                      7                      8                      9
                     A'                     A"                     A"
 Frequencies --    743.8277               777.8220               793.4234
 Red. masses --      1.7422                 1.3755                 1.4657
 Frc consts  --      0.5679                 0.4903                 0.5436
 IR Inten    --     18.8753                 0.3765               117.3465

                     10                     11                     12
                     A'                     A'                     A'
 Frequencies --    813.6014              1096.6887              1280.0581
 Red. masses --      2.8871                 1.2366                 5.0760
 Frc consts  --      1.1260                 0.8763                 4.9004
 IR Inten    --      4.3835               863.2898               124.4607

                     13                     14                     15
                     A'                     A"                     A'
 Frequencies --   1376.2976              1569.2821              1751.1218
 Red. masses --      1.1179                 1.0231                 6.0801
 Frc consts  --      1.2476                 1.4845                10.9848
 IR Inten    --    128.5262               255.3774                10.3804

                     16                     17                     18
                     A'                     A'                     A'
 Frequencies --   2163.5309              2820.1042              2848.8184
 Red. masses --      1.0636                 1.0920                 1.1308
 Frc consts  --      2.9334                 5.1167                 5.4071
 IR Inten    --    551.6916               836.1328               506.2445

 - Thermochemistry -
 -------------------
 Temperature   298.150 Kelvin.  Pressure   1.00000 Atm.
 Atom     1 has atomic number  6 and mass  12.00000

 Molecular mass:    52.03130 amu.
 Principal axes and moments of inertia in atomic units:
                           1         2         3
     Eigenvalues --    12.58717 495.96342 504.72739
           X            0.27607   0.96114   0.00000
           Y            0.96114  -0.27607   0.00000
           Z            0.00000   0.00000   1.00000
 This molecule is an asymmetric top.
 Rotational symmetry number  1.
 Rotational temperatures (Kelvin)      6.88112     0.17464     0.17161
 Rotational constants (GHZ):         143.37939     3.63886     3.57568
 Zero-point vibrational energy     119502.8 (Joules/Mol)
                                   28.56185 (Kcal/Mol)
 Warning -- explicit consideration of   6 degrees of freedom as
           vibrations may cause significant error
 Vibrational temperatures:    200.69   312.23   501.22   536.67   543.95
          (Kelvin)            703.28  1070.20  1119.11  1141.56  1170.59
                             1577.89  1841.72  1980.18  2257.84  2519.47
                             3112.83  4057.50  4098.81

 Zero-point correction=                           0.045516 (Hartree/Particle)
 Thermal correction to Energy=                    0.051196
 Thermal correction to Enthalpy=                  0.052140
 Thermal correction to Gibbs Free Energy=         0.017463
 Sum of electronic and zero-point Energies=           -152.844015
 Sum of electronic and thermal Energies=              -152.838335
 Sum of electronic and thermal Enthalpies=            -152.837391
 Sum of electronic and thermal Free Energies=         -152.872069

                     E (Thermal)             CV                S
                      KCal/Mol        Cal/Mol-Kelvin    Cal/Mol-Kelvin
 Total                   32.126             18.966             72.985
 Electronic               0.000              0.000              2.755
 Translational            0.889              2.981             37.771
 Rotational               0.889              2.981             22.670
 Vibrational             30.349             13.005              9.789
 Vibration     1          0.615              1.914              2.811
 Vibration     2          0.646              1.815              1.984
 Vibration     3          0.726              1.579              1.174
 Vibration     4          0.744              1.528              1.067
 Vibration     5          0.748              1.517              1.047
 Vibration     6          0.845              1.275              0.687

 Normal termination of Gaussian 09 at Tue Jul 19 23:21:48 2016.
