 Gaussian 09, Revision E.01,
 Gaussian 09:  EM64L-G09RevE.01 30-Nov-2015

 ---------------------------------------------
 #p b3lyp/6-311++G(3df,2p) freq symmetry=Loose
 ---------------------------------------------

 ---------
 b3lyp opt
 ---------
 Symbolic Z-matrix:
 Charge =  3 Multiplicity = 4

                         Standard orientation:
 ---------------------------------------------------------------------
 Center     Atomic      Atomic             Coordinates (Angstroms)
 Number     Number       Type             X           Y           Z
 ---------------------------------------------------------------------
      1          6           0        1.747931   -0.402751    0.000582
      2          1           0        2.624204   -1.117065    0.002851
      3          6           0        0.713836    0.459135   -0.001740
      4          1           0        1.024246    1.556158   -0.006514
      5          6           0       -0.957012    0.371649    0.002025
      6          1           0       -1.321834    0.985104   -0.894280
      7          1           0       -1.315300    0.979300    0.904747
      8          6           0       -1.673307   -0.828616   -0.002001
 ---------------------------------------------------------------------

 SCF Done:  E(UB3LYP) =  -152.825759471     A.U. after   17 cycles

 The electronic state is 4-A.
 Alpha  occ. eigenvalues --  -11.10577 -11.08912 -11.03710 -10.97663  -1.59312
 Alpha  occ. eigenvalues --   -1.53751  -1.34840  -1.27184  -1.20161  -1.18653
 Alpha  occ. eigenvalues --   -1.16353  -1.11489  -1.08677  -0.98824
 Alpha virt. eigenvalues --   -0.88180  -0.85299  -0.78309  -0.60415  -0.54944
 Alpha virt. eigenvalues --   -0.53998  -0.50249  -0.49900  -0.47393  -0.44941
 Alpha virt. eigenvalues --   -0.43704  -0.42351  -0.39262  -0.38786  -0.36280

  Beta  occ. eigenvalues --  -11.07495 -11.07098 -11.02847 -10.97369  -1.55257
  Beta  occ. eigenvalues --   -1.49278  -1.31362  -1.24580  -1.17897  -1.16392
  Beta  occ. eigenvalues --   -1.14839
  Beta virt. eigenvalues --   -0.94235  -0.89457  -0.85443  -0.79990  -0.78404
  Beta virt. eigenvalues --   -0.71073  -0.57347  -0.54250  -0.51767  -0.49573
  Beta virt. eigenvalues --   -0.49385  -0.46922  -0.43953  -0.42801  -0.40901

 Mulliken charges and spin densities:
               1          2
     1  C    0.677113   0.773230
     2  H    0.519632  -0.018581
     3  C    0.036890   0.493086
     4  H    0.342945  -0.017955
     5  C    0.086275   0.106268
     6  H    0.353855   0.008038
     7  H    0.353824   0.008578
     8  C    0.629465   1.647335
 Sum of Mulliken charges =   3.00000   3.00000

 Dipole moment (field-independent basis, Debye):
    X=              1.6473    Y=             -0.5329    Z=              0.0012  Tot=              1.7313
 Quadrupole moment (field-independent basis, Debye-Ang):
   XX=             23.3975   YY=             -4.5693   ZZ=            -15.0401
   XY=             -2.1598   XZ=              0.0105   YZ=             -0.0127

  Exact polarizability:  74.027   0.779  32.884   0.005  -0.007  21.917
 Approx polarizability: 147.871   8.398  57.759   0.033  -0.009  32.742

                      1                      2                      3
                      A                      A                      A
 Frequencies --     45.3968               233.9840               272.2724
 Red. masses --      1.8351                 4.8483                 3.3817
 Frc consts  --      0.0022                 0.1564                 0.1477
 IR Inten    --      1.9979               108.1087                23.5085

                      4                      5                      6
                      A                      A                      A
 Frequencies --    470.6804               490.1603               631.8896
 Red. masses --      5.8854                 1.4430                 1.1584
 Frc consts  --      0.7682                 0.2043                 0.2725
 IR Inten    --      4.6116                78.5587                35.7674

                      7                      8                      9
                      A                      A                      A
 Frequencies --    740.8673               833.7722               942.2042
 Red. masses --      1.5070                 1.4914                 2.2514
 Frc consts  --      0.4874                 0.6109                 1.1776
 IR Inten    --      0.7355                93.6219               122.1207

                     10                     11                     12
                      A                      A                      A
 Frequencies --    960.9113              1017.8270              1091.4157
 Red. masses --      1.1916                 1.0825                 1.1017
 Frc consts  --      0.6483                 0.6607                 0.7732
 IR Inten    --      0.5702                31.1058                52.5340

                     13                     14                     15
                      A                      A                      A
 Frequencies --   1182.5072              1442.0624              2559.1764
 Red. masses --      1.9639                 4.8714                 1.0622
 Frc consts  --      1.6180                 5.9686                 4.0989
 IR Inten    --     22.1278               215.8974               521.4877

                     16                     17                     18
                      A                      A                      A
 Frequencies --   2560.1762              2636.5268              2791.9986
 Red. masses --      1.0855                 1.0750                 1.1344
 Frc consts  --      4.1921                 4.4026                 5.2103
 IR Inten    --    414.1439               838.6035               734.1709

 - Thermochemistry -
 -------------------
 Temperature   298.150 Kelvin.  Pressure   1.00000 Atm.
 Atom     1 has atomic number  6 and mass  12.00000

 Molecular mass:    52.03130 amu.
 Principal axes and moments of inertia in atomic units:
                           1         2         3
     Eigenvalues --    76.24246 359.49604 424.08861
           X            0.99882  -0.04861  -0.00005
           Y            0.04861   0.99882  -0.00042
           Z            0.00007   0.00042   1.00000
 This molecule is an asymmetric top.
 Rotational symmetry number  1.
 Rotational temperatures (Kelvin)      1.13603     0.24093     0.20424
 Rotational constants (GHZ):          23.67108     5.02020     4.25558
 Zero-point vibrational energy     125032.7 (Joules/Mol)
                                   29.88352 (Kcal/Mol)
 Warning -- explicit consideration of   5 degrees of freedom as
           vibrations may cause significant error
 Vibrational temperatures:     65.32   336.65   391.74   677.20   705.23
          (Kelvin)            909.15  1065.94  1199.61  1355.62  1382.54
                             1464.42  1570.30  1701.36  2074.80  3682.08
                             3683.52  3793.37  4017.06

 Zero-point correction=                           0.047622 (Hartree/Particle)
 Thermal correction to Energy=                    0.053226
 Thermal correction to Enthalpy=                  0.054170
 Thermal correction to Gibbs Free Energy=         0.018236
 Sum of electronic and zero-point Energies=           -152.778137
 Sum of electronic and thermal Energies=              -152.772533
 Sum of electronic and thermal Enthalpies=            -152.771589
 Sum of electronic and thermal Free Energies=         -152.807523

                     E (Thermal)             CV                S
                      KCal/Mol        Cal/Mol-Kelvin    Cal/Mol-Kelvin
 Total                   33.400             18.181             75.630
 Electronic               0.000              0.000              2.755
 Translational            0.889              2.981             37.771
 Rotational               0.889              2.981             23.967
 Vibrational             31.622             12.219             11.137
 Vibration     1          0.595              1.979              5.008
 Vibration     2          0.654              1.789              1.848
 Vibration     3          0.675              1.724              1.582
 Vibration     4          0.828              1.315              0.736
 Vibration     5          0.846              1.272              0.683

 Normal termination of Gaussian 09 at Wed Jun 22 00:32:32 2016.
