 Gaussian 09, Revision E.01,
 Gaussian 09:  EM64L-G09RevE.01 30-Nov-2015

 ---------------------------------------------
 #p b3lyp/6-311++G(3df,2p) freq symmetry=Loose
 ---------------------------------------------

 ---------
 b3lyp opt
 ---------
 Symbolic Z-matrix:
 Charge =  0 Multiplicity = 3

                         Standard orientation:
 ---------------------------------------------------------------------
 Center     Atomic      Atomic             Coordinates (Angstroms)
 Number     Number       Type             X           Y           Z
 ---------------------------------------------------------------------
      1          6           0        0.000000    0.798335   -0.581771
      2          1           0       -0.900385    1.227322   -1.019944
      3          1           0        0.900385    1.227322   -1.019944
      4          6           0       -0.000000   -0.798335   -0.581771
      5          1           0       -0.900385   -1.227322   -1.019944
      6          1           0        0.900385   -1.227322   -1.019944
      7          6           0        0.000000    0.665515    0.921753
      8          6           0       -0.000000   -0.665515    0.921753
 ---------------------------------------------------------------------

 SCF Done:  E(UB3LYP) =  -154.644287298     A.U. after   11 cycles

 The electronic state is 3-B2.
 Alpha  occ. eigenvalues --  -10.21184 -10.21112 -10.21107 -10.21083  -0.89652
 Alpha  occ. eigenvalues --   -0.67654  -0.66854  -0.49268  -0.46428  -0.46135
 Alpha  occ. eigenvalues --   -0.40667  -0.39817  -0.28197  -0.27452  -0.24127
 Alpha virt. eigenvalues --   -0.00890  -0.00099   0.01314   0.01529   0.03714
 Alpha virt. eigenvalues --    0.05023   0.06345   0.06570   0.07917   0.09111
 Alpha virt. eigenvalues --    0.09631   0.11078   0.12450   0.12972   0.13494

  Beta  occ. eigenvalues --  -10.20738 -10.20724 -10.19633 -10.19559  -0.87172
  Beta  occ. eigenvalues --   -0.65445  -0.65380  -0.48859  -0.42696  -0.42502
  Beta  occ. eigenvalues --   -0.39501  -0.38048  -0.25833
  Beta virt. eigenvalues --   -0.13160  -0.08497  -0.00802   0.01565   0.01700
  Beta virt. eigenvalues --    0.02266   0.04379   0.05034   0.06722   0.06919
  Beta virt. eigenvalues --    0.08265   0.09149   0.10013   0.11699   0.12616

 Mulliken charges and spin densities:
               1          2
     1  C   -0.249745   0.111994
     2  H    0.139851   0.006342
     3  H    0.139851   0.006342
     4  C   -0.249745   0.111994
     5  H    0.139851   0.006342
     6  H    0.139851   0.006342
     7  C   -0.029957   0.875323
     8  C   -0.029957   0.875323
 Sum of Mulliken charges =  -0.00000   2.00000

 Dipole moment (field-independent basis, Debye):
    X=             -0.0000    Y=             -0.0000    Z=             -2.2375  Tot=              2.2375
 Quadrupole moment (field-independent basis, Debye-Ang):
   XX=            -24.4110   YY=            -24.5492   ZZ=            -26.1980
   XY=             -0.0000   XZ=              0.0000   YZ=              0.0000

  Exact polarizability:  39.749   0.000  50.829  -0.000   0.000  48.946
 Approx polarizability:  54.630   0.000  83.443  -0.000  -0.000  69.568

                      1                      2                      3
                     A2                     A1                     B1
 Frequencies --    328.0524               765.6909               774.9530
 Red. masses --      2.6551                 6.0444                 1.1117
 Frc consts  --      0.1684                 2.0879                 0.3934
 IR Inten    --      0.0000                 1.8515                11.7062

                      4                      5                      6
                     B2                     B2                     A2
 Frequencies --    789.6011               954.2846               968.5536
 Red. masses --      7.3072                 4.1477                 1.5398
 Frc consts  --      2.6842                 2.2254                 0.8511
 IR Inten    --      5.2531                 4.1650                 0.0000

                      7                      8                      9
                     A1                     B1                     A2
 Frequencies --   1020.6800              1045.8746              1111.6728
 Red. masses --      3.6379                 1.1110                 1.1189
 Frc consts  --      2.2329                 0.7160                 0.8147
 IR Inten    --      1.0842                 0.7708                 0.0000

                     10                     11                     12
                     A1                     B2                     B2
 Frequencies --   1117.1066              1209.5935              1455.6389
 Red. masses --      1.2768                 1.4950                 1.0863
 Frc consts  --      0.9388                 1.2888                 1.3562
 IR Inten    --     22.8687                11.2029                 0.3943

                     13                     14                     15
                     A1                     A1                     B2
 Frequencies --   1470.1706              1614.0572              3042.8132
 Red. masses --      1.1493                 8.7882                 1.0512
 Frc consts  --      1.4636                13.4893                 5.7343
 IR Inten    --      2.0081                 2.2421                17.4031

                     16                     17                     18
                     A1                     A2                     B1
 Frequencies --   3047.7926              3102.0055              3116.6710
 Red. masses --      1.0539                 1.1117                 1.1116
 Frc consts  --      5.7677                 6.3027                 6.3618
 IR Inten    --     29.5247                 0.0000                17.5566

 - Thermochemistry -
 -------------------
 Temperature   298.150 Kelvin.  Pressure   1.00000 Atm.
 Atom     1 has atomic number  6 and mass  12.00000

 Molecular mass:    52.03130 amu.
 Principal axes and moments of inertia in atomic units:
                           1         2         3
     Eigenvalues --   125.93913 127.34777 229.94537
           X            0.00000   0.00000   1.00000
           Y            0.00000   1.00000   0.00000
           Z            1.00000   0.00000   0.00000
 This molecule is an asymmetric top.
 Rotational symmetry number  2.
 Rotational temperatures (Kelvin)      0.68774     0.68014     0.37667
 Rotational constants (GHZ):          14.33027    14.17175     7.84857
 Zero-point vibrational energy     161108.3 (Joules/Mol)
                                   38.50582 (Kcal/Mol)
 Warning -- explicit consideration of   1 degrees of freedom as
           vibrations may cause significant error
 Vibrational temperatures:    471.99  1101.66  1114.98  1136.06  1373.00
          (Kelvin)           1393.53  1468.53  1504.78  1599.45  1607.27
                             1740.33  2094.34  2115.24  2322.27  4377.92
                             4385.09  4463.09  4484.19

 Zero-point correction=                           0.061363 (Hartree/Particle)
 Thermal correction to Energy=                    0.065066
 Thermal correction to Enthalpy=                  0.066010
 Thermal correction to Gibbs Free Energy=         0.035636
 Sum of electronic and zero-point Energies=           -154.582924
 Sum of electronic and thermal Energies=              -154.579221
 Sum of electronic and thermal Enthalpies=            -154.578277
 Sum of electronic and thermal Free Energies=         -154.608652

                     E (Thermal)             CV                S
                      KCal/Mol        Cal/Mol-Kelvin    Cal/Mol-Kelvin
 Total                   40.830             12.134             63.929
 Electronic               0.000              0.000              2.183
 Translational            0.889              2.981             37.771
 Rotational               0.889              2.981             21.449
 Vibrational             39.052              6.173              2.526
 Vibration     1          0.711              1.619              1.270

 Optimization completed.
    -- Stationary point found.
 Normal termination of Gaussian 09 at Tue Jun 21 21:21:31 2016.
