 Gaussian 09, Revision E.01,
 Gaussian 09:  EM64L-G09RevE.01 30-Nov-2015

 ---------------------------------------------
 #p b3lyp/6-311++G(3df,2p) freq symmetry=Loose
 ---------------------------------------------

 ---------
 b3lyp opt
 ---------
 Symbolic Z-matrix:
 Charge =  0 Multiplicity = 3

                         Standard orientation:
 ---------------------------------------------------------------------
 Center     Atomic      Atomic             Coordinates (Angstroms)
 Number     Number       Type             X           Y           Z
 ---------------------------------------------------------------------
      1          6           0        0.095079   -0.174017   -0.002572
      2          6           0        1.530164    0.101072   -0.004288
      3          1           0        1.828283    0.605438    0.918216
      4          1           0        2.094573   -0.828572   -0.092370
      5          1           0        1.801697    0.752280   -0.838110
      6          6           0       -1.033481   -0.814346   -0.044717
      7          6           0       -1.270958    0.573869    0.140474
      8          1           0       -1.649375    1.351385   -0.521113
 ---------------------------------------------------------------------

 SCF Done:  E(UB3LYP) =  -154.654887006     A.U. after   16 cycles

 The electronic state is 3-A.
 Alpha  occ. eigenvalues --  -10.22881 -10.21538 -10.21457 -10.20486  -0.90884
 Alpha  occ. eigenvalues --   -0.76697  -0.59372  -0.52096  -0.46958  -0.45629
 Alpha  occ. eigenvalues --   -0.40850  -0.39669  -0.35409  -0.24482  -0.18491
 Alpha virt. eigenvalues --   -0.01182  -0.00920   0.01344   0.02670   0.03109
 Alpha virt. eigenvalues --    0.04742   0.05526   0.06985   0.07557   0.08199
 Alpha virt. eigenvalues --    0.10232   0.11225   0.11466   0.12200   0.12678

  Beta  occ. eigenvalues --  -10.22219 -10.20520 -10.20412 -10.19891  -0.88736
  Beta  occ. eigenvalues --   -0.76198  -0.55914  -0.50643  -0.45639  -0.44959
  Beta  occ. eigenvalues --   -0.37925  -0.35773  -0.32000
  Beta virt. eigenvalues --   -0.11945  -0.05583  -0.01051   0.01372   0.01523
  Beta virt. eigenvalues --    0.02879   0.03329   0.04997   0.05711   0.07282
  Beta virt. eigenvalues --    0.07704   0.08865   0.10461   0.11482   0.12116

 Mulliken charges and spin densities:
               1          2
     1  C    0.303087   0.251262
     2  C   -0.416040  -0.044270
     3  H    0.153909   0.022836
     4  H    0.149253   0.022104
     5  H    0.155712   0.008808
     6  C   -0.140177   0.655672
     7  C   -0.369882   1.042501
     8  H    0.164137   0.041087
 Sum of Mulliken charges =  -0.00000   2.00000

 Dipole moment (field-independent basis, Debye):
    X=              2.3638    Y=              0.9521    Z=             -0.6862  Tot=              2.6391
 Quadrupole moment (field-independent basis, Debye-Ang):
   XX=            -24.0536   YY=            -25.4565   ZZ=            -25.3635
   XY=             -1.2168   XZ=              1.2109   YZ=             -1.0656

  Exact polarizability:  60.272  -0.555  48.418  -0.350   0.975  37.058
 Approx polarizability:  86.511   3.671  74.034  -0.749   2.333  51.801

                      1                      2                      3
                      A                      A                      A
 Frequencies --    155.0815               287.5520               300.7383
 Red. masses --      1.1584                 3.4914                 2.9628
 Frc consts  --      0.0164                 0.1701                 0.1579
 IR Inten    --      0.4591                 3.3820                 3.4046

                      4                      5                      6
                      A                      A                      A
 Frequencies --    588.8174               878.9213               905.8630
 Red. masses --      4.8605                 1.2632                 1.2858
 Frc consts  --      0.9929                 0.5749                 0.6216
 IR Inten    --     14.2291                27.9276                25.1134

                      7                      8                      9
                      A                      A                      A
 Frequencies --    942.3190              1036.2223              1047.4216
 Red. masses --      4.0675                 1.6467                 1.4452
 Frc consts  --      2.1280                 1.0418                 0.9342
 IR Inten    --     15.7812                 1.0014                 0.8468

                     10                     11                     12
                      A                      A                      A
 Frequencies --   1111.9560              1405.7468              1464.5543
 Red. masses --      5.0210                 1.2250                 1.0408
 Frc consts  --      3.6578                 1.4263                 1.3153
 IR Inten    --     24.0315                 0.7820                11.3869

                     13                     14                     15
                      A                      A                      A
 Frequencies --   1474.7717              1806.1496              3010.9900
 Red. masses --      1.0430                11.0608                 1.0338
 Frc consts  --      1.3365                21.2590                 5.5219
 IR Inten    --     11.4669                 1.1579                18.5868

                     16                     17                     18
                      A                      A                      A
 Frequencies --   3062.4111              3066.5206              3084.8219
 Red. masses --      1.0995                 1.0892                 1.1012
 Frc consts  --      6.0753                 6.0348                 6.1740
 IR Inten    --      9.3553                25.1318                 7.1367

 - Thermochemistry -
 -------------------
 Temperature   298.150 Kelvin.  Pressure   1.00000 Atm.
 Atom     1 has atomic number  6 and mass  12.00000

 Molecular mass:    52.03130 amu.
 Principal axes and moments of inertia in atomic units:
                           1         2         3
     Eigenvalues --    63.76973 271.34104 320.48269
           X            0.99968  -0.02240   0.01193
           Y            0.02300   0.99832  -0.05313
           Z           -0.01072   0.05339   0.99852
 This molecule is an asymmetric top.
 Rotational symmetry number  1.
 Rotational temperatures (Kelvin)      1.35823     0.31921     0.27026
 Rotational constants (GHZ):          28.30091     6.65119     5.63132
 Zero-point vibrational energy     153306.6 (Joules/Mol)
                                   36.64115 (Kcal/Mol)
 Warning -- explicit consideration of   4 degrees of freedom as
           vibrations may cause significant error
 Vibrational temperatures:    223.13   413.72   432.69   847.18  1264.57
          (Kelvin)           1303.33  1355.79  1490.89  1507.00  1599.85
                             2022.55  2107.16  2121.86  2598.64  4332.14
                             4406.12  4412.03  4438.37

 Zero-point correction=                           0.058391 (Hartree/Particle)
 Thermal correction to Energy=                    0.063143
 Thermal correction to Enthalpy=                  0.064088
 Thermal correction to Gibbs Free Energy=         0.030906
 Sum of electronic and zero-point Energies=           -154.596496
 Sum of electronic and thermal Energies=              -154.591744
 Sum of electronic and thermal Enthalpies=            -154.590799
 Sum of electronic and thermal Free Energies=         -154.623981

                     E (Thermal)             CV                S
                      KCal/Mol        Cal/Mol-Kelvin    Cal/Mol-Kelvin
 Total                   39.623             14.983             69.836
 Electronic               0.000              0.000              2.183
 Translational            0.889              2.981             37.771
 Rotational               0.889              2.981             23.232
 Vibrational             37.846              9.021              6.650
 Vibration     1          0.620              1.897              2.609
 Vibration     2          0.685              1.697              1.488
 Vibration     3          0.693              1.672              1.413
 Vibration     4          0.946              1.056              0.469

 Optimization completed.
    -- Stationary point found.
 Normal termination of Gaussian 09 at Tue Jun 21 21:41:44 2016.
