 Gaussian 09, Revision E.01,
 Gaussian 09:  EM64L-G09RevE.01 30-Nov-2015

 ---------------------------------------------
 #p b3lyp/6-311++G(3df,2p) freq symmetry=Loose
 ---------------------------------------------

 ---------
 b3lyp opt
 ---------
 Symbolic Z-matrix:
 Charge =  0 Multiplicity = 3

                         Standard orientation:
 ---------------------------------------------------------------------
 Center     Atomic      Atomic             Coordinates (Angstroms)
 Number     Number       Type             X           Y           Z
 ---------------------------------------------------------------------
      1          6           0        0.000000    0.000000    0.623692
      2          6           0        0.000000    0.000000   -0.623692
      3          6           0       -0.000000   -0.000000   -1.979913
      4          1           0       -0.925912    0.000000   -2.541517
      5          1           0        0.925912    0.000000   -2.541517
      6          6           0       -0.000000   -0.000000    1.979913
      7          1           0       -0.000000    0.925912    2.541517
      8          1           0        0.000000   -0.925912    2.541517
 ---------------------------------------------------------------------

 SCF Done:  E(UB3LYP) =  -154.734892279     A.U. after   12 cycles

 The electronic state is 3-A1.
 Alpha  occ. eigenvalues --  -10.20007 -10.20005 -10.19855 -10.19693  -0.81898
 Alpha  occ. eigenvalues --   -0.76039  -0.67902  -0.51448  -0.47957  -0.46200
 Alpha  occ. eigenvalues --   -0.46200  -0.34361  -0.34361  -0.21138  -0.21138
 Alpha virt. eigenvalues --   -0.00527   0.00731   0.02689   0.02689   0.04709
 Alpha virt. eigenvalues --    0.04709   0.04948   0.08464   0.08953   0.08953
 Alpha virt. eigenvalues --    0.10933   0.11255   0.12188   0.12188   0.14039

  Beta  occ. eigenvalues --  -10.19401 -10.19245 -10.19061 -10.19059  -0.79406
  Beta  occ. eigenvalues --   -0.73337  -0.65393  -0.49934  -0.46833  -0.44578
  Beta  occ. eigenvalues --   -0.44578  -0.30825  -0.30825
  Beta virt. eigenvalues --   -0.10182  -0.10182  -0.00357   0.00946   0.02908
  Beta virt. eigenvalues --    0.02908   0.04938   0.05436   0.05436   0.08416
  Beta virt. eigenvalues --    0.11245   0.11323   0.11323   0.11365   0.12771

 Mulliken charges and spin densities:
               1          2
     1  C    0.285029   0.249977
     2  C    0.285029   0.249977
     3  C   -0.642348   0.738847
     4  H    0.178660   0.005588
     5  H    0.178660   0.005588
     6  C   -0.642348   0.738847
     7  H    0.178660   0.005588
     8  H    0.178660   0.005588
 Sum of Mulliken charges =  -0.00000   2.00000

 Dipole moment (field-independent basis, Debye):
    X=              0.0000    Y=             -0.0000    Z=              0.0000  Tot=              0.0000
 Quadrupole moment (field-independent basis, Debye-Ang):
   XX=            -25.2184   YY=            -25.2184   ZZ=            -19.2270
   XY=              0.0000   XZ=             -0.0000   YZ=             -0.0000

  Exact polarizability:  35.163   0.000  35.163   0.000  -0.000 101.619
 Approx polarizability:  47.760  -0.000  47.760  -0.000  -0.000 158.908

                      1                      2                      3
                      E                      E                      E
 Frequencies --    191.3468               191.3468               414.8531
 Red. masses --      2.9637                 2.9637                 5.1644
 Frc consts  --      0.0639                 0.0639                 0.5237
 IR Inten    --      6.0710                 6.0710                 1.1755

                      4                      5                      6
                      E                     B1                      E
 Frequencies --    414.8531               639.9237               685.8882
 Red. masses --      5.1644                 1.0078                 1.3624
 Frc consts  --      0.5237                 0.2432                 0.3776
 IR Inten    --      1.1755                 0.0000                50.7491

                      7                      8                      9
                      E                     A1                      E
 Frequencies --    685.8882               850.1712               995.4455
 Red. masses --      1.3624                 4.1124                 1.3899
 Frc consts  --      0.3776                 1.7513                 0.8114
 IR Inten    --     50.7491                 0.0000                 0.1187

                     10                     11                     12
                      E                     B2                     A1
 Frequencies --    995.4455              1331.4486              1443.6990
 Red. masses --      1.3899                 2.1594                 1.1529
 Frc consts  --      0.8114                 2.2555                 1.4158
 IR Inten    --      0.1187                 0.0919                 0.0000

                     13                     14                     15
                     B2                     A1                     A1
 Frequencies --   1478.6599              1900.0542              3112.2587
 Red. masses --      1.7136                11.5077                 1.0485
 Frc consts  --      2.2074                24.4776                 5.9838
 IR Inten    --      0.4747                 0.0000                 0.0000

                     16                     17                     18
                     B2                      E                      E
 Frequencies --   3116.6943              3194.7079              3194.7079
 Red. masses --      1.0518                 1.1160                 1.1160
 Frc consts  --      6.0199                 6.7109                 6.7109
 IR Inten    --      9.2902                 0.8642                 0.8642

 - Thermochemistry -
 -------------------
 Temperature   298.150 Kelvin.  Pressure   1.00000 Atm.
 Atom     1 has atomic number  6 and mass  12.00000

 Molecular mass:    52.03130 amu.
 Principal axes and moments of inertia in atomic units:
                           1         2         3
     Eigenvalues --    12.34191 468.46869 468.46869
           X           -0.00000   0.80640   0.59136
           Y           -0.00000  -0.59136   0.80640
           Z            1.00000   0.00000   0.00000
 This molecule is a prolate symmetric top.
 Rotational symmetry number  4.
 Rotational temperatures (Kelvin)      7.01786     0.18489     0.18489
 Rotational constants (GHZ):         146.22867     3.85243     3.85243
 Zero-point vibrational energy     148560.6 (Joules/Mol)
                                   35.50683 (Kcal/Mol)
 Warning -- explicit consideration of   4 degrees of freedom as
           vibrations may cause significant error
 Vibrational temperatures:    275.30   275.30   596.88   596.88   920.71
          (Kelvin)            986.84   986.84  1223.21  1432.22  1432.22
                             1915.66  2077.16  2127.46  2733.75  4477.84
                             4484.22  4596.47  4596.47

 Zero-point correction=                           0.056584 (Hartree/Particle)
 Thermal correction to Energy=                    0.061694
 Thermal correction to Enthalpy=                  0.062638
 Thermal correction to Gibbs Free Energy=         0.030607
 Sum of electronic and zero-point Energies=           -154.678309
 Sum of electronic and thermal Energies=              -154.673198
 Sum of electronic and thermal Enthalpies=            -154.672254
 Sum of electronic and thermal Free Energies=         -154.704285

                     E (Thermal)             CV                S
                      KCal/Mol        Cal/Mol-Kelvin    Cal/Mol-Kelvin
 Total                   38.714             16.862             67.415
 Electronic               0.000              0.000              2.183
 Translational            0.889              2.981             37.771
 Rotational               0.889              2.981             19.765
 Vibrational             36.936             10.900              7.696
 Vibration     1          0.634              1.852              2.215
 Vibration     2          0.634              1.852              2.215
 Vibration     3          0.778              1.438              0.910
 Vibration     4          0.778              1.438              0.910

 Optimization completed.
    -- Stationary point found.
 Normal termination of Gaussian 09 at Tue Jul 19 19:59:20 2016.
