 Gaussian 09, Revision E.01,
 Gaussian 09:  EM64L-G09RevE.01 30-Nov-2015

 ---------------------------------------------
 #p b3lyp/6-311++G(3df,2p) freq symmetry=Loose
 ---------------------------------------------

 ---------
 b3lyp opt
 ---------
 Symbolic Z-matrix:
 Charge =  1 Multiplicity = 4

                         Standard orientation:
 ---------------------------------------------------------------------
 Center     Atomic      Atomic             Coordinates (Angstroms)
 Number     Number       Type             X           Y           Z
 ---------------------------------------------------------------------
      1          6           0       -0.248925    1.186575   -0.000029
      2          1           0       -0.341980    1.842464    0.875889
      3          1           0       -1.839308   -2.006165   -0.000234
      4          1           0        2.515663   -1.301349   -0.000393
      5          6           0        0.927033    0.339526    0.000380
      6          6           0       -1.321646    0.176403   -0.000324
      7          6           0        1.747071   -0.558654    0.000130
      8          1           0       -0.341491    1.842637   -0.875843
      9          6           0       -1.102346   -1.206781   -0.000058
 ---------------------------------------------------------------------

 SCF Done:  E(UB3LYP) =  -192.374049597     A.U. after   18 cycles

 The electronic state is 4-A.
 Alpha  occ. eigenvalues --  -10.50673 -10.49186 -10.44401 -10.43176 -10.42564
 Alpha  occ. eigenvalues --   -1.09805  -1.00030  -0.95691  -0.79379  -0.76734
 Alpha  occ. eigenvalues --   -0.71943  -0.69240  -0.67629  -0.61265  -0.55470
 Alpha  occ. eigenvalues --   -0.51475  -0.51444  -0.45097
 Alpha virt. eigenvalues --   -0.28767  -0.19627  -0.19262  -0.15375  -0.12167
 Alpha virt. eigenvalues --   -0.11356  -0.10647  -0.09765  -0.09538  -0.07332
 Alpha virt. eigenvalues --   -0.07063  -0.05644  -0.05584  -0.04214  -0.02771

  Beta  occ. eigenvalues --  -10.48742 -10.46969 -10.44296 -10.42855 -10.42031
  Beta  occ. eigenvalues --   -1.06799  -0.96503  -0.92441  -0.76661  -0.75274
  Beta  occ. eigenvalues --   -0.70773  -0.67731  -0.65456  -0.52322  -0.50826
  Beta virt. eigenvalues --   -0.41485  -0.39445  -0.28938  -0.21013  -0.18721
  Beta virt. eigenvalues --   -0.16763  -0.14659  -0.11745  -0.11064  -0.10363
  Beta virt. eigenvalues --   -0.09375  -0.08483  -0.06682  -0.06493  -0.05162

 Mulliken charges and spin densities:
               1          2
     1  C   -0.329581  -0.057268
     2  H    0.232114   0.023664
     3  H    0.276291   0.027045
     4  H    0.368321  -0.010249
     5  C   -0.181145   0.143410
     6  C    0.126519   1.241931
     7  C    0.380583   0.339533
     8  H    0.232109   0.023652
     9  C   -0.105211   1.268283
 Sum of Mulliken charges =   1.00000   3.00000

 Dipole moment (field-independent basis, Debye):
    X=             -0.6558    Y=             -0.6194    Z=             -0.0009  Tot=              0.9020
 Quadrupole moment (field-independent basis, Debye-Ang):
   XX=            -15.5963   YY=            -16.1488   ZZ=            -26.7818
   XY=             -0.2720   XZ=             -0.0014   YZ=              0.0016

  Exact polarizability:  87.249   1.388  59.813   0.007   0.002  33.120
 Approx polarizability: 150.986  -3.955 100.735   0.012   0.005  48.957

                      1                      2                      3
                      A                      A                      A
 Frequencies --    129.4316               190.4600               315.2953
 Red. masses --      4.3587                 4.0999                 2.3464
 Frc consts  --      0.0430                 0.0876                 0.1374
 IR Inten    --      0.3620                 0.2576                19.0878

                      4                      5                      6
                      A                      A                      A
 Frequencies --    335.8695               596.1226               644.7960
 Red. masses --      5.3755                 4.7715                 1.1571
 Frc consts  --      0.3573                 0.9990                 0.2834
 IR Inten    --     14.2327                13.7726                 6.1962

                      7                      8                      9
                      A                      A                      A
 Frequencies --    701.5280               743.6440               807.2036
 Red. masses --      1.2531                 1.2764                 1.7821
 Frc consts  --      0.3634                 0.4159                 0.6841
 IR Inten    --     44.7366                17.4347                 0.2103

                     10                     11                     12
                      A                      A                      A
 Frequencies --    851.8736               958.6494              1003.6799
 Red. masses --      2.1122                 5.0984                 1.7016
 Frc consts  --      0.9031                 2.7606                 1.0099
 IR Inten    --     49.3531                 0.0766                31.4100

                     13                     14                     15
                      A                      A                      A
 Frequencies --   1141.5718              1261.1503              1353.6185
 Red. masses --      1.0925                 1.4424                 1.3411
 Frc consts  --      0.8389                 1.3516                 1.4477
 IR Inten    --      0.2474                10.5684                70.0599

                     16                     17                     18
                      A                      A                      A
 Frequencies --   1420.9529              2105.5645              2989.5730
 Red. masses --      3.5868                 6.0821                 1.0582
 Frc consts  --      4.2669                15.8869                 5.5722
 IR Inten    --     61.9782               248.3600                70.7225

                     19                     20                     21
                      A                      A                      A
 Frequencies --   3010.5302              3154.2048              3399.6019
 Red. masses --      1.0959                 1.0922                 1.1563
 Frc consts  --      5.8521                 6.4025                 7.8735
 IR Inten    --     35.0764                22.9331               107.6491

 - Thermochemistry -
 -------------------
 Temperature   298.150 Kelvin.  Pressure   1.00000 Atm.
 Atom     1 has atomic number  6 and mass  12.00000

 Molecular mass:    64.03130 amu.
 Principal axes and moments of inertia in atomic units:
                           1         2         3
     Eigenvalues --   192.85985 338.58249 520.39853
           X            0.99979  -0.02051  -0.00013
           Y            0.02051   0.99979  -0.00002
           Z            0.00013   0.00002   1.00000
 This molecule is an asymmetric top.
 Rotational symmetry number  1.
 Rotational temperatures (Kelvin)      0.44910     0.25581     0.16644
 Rotational constants (GHZ):           9.35779     5.33029     3.46800
 Zero-point vibrational energy     162185.6 (Joules/Mol)
                                   38.76330 (Kcal/Mol)
 Warning -- explicit consideration of   5 degrees of freedom as
           vibrations may cause significant error
 Vibrational temperatures:    186.22   274.03   453.64   483.24   857.69
          (Kelvin)            927.72  1009.34  1069.94  1161.38  1225.65
                             1379.28  1444.07  1642.47  1814.51  1947.55
                             2044.43  3029.43  4301.32  4331.48  4538.19
                             4891.26

 Zero-point correction=                           0.061773 (Hartree/Particle)
 Thermal correction to Energy=                    0.067418
 Thermal correction to Enthalpy=                  0.068363
 Thermal correction to Gibbs Free Energy=         0.032245
 Sum of electronic and zero-point Energies=           -192.312276
 Sum of electronic and thermal Energies=              -192.306631
 Sum of electronic and thermal Enthalpies=            -192.305687
 Sum of electronic and thermal Free Energies=         -192.341805

                     E (Thermal)             CV                S
                      KCal/Mol        Cal/Mol-Kelvin    Cal/Mol-Kelvin
 Total                   42.306             19.191             76.016
 Electronic               0.000              0.000              2.755
 Translational            0.889              2.981             38.389
 Rotational               0.889              2.981             25.033
 Vibrational             40.528             13.229              9.839
 Vibration     1          0.612              1.924              2.954
 Vibration     2          0.634              1.853              2.223
 Vibration     3          0.703              1.644              1.334
 Vibration     4          0.717              1.604              1.232
 Vibration     5          0.954              1.040              0.456

 Optimization completed.
    -- Stationary point found.
 Normal termination of Gaussian 09 at Mon Jun 20 06:10:04 2016.
