 Gaussian 09, Revision E.01,
 Gaussian 09:  EM64L-G09RevE.01 30-Nov-2015

 ---------------------------------------------
 #p b3lyp/6-311++G(3df,2p) freq symmetry=Loose
 ---------------------------------------------

 ---------
 b3lyp opt
 ---------
 Symbolic Z-matrix:
 Charge =  1 Multiplicity = 4

                         Standard orientation:
 ---------------------------------------------------------------------
 Center     Atomic      Atomic             Coordinates (Angstroms)
 Number     Number       Type             X           Y           Z
 ---------------------------------------------------------------------
      1          6           0        0.401238    1.550643    0.672305
      2          6           0        0.401238    1.550643   -0.672305
      3          6           0       -0.197641    0.474340   -0.000000
      4          6           0       -0.817558   -0.852443   -0.000000
      5          1           0       -1.431611   -0.976285    0.894513
      6          1           0       -1.431611   -0.976285   -0.894513
      7          6           0        0.401238   -1.729784    0.000000
      8          1           0        0.866066   -2.003909   -0.935220
      9          1           0        0.866066   -2.003909    0.935220
 ---------------------------------------------------------------------

 SCF Done:  E(UB3LYP) =  -192.370895197     A.U. after   14 cycles

 The electronic state is 4-A".
 Alpha  occ. eigenvalues --  -10.53905 -10.53824 -10.52858 -10.42812 -10.40969
 Alpha  occ. eigenvalues --   -1.22797  -1.03666  -0.86649  -0.79803  -0.77858
 Alpha  occ. eigenvalues --   -0.69938  -0.68735  -0.67340  -0.61810  -0.60344
 Alpha  occ. eigenvalues --   -0.59880  -0.52858  -0.43718
 Alpha virt. eigenvalues --   -0.28828  -0.27971  -0.15289  -0.13085  -0.12696
 Alpha virt. eigenvalues --   -0.11523  -0.09962  -0.09486  -0.07926  -0.07319
 Alpha virt. eigenvalues --   -0.07199  -0.06282  -0.05497  -0.03640  -0.02916

  Beta  occ. eigenvalues --  -10.52278 -10.52018 -10.51956 -10.42871 -10.39671
  Beta  occ. eigenvalues --   -1.20235  -1.02199  -0.83456  -0.75242  -0.73814
  Beta  occ. eigenvalues --   -0.67132  -0.66448  -0.64581  -0.60262  -0.58482
  Beta virt. eigenvalues --   -0.43245  -0.37709  -0.30822  -0.24879  -0.23898
  Beta virt. eigenvalues --   -0.14762  -0.12353  -0.12326  -0.10760  -0.08827
  Beta virt. eigenvalues --   -0.08691  -0.07693  -0.06899  -0.06330  -0.04962

 Mulliken charges and spin densities:
               1          2
     1  C    0.126063   1.097387
     2  C    0.126063   1.097387
     3  C    0.321213   0.006582
     4  C    0.023024  -0.190066
     5  H    0.204643   0.038505
     6  H    0.204643   0.038505
     7  C   -0.446661   0.959605
     8  H    0.220506  -0.023952
     9  H    0.220506  -0.023952
 Sum of Mulliken charges =   1.00000   3.00000

 Dipole moment (field-independent basis, Debye):
    X=             -0.3138    Y=              0.3900    Z=              0.0000  Tot=              0.5006
 Quadrupole moment (field-independent basis, Debye-Ang):
   XX=            -23.9154   YY=            -17.4631   ZZ=            -23.5584
   XY=              0.8406   XZ=              0.0000   YZ=             -0.0000

  Exact polarizability:  40.184   2.422  72.366  -0.000  -0.000  42.239
 Approx polarizability:  59.760   5.123 106.011   0.000   0.000  75.244

                      1                      2                      3
                     A"                     A'                     A"
 Frequencies --    135.6788               182.4629               243.6210
 Red. masses --      4.7768                 3.9241                 1.1021
 Frc consts  --      0.0518                 0.0770                 0.0385
 IR Inten    --      0.1121                13.4825                 0.0358

                      4                      5                      6
                     A"                     A'                     A'
 Frequencies --    356.6290               480.0450               675.0009
 Red. masses --      3.0192                 8.6411                 1.3623
 Frc consts  --      0.2262                 1.1732                 0.3657
 IR Inten    --      1.3395                12.1635                35.1345

                      7                      8                      9
                     A'                     A"                     A"
 Frequencies --    757.8650               798.8798              1006.1976
 Red. masses --      4.9569                 1.1262                 2.5502
 Frc consts  --      1.6774                 0.4235                 1.5212
 IR Inten    --     33.1268                 2.4795                23.5847

                     10                     11                     12
                     A'                     A"                     A'
 Frequencies --   1022.4454              1113.7123              1244.0329
 Red. masses --      4.2857                 2.3154                 1.3683
 Frc consts  --      2.6397                 1.6921                 1.2476
 IR Inten    --      2.1936                21.7705                22.6538

                     13                     14                     15
                     A"                     A'                     A'
 Frequencies --   1249.7444              1355.9035              1445.1161
 Red. masses --      1.1989                 5.6672                 1.1006
 Frc consts  --      1.1033                 6.1387                 1.3542
 IR Inten    --     19.1252                73.4514                18.7165

                     16                     17                     18
                     A'                     A'                     A'
 Frequencies --   1454.8802              1645.9637              3030.8792
 Red. masses --      1.1418                10.9543                 1.0547
 Frc consts  --      1.4239                17.4853                 5.7083
 IR Inten    --      3.5834                49.6566                15.8526

                     19                     20                     21
                     A"                     A'                     A"
 Frequencies --   3090.2050              3152.4483              3279.1990
 Red. masses --      1.1081                 1.0480                 1.1243
 Frc consts  --      6.2347                 6.1363                 7.1234
 IR Inten    --      6.7261                 9.6674                 4.6113

 - Thermochemistry -
 -------------------
 Temperature   298.150 Kelvin.  Pressure   1.00000 Atm.
 Atom     1 has atomic number  6 and mass  12.00000

 Molecular mass:    64.03130 amu.
 Principal axes and moments of inertia in atomic units:
                           1         2         3
     Eigenvalues --   115.57041 466.00800 479.99136
           X            0.13427   0.99094   0.00000
           Y            0.99094  -0.13427   0.00000
           Z           -0.00000  -0.00000   1.00000
 This molecule is an asymmetric top.
 Rotational symmetry number  1.
 Rotational temperatures (Kelvin)      0.74945     0.18586     0.18045
 Rotational constants (GHZ):          15.61595     3.87277     3.75995
 Zero-point vibrational energy     165807.9 (Joules/Mol)
                                   39.62903 (Kcal/Mol)
 Warning -- explicit consideration of   5 degrees of freedom as
           vibrations may cause significant error
 Vibrational temperatures:    195.21   262.52   350.52   513.11   690.68
          (Kelvin)            971.17  1090.40  1149.41  1447.69  1471.07
                             1602.38  1789.88  1798.10  1950.84  2079.20
                             2093.25  2368.17  4360.75  4446.11  4535.66
                             4718.03

 Zero-point correction=                           0.063153 (Hartree/Particle)
 Thermal correction to Energy=                    0.068770
 Thermal correction to Enthalpy=                  0.069714
 Thermal correction to Gibbs Free Energy=         0.033677
 Sum of electronic and zero-point Energies=           -192.307742
 Sum of electronic and thermal Energies=              -192.302126
 Sum of electronic and thermal Enthalpies=            -192.301181
 Sum of electronic and thermal Free Energies=         -192.337218

                     E (Thermal)             CV                S
                      KCal/Mol        Cal/Mol-Kelvin    Cal/Mol-Kelvin
 Total                   43.154             18.316             75.846
 Electronic               0.000              0.000              2.755
 Translational            0.889              2.981             38.389
 Rotational               0.889              2.981             24.762
 Vibrational             41.376             12.355              9.941
 Vibration     1          0.614              1.918              2.864
 Vibration     2          0.630              1.864              2.303
 Vibration     3          0.659              1.773              1.776
 Vibration     4          0.732              1.562              1.137
 Vibration     5          0.836              1.294              0.710

 Normal termination of Gaussian 09 at Wed Jul 20 13:04:12 2016.
