 Gaussian 09, Revision E.01,
 Gaussian 09:  EM64L-G09RevE.01 30-Nov-2015

 ---------------------------------------------
 #p b3lyp/6-311++G(3df,2p) freq symmetry=Loose
 ---------------------------------------------

 ---------
 b3lyp opt
 ---------
 Symbolic Z-matrix:
 Charge =  0 Multiplicity = 3

                         Standard orientation:
 ---------------------------------------------------------------------
 Center     Atomic      Atomic             Coordinates (Angstroms)
 Number     Number       Type             X           Y           Z
 ---------------------------------------------------------------------
      1          6           0       -0.582530    0.000321    0.008172
      2          6           0        0.492739    0.878967   -0.192240
      3          1           0        1.929836   -0.000712    1.204001
      4          1           0       -2.508359   -0.931026    0.106321
      5          6           0        0.492309   -0.878651   -0.192509
      6          6           0        1.654542   -0.000219    0.151145
      7          1           0        2.522496   -0.000473   -0.501805
      8          6           0       -1.962949   -0.000116    0.072983
      9          1           0       -2.508637    0.930405    0.106179
 ---------------------------------------------------------------------

 SCF Done:  E(UB3LYP) =  -192.754150397     A.U. after   15 cycles

 The electronic state is 3-A.
 Alpha  occ. eigenvalues --  -10.22571 -10.22560 -10.22361 -10.21980 -10.21153
 Alpha  occ. eigenvalues --   -0.94444  -0.77841  -0.67770  -0.57766  -0.52947
 Alpha  occ. eigenvalues --   -0.48782  -0.46588  -0.43483  -0.38353  -0.36505
 Alpha  occ. eigenvalues --   -0.30579  -0.24160  -0.20544
 Alpha virt. eigenvalues --   -0.04228  -0.00381   0.00354   0.02004   0.02482
 Alpha virt. eigenvalues --    0.03156   0.04493   0.05484   0.06833   0.08591
 Alpha virt. eigenvalues --    0.08969   0.09786   0.11156   0.11381   0.11881

  Beta  occ. eigenvalues --  -10.22578 -10.21907 -10.21474 -10.21469 -10.20099
  Beta  occ. eigenvalues --   -0.92890  -0.76021  -0.66486  -0.55037  -0.52062
  Beta  occ. eigenvalues --   -0.46935  -0.45468  -0.42733  -0.37435  -0.33364
  Beta  occ. eigenvalues --   -0.27019
  Beta virt. eigenvalues --   -0.12209  -0.07914  -0.02304  -0.00080   0.00559
  Beta virt. eigenvalues --    0.02488   0.03246   0.03296   0.04723   0.05691
  Beta virt. eigenvalues --    0.07189   0.09070   0.10394   0.10594   0.11544

 Mulliken charges and spin densities:
               1          2
     1  C    0.868891  -0.237260
     2  C   -0.347763   0.707895
     3  H    0.195027   0.042140
     4  H    0.186865  -0.022377
     5  C   -0.348067   0.707865
     6  C   -0.412405   0.001845
     7  H    0.147314   0.027090
     8  C   -0.476725   0.795170
     9  H    0.186864  -0.022369
 Sum of Mulliken charges =  -0.00000   2.00000

 Dipole moment (field-independent basis, Debye):
    X=             -0.3427    Y=             -0.0011    Z=              0.9965  Tot=              1.0538
 Quadrupole moment (field-independent basis, Debye-Ang):
   XX=            -23.2180   YY=            -34.2149   ZZ=            -31.1151
   XY=             -0.0018   XZ=              0.5340   YZ=             -0.0013

  Exact polarizability:  81.422   0.005  61.830  -0.681   0.002  41.318
 Approx polarizability: 114.968   0.017 124.407  -1.718   0.009  59.298

                      1                      2                      3
                      A                      A                      A
 Frequencies --    260.1040               346.0346               460.6493
 Red. masses --      2.7087                 2.7171                 1.0710
 Frc consts  --      0.1080                 0.1917                 0.1339
 IR Inten    --      9.9546                 6.7534                 1.4560

                      4                      5                      6
                      A                      A                      A
 Frequencies --    555.7596               709.1202               711.4789
 Red. masses --      3.8301                 6.1180                 4.1084
 Frc consts  --      0.6970                 1.8126                 1.2253
 IR Inten    --      4.1025                11.6462                65.5787

                      7                      8                      9
                      A                      A                      A
 Frequencies --    766.1239               906.7188               952.2273
 Red. masses --      1.4468                 2.8392                 2.4431
 Frc consts  --      0.5003                 1.3753                 1.3052
 IR Inten    --     39.5072                10.7516                 8.3929

                     10                     11                     12
                      A                      A                      A
 Frequencies --   1012.4654              1023.9252              1095.8018
 Red. masses --      1.2494                 2.3846                 1.4900
 Frc consts  --      0.7546                 1.4730                 1.0541
 IR Inten    --      4.6350                 6.7649                 5.6516

                     13                     14                     15
                      A                      A                      A
 Frequencies --   1167.6597              1170.9519              1445.8177
 Red. masses --      1.7107                 5.7090                 1.3122
 Frc consts  --      1.3742                 4.6120                 1.6161
 IR Inten    --      0.0026                 1.2345                 2.6127

                     16                     17                     18
                      A                      A                      A
 Frequencies --   1469.3578              1549.3025              3068.0100
 Red. masses --      1.1222                 5.1016                 1.0579
 Frc consts  --      1.4275                 7.2148                 5.8671
 IR Inten    --      1.0943                 1.4143                 4.4278

                     19                     20                     21
                      A                      A                      A
 Frequencies --   3134.3884              3158.8383              3260.7204
 Red. masses --      1.1076                 1.0523                 1.1191
 Frc consts  --      6.4113                 6.1862                 7.0107
 IR Inten    --      5.3053                 1.4133                 0.2921

 - Thermochemistry -
 -------------------
 Temperature   298.150 Kelvin.  Pressure   1.00000 Atm.
 Atom     1 has atomic number  6 and mass  12.00000

 Molecular mass:    64.03130 amu.
 Principal axes and moments of inertia in atomic units:
                           1         2         3
     Eigenvalues --    82.95804 409.88225 471.77623
           X            0.99999  -0.00001   0.00471
           Y            0.00001   1.00000  -0.00005
           Z           -0.00471   0.00005   0.99999
 This molecule is an asymmetric top.
 Rotational symmetry number  1.
 Rotational temperatures (Kelvin)      1.04407     0.21131     0.18359
 Rotational constants (GHZ):          21.75487     4.40307     3.82542
 Zero-point vibrational energy     168825.7 (Joules/Mol)
                                   40.35031 (Kcal/Mol)
 Warning -- explicit consideration of   4 degrees of freedom as
           vibrations may cause significant error
 Vibrational temperatures:    374.23   497.87   662.77   799.61  1020.26
          (Kelvin)           1023.66  1102.28  1304.56  1370.04  1456.71
                             1473.20  1576.61  1680.00  1684.74  2080.21
                             2114.08  2229.10  4414.18  4509.68  4544.86
                             4691.44

 Zero-point correction=                           0.064302 (Hartree/Particle)
 Thermal correction to Energy=                    0.068964
 Thermal correction to Enthalpy=                  0.069909
 Thermal correction to Gibbs Free Energy=         0.036438
 Sum of electronic and zero-point Energies=           -192.689848
 Sum of electronic and thermal Energies=              -192.685186
 Sum of electronic and thermal Enthalpies=            -192.684242
 Sum of electronic and thermal Free Energies=         -192.717712

                     E (Thermal)             CV                S
                      KCal/Mol        Cal/Mol-Kelvin    Cal/Mol-Kelvin
 Total                   43.276             16.694             70.445
 Electronic               0.000              0.000              2.183
 Translational            0.889              2.981             38.389
 Rotational               0.889              2.981             24.287
 Vibrational             41.498             10.732              5.585
 Vibration     1          0.668              1.746              1.661
 Vibration     2          0.724              1.583              1.184
 Vibration     3          0.818              1.337              0.764
 Vibration     4          0.911              1.127              0.532

 Optimization completed.
    -- Stationary point found.
 Normal termination of Gaussian 09 at Mon Jun 20 02:47:46 2016.
