 Gaussian 09, Revision E.01,
 Gaussian 09:  EM64L-G09RevE.01 30-Nov-2015

 ---------------------------------------------
 #p b3lyp/6-311++G(3df,2p) freq symmetry=Loose
 ---------------------------------------------

 ---------
 b3lyp opt
 ---------
 Symbolic Z-matrix:
 Charge =  0 Multiplicity = 1

                         Standard orientation:
 ---------------------------------------------------------------------
 Center     Atomic      Atomic             Coordinates (Angstroms)
 Number     Number       Type             X           Y           Z
 ---------------------------------------------------------------------
      1          6           0       -1.076673    1.517543   -0.000000
      2          1           0       -1.435080    1.942914    0.925711
      3          1           0       -1.435080    1.942914   -0.925711
      4          6           0       -0.248098    0.485668   -0.000000
      5          6           0        0.471975   -0.466702    0.829451
      6          1           0        1.161621   -0.258027    1.640762
      7          6           0        0.471975   -0.466702   -0.829451
      8          1           0        1.161621   -0.258027   -1.640762
      9          6           0        0.471975   -1.631436   -0.000000
 ---------------------------------------------------------------------

 SCF Done:  E(RB3LYP) =  -192.798865869     A.U. after   12 cycles

 The electronic state is 1-A'.
 Alpha  occ. eigenvalues --  -10.24875 -10.24868 -10.22726 -10.20191 -10.18042
 Alpha  occ. eigenvalues --   -0.96558  -0.76787  -0.65105  -0.62990  -0.56051
 Alpha  occ. eigenvalues --   -0.48837  -0.46752  -0.39528  -0.37760  -0.35456
 Alpha  occ. eigenvalues --   -0.29119  -0.23366
 Alpha virt. eigenvalues --   -0.05800  -0.03864  -0.01219   0.00007   0.01694
 Alpha virt. eigenvalues --    0.02527   0.03348   0.04903   0.05815   0.07351
 Alpha virt. eigenvalues --    0.08161   0.08248   0.10390   0.10696   0.11090

 Mulliken charges:
               1
     1  C   -0.503719
     2  H    0.167071
     3  H    0.167071
     4  C    0.277892
     5  C    0.042278
     6  H    0.190770
     7  C    0.042278
     8  H    0.190770
     9  C   -0.574410
 Sum of Mulliken charges =  -0.00000

 Dipole moment (field-independent basis, Debye):
    X=              0.4762    Y=              2.8889    Z=             -0.0000  Tot=              2.9278
 Quadrupole moment (field-independent basis, Debye-Ang):
   XX=            -29.3857   YY=            -38.9117   ZZ=            -25.8598
   XY=              0.5550   XZ=             -0.0000   YZ=              0.0000

  Exact polarizability:  54.414 -20.064  74.843  -0.000   0.000  52.169
 Approx polarizability:  81.559 -32.681 119.709   0.000  -0.000  87.023

                      1                      2                      3
                     A'                     A"                     A'
 Frequencies --    272.4630               345.7321               578.4381
 Red. masses --      5.2729                 2.4829                 3.1858
 Frc consts  --      0.2306                 0.1749                 0.6280
 IR Inten    --     25.9627                 0.1618                20.2385

                      4                      5                      6
                     A"                     A'                     A'
 Frequencies --    663.5566               691.4200               857.4246
 Red. masses --      1.2146                 3.6441                 1.3179
 Frc consts  --      0.3151                 1.0264                 0.5708
 IR Inten    --      0.0873                23.6879                54.6471

                      7                      8                      9
                     A"                     A'                     A"
 Frequencies --    866.7486               886.0559               935.4590
 Red. masses --      2.8375                 1.7369                 2.1881
 Frc consts  --      1.2559                 0.8034                 1.1281
 IR Inten    --      0.1058                 7.0153                 0.0552

                     10                     11                     12
                     A'                     A"                     A"
 Frequencies --   1016.8857              1049.3600              1099.7846
 Red. masses --      2.0005                 1.4431                 1.2556
 Frc consts  --      1.2188                 0.9363                 0.8948
 IR Inten    --      9.6980                 0.0261                 0.7204

                     13                     14                     15
                     A'                     A"                     A'
 Frequencies --   1150.0059              1199.6586              1358.0123
 Red. masses --      1.9465                 2.6639                 3.9265
 Frc consts  --      1.5168                 2.2588                 4.2664
 IR Inten    --     14.0307                 2.4666                31.9019

                     16                     17                     18
                     A'                     A'                     A"
 Frequencies --   1462.4350              1781.8681              3147.4271
 Red. masses --      1.1717                 8.6067                 1.0895
 Frc consts  --      1.4765                16.1005                 6.3589
 IR Inten    --      0.6173               114.5663                 1.8220

                     19                     20                     21
                     A'                     A'                     A"
 Frequencies --   3152.6511              3153.1492              3238.4799
 Red. masses --      1.0643                 1.0882                 1.1173
 Frc consts  --      6.2328                 6.3746                 6.9040
 IR Inten    --      0.0827                 1.2424                 2.5249

 - Thermochemistry -
 -------------------
 Temperature   298.150 Kelvin.  Pressure   1.00000 Atm.
 Atom     1 has atomic number  6 and mass  12.00000

 Molecular mass:    64.03130 amu.
 Principal axes and moments of inertia in atomic units:
                           1         2         3
     Eigenvalues --   101.50940 374.01834 441.53000
           X           -0.51010   0.00000   0.86012
           Y            0.86012   0.00000   0.51010
           Z           -0.00000   1.00000  -0.00000
 This molecule is an asymmetric top.
 Rotational symmetry number  1.
 Rotational temperatures (Kelvin)      0.85326     0.23158     0.19617
 Rotational constants (GHZ):          17.77905     4.82527     4.08747
 Zero-point vibrational energy     172902.3 (Joules/Mol)
                                   41.32465 (Kcal/Mol)
 Warning -- explicit consideration of   3 degrees of freedom as
           vibrations may cause significant error
 Vibrational temperatures:    392.01   497.43   832.24   954.71   994.80
          (Kelvin)           1233.64  1247.06  1274.84  1345.92  1463.07
                             1509.79  1582.34  1654.60  1726.04  1953.87
                             2104.12  2563.71  4528.44  4535.96  4536.67
                             4659.44

 Zero-point correction=                           0.065855 (Hartree/Particle)
 Thermal correction to Energy=                    0.070298
 Thermal correction to Enthalpy=                  0.071242
 Thermal correction to Gibbs Free Energy=         0.039126
 Sum of electronic and zero-point Energies=           -192.733011
 Sum of electronic and thermal Energies=              -192.728568
 Sum of electronic and thermal Enthalpies=            -192.727624
 Sum of electronic and thermal Free Energies=         -192.759740

                     E (Thermal)             CV                S
                      KCal/Mol        Cal/Mol-Kelvin    Cal/Mol-Kelvin
 Total                   44.113             15.820             67.594
 Electronic               0.000              0.000              0.000
 Translational            0.889              2.981             38.389
 Rotational               0.889              2.981             24.331
 Vibrational             42.335              9.858              4.874
 Vibration     1          0.675              1.724              1.581
 Vibration     2          0.724              1.584              1.186
 Vibration     3          0.935              1.078              0.488

 Optimization completed.
    -- Stationary point found.
 Normal termination of Gaussian 09 at Wed Jul 20 00:22:47 2016.
