 Gaussian 09, Revision E.01,
 Gaussian 09:  EM64L-G09RevE.01 30-Nov-2015

 ---------------------------------------------
 #p b3lyp/6-311++G(3df,2p) freq symmetry=Loose
 ---------------------------------------------

 ---------
 b3lyp opt
 ---------
 Symbolic Z-matrix:
 Charge =  3 Multiplicity = 2

                         Standard orientation:
 ---------------------------------------------------------------------
 Center     Atomic      Atomic             Coordinates (Angstroms)
 Number     Number       Type             X           Y           Z
 ---------------------------------------------------------------------
      1          6           0        0.000000    1.464530    0.338667
      2          1           0       -0.899232    2.125580    0.650117
      3          1           0        0.899232    2.125580    0.650117
      4          6           0        0.000000    0.661857   -0.868994
      5          6           0       -0.000000   -0.661857   -0.868994
      6          6           0       -0.000000    0.000000    0.627243
      7          6           0       -0.000000   -1.464530    0.338667
      8          1           0        0.899232   -2.125580    0.650117
      9          1           0       -0.899232   -2.125580    0.650117
 ---------------------------------------------------------------------

 SCF Done:  E(UB3LYP) =  -191.012058563     A.U. after   12 cycles

 The electronic state is 2-B1.
 Alpha  occ. eigenvalues --  -11.11506 -11.08375 -11.08283 -11.00488 -11.00486
 Alpha  occ. eigenvalues --   -1.79042  -1.57553  -1.46705  -1.30836  -1.25726
 Alpha  occ. eigenvalues --   -1.24476  -1.22863  -1.19126  -1.15068  -1.09726
 Alpha  occ. eigenvalues --   -1.05723
 Alpha virt. eigenvalues --   -0.86649  -0.84347  -0.78431  -0.71446  -0.63466
 Alpha virt. eigenvalues --   -0.55843  -0.53305  -0.51100  -0.49590  -0.49485
 Alpha virt. eigenvalues --   -0.49394  -0.44739  -0.41697  -0.41568  -0.40315

  Beta  occ. eigenvalues --  -11.11638 -11.07858 -11.07772 -11.00340 -11.00338
  Beta  occ. eigenvalues --   -1.78019  -1.57063  -1.45127  -1.29850  -1.24125
  Beta  occ. eigenvalues --   -1.22405  -1.21737  -1.18776  -1.11907  -1.08990
  Beta virt. eigenvalues --   -0.96358  -0.85936  -0.83455  -0.74169  -0.71321
  Beta virt. eigenvalues --   -0.63308  -0.55245  -0.52363  -0.50757  -0.48994
  Beta virt. eigenvalues --   -0.48533  -0.48132  -0.44089  -0.41157  -0.40840

 Mulliken charges and spin densities:
               1          2
     1  C   -0.033248   0.068693
     2  H    0.377571   0.081154
     3  H    0.377571   0.081154
     4  C    0.495261   0.295164
     5  C    0.495261   0.295164
     6  C    0.565691  -0.052330
     7  C   -0.033248   0.068693
     8  H    0.377571   0.081154
     9  H    0.377571   0.081154
 Sum of Mulliken charges =   3.00000   1.00000

 Dipole moment (field-independent basis, Debye):
    X=              0.0000    Y=             -0.0000    Z=              1.5728  Tot=              1.5728
 Quadrupole moment (field-independent basis, Debye-Ang):
   XX=            -16.6623   YY=             14.1988   ZZ=            -14.0048
   XY=              0.0000   XZ=              0.0000   YZ=              0.0000

  Exact polarizability:  27.796  -0.000  68.817  -0.000  -0.000  34.322
 Approx polarizability:  43.247   0.000 138.861  -0.000   0.000  77.722

                      1                      2                      3
                     B1                     A2                     A1
 Frequencies --    328.0718               386.5921               419.5778
 Red. masses --      1.8953                 2.3880                 6.1259
 Frc consts  --      0.1202                 0.2103                 0.6354
 IR Inten    --     28.7844                 0.0000                 0.8545

                      4                      5                      6
                     A1                     B2                     A2
 Frequencies --    498.6497               567.2830               698.9343
 Red. masses --      6.0836                 9.4181                 1.1911
 Frc consts  --      0.8913                 1.7857                 0.3428
 IR Inten    --     17.5213                24.6031                 0.0000

                      7                      8                      9
                     B1                     A2                     B2
 Frequencies --    710.6841               776.7727               795.0096
 Red. masses --      1.5727                 1.5343                 1.4077
 Frc consts  --      0.4680                 0.5455                 0.5242
 IR Inten    --     94.0395                 0.0000              1423.4034

                     10                     11                     12
                     B2                     B1                     A1
 Frequencies --    864.8415               915.2335               990.2729
 Red. masses --      9.3349                 1.3090                 1.2305
 Frc consts  --      4.1137                 0.6461                 0.7110
 IR Inten    --     98.0574                 1.7642               102.6981

                     13                     14                     15
                     A1                     B2                     A1
 Frequencies --    998.3375              1005.1879              1094.3623
 Red. masses --      6.0463                 1.2372                 1.0869
 Frc consts  --      3.5506                 0.7365                 0.7669
 IR Inten    --     13.8699                 0.0798                85.8691

                     16                     17                     18
                     B2                     A1                     B1
 Frequencies --   1253.4630              1685.0837              2341.5738
 Red. masses --      3.2184                10.6300                 1.0860
 Frc consts  --      2.9793                17.7839                 3.5083
 IR Inten    --    141.4272                61.1101              1318.5532

                     19                     20                     21
                     B2                     A2                     A1
 Frequencies --   2363.4964              2369.8215              2544.3707
 Red. masses --      1.0456                 1.0915                 1.0718
 Frc consts  --      3.4413                 3.6117                 4.0881
 IR Inten    --   3008.7772                 0.0000               216.0532

 - Thermochemistry -
 -------------------
 Temperature   298.150 Kelvin.  Pressure   1.00000 Atm.
 Atom     1 has atomic number  6 and mass  12.00000

 Molecular mass:    64.03130 amu.
 Principal axes and moments of inertia in atomic units:
                           1         2         3
     Eigenvalues --   108.76448 298.05269 383.53538
           X            0.00000   0.00000   1.00000
           Y            1.00000   0.00000  -0.00000
           Z           -0.00000   1.00000  -0.00000
 This molecule is an asymmetric top.
 Rotational symmetry number  2.
 Rotational temperatures (Kelvin)      0.79634     0.29060     0.22583
 Rotational constants (GHZ):          16.59311     6.05511     4.70554
 Zero-point vibrational energy     141204.9 (Joules/Mol)
                                   33.74879 (Kcal/Mol)
 Warning -- explicit consideration of   5 degrees of freedom as
           vibrations may cause significant error
 Vibrational temperatures:    472.02   556.22   603.68   717.44   816.19
          (Kelvin)           1005.61  1022.51  1117.60  1143.84  1244.31
                             1316.82  1424.78  1436.38  1446.24  1574.54
                             1803.45  2424.46  3369.00  3400.54  3409.64
                             3660.78

 Zero-point correction=                           0.053782 (Hartree/Particle)
 Thermal correction to Energy=                    0.058671
 Thermal correction to Enthalpy=                  0.059615
 Thermal correction to Gibbs Free Energy=         0.027074
 Sum of electronic and zero-point Energies=           -190.958276
 Sum of electronic and thermal Energies=              -190.953388
 Sum of electronic and thermal Enthalpies=            -190.952444
 Sum of electronic and thermal Free Energies=         -190.984985

                     E (Thermal)             CV                S
                      KCal/Mol        Cal/Mol-Kelvin    Cal/Mol-Kelvin
 Total                   36.816             18.526             68.489
 Electronic               0.000              0.000              1.377
 Translational            0.889              2.981             38.389
 Rotational               0.889              2.981             22.657
 Vibrational             35.039             12.564              6.065
 Vibration     1          0.711              1.619              1.270
 Vibration     2          0.755              1.499              1.013
 Vibration     3          0.782              1.428              0.893
 Vibration     4          0.854              1.253              0.662
 Vibration     5          0.923              1.102              0.509

 Optimization completed.
    -- Stationary point found.
 Normal termination of Gaussian 09 at Wed Jul 20 05:49:55 2016.
