 Gaussian 09, Revision E.01,
 Gaussian 09:  EM64L-G09RevE.01 30-Nov-2015

 ---------------------------------------------
 #p b3lyp/6-311++G(3df,2p) freq symmetry=Loose
 ---------------------------------------------

 ---------
 b3lyp opt
 ---------
 Symbolic Z-matrix:
 Charge =  0 Multiplicity = 1

                         Standard orientation:
 ---------------------------------------------------------------------
 Center     Atomic      Atomic             Coordinates (Angstroms)
 Number     Number       Type             X           Y           Z
 ---------------------------------------------------------------------
      1          6           0        2.166294    0.143477   -0.160755
      2          6           0       -1.447080    0.604921    0.000597
      3          1           0       -2.328089    0.696864    0.627893
      4          1           0       -1.249907    1.486444   -0.601965
      5          6           0       -0.344676   -0.281128    0.495847
      6          1           0       -0.530493   -0.808340    1.426869
      7          6           0       -1.245308   -0.694275   -0.665623
      8          6           0        1.025849   -0.055062    0.159623
      9          1           0        3.178015    0.317432   -0.430936
 ---------------------------------------------------------------------

 SCF Done:  E(RB3LYP) =  -192.758200662     A.U. after   14 cycles

 The electronic state is 1-A.
 Alpha  occ. eigenvalues --  -10.25126 -10.22241 -10.20574 -10.19010 -10.17601
 Alpha  occ. eigenvalues --   -0.90790  -0.76702  -0.66304  -0.58690  -0.54639
 Alpha  occ. eigenvalues --   -0.51636  -0.43936  -0.42301  -0.35533  -0.30401
 Alpha  occ. eigenvalues --   -0.28370  -0.24584
 Alpha virt. eigenvalues --   -0.12098  -0.01026   0.00452   0.00893   0.01784
 Alpha virt. eigenvalues --    0.02015   0.03361   0.03992   0.06299   0.06879
 Alpha virt. eigenvalues --    0.07988   0.09175   0.09362   0.10411   0.10620

 Mulliken charges:
               1
     1  C    0.428058
     2  C   -0.423969
     3  H    0.175932
     4  H    0.188263
     5  C   -0.094608
     6  H    0.212877
     7  C   -0.263953
     8  C   -0.540392
     9  H    0.317793
 Sum of Mulliken charges =  -0.00000

 Dipole moment (field-independent basis, Debye):
    X=             -0.3286    Y=              1.5556    Z=              1.5274  Tot=              2.2047
 Quadrupole moment (field-independent basis, Debye-Ang):
   XX=            -25.2572   YY=            -31.9125   ZZ=            -31.5232
   XY=             -1.7611   XZ=             -4.4362   YZ=             -3.6517

  Exact polarizability:  81.094   1.282  47.781  -0.647   0.618  46.746
 Approx polarizability: 125.063   5.447  70.656  -5.296  -1.082  70.543

                      1                      2                      3
                      A                      A                      A
 Frequencies --    153.0517               196.3498               417.5420
 Red. masses --      4.1869                 2.7619                 2.7189
 Frc consts  --      0.0578                 0.0627                 0.2793
 IR Inten    --      0.7492                 7.6744                 6.8168

                      4                      5                      6
                      A                      A                      A
 Frequencies --    425.7175               631.3075               636.4084
 Red. masses --      2.9029                 1.5115                 1.4771
 Frc consts  --      0.3100                 0.3549                 0.3525
 IR Inten    --     15.6863                26.0334                44.2246

                      7                      8                      9
                      A                      A                      A
 Frequencies --    696.9604               718.9114               771.0858
 Red. masses --      1.2793                 1.5500                 2.9593
 Frc consts  --      0.3661                 0.4720                 1.0367
 IR Inten    --     39.8546                20.3999                47.3709

                     10                     11                     12
                      A                      A                      A
 Frequencies --    886.9854               939.1519              1021.9894
 Red. masses --      5.2266                 1.9322                 1.7014
 Frc consts  --      2.4227                 1.0041                 1.0470
 IR Inten    --      6.7222                22.2900                12.7049

                     13                     14                     15
                      A                      A                      A
 Frequencies --   1087.6337              1206.6624              1335.3188
 Red. masses --      1.6586                 1.6754                 1.8885
 Frc consts  --      1.1560                 1.4373                 1.9840
 IR Inten    --     11.6906                13.6839                 6.1586

                     16                     17                     18
                      A                      A                      A
 Frequencies --   1388.4973              2205.0135              3091.1304
 Red. masses --      1.3342                 6.0587                 1.0550
 Frc consts  --      1.5155                17.3561                 5.9391
 IR Inten    --     30.7216                19.2475                 6.3688

                     19                     20                     21
                      A                      A                      A
 Frequencies --   3108.8466              3162.9046              3463.7380
 Red. masses --      1.0839                 1.1097                 1.1586
 Frc consts  --      6.1720                 6.5407                 8.1900
 IR Inten    --      3.7611                 1.6269                81.8282

 - Thermochemistry -
 -------------------
 Temperature   298.150 Kelvin.  Pressure   1.00000 Atm.
 Atom     1 has atomic number  6 and mass  12.00000

 Molecular mass:    64.03130 amu.
 Principal axes and moments of inertia in atomic units:
                           1         2         3
     Eigenvalues --    95.00334 509.81239 525.78208
           X            0.99956  -0.02602  -0.01455
           Y            0.01789   0.91389  -0.40556
           Z            0.02385   0.40512   0.91395
 This molecule is an asymmetric top.
 Rotational symmetry number  1.
 Rotational temperatures (Kelvin)      0.91169     0.16989     0.16473
 Rotational constants (GHZ):          18.99661     3.54001     3.43249
 Zero-point vibrational energy     164756.9 (Joules/Mol)
                                   39.37785 (Kcal/Mol)
 Warning -- explicit consideration of   4 degrees of freedom as
           vibrations may cause significant error
 Vibrational temperatures:    220.21   282.50   600.75   612.51   908.31
          (Kelvin)            915.65  1002.77  1034.35  1109.42  1276.17
                             1351.23  1470.41  1564.86  1736.12  1921.22
                             1997.74  3172.52  4447.44  4472.93  4550.71
                             4983.54

 Zero-point correction=                           0.062753 (Hartree/Particle)
 Thermal correction to Energy=                    0.068156
 Thermal correction to Enthalpy=                  0.069100
 Thermal correction to Gibbs Free Energy=         0.034972
 Sum of electronic and zero-point Energies=           -192.695448
 Sum of electronic and thermal Energies=              -192.690045
 Sum of electronic and thermal Enthalpies=            -192.689101
 Sum of electronic and thermal Free Energies=         -192.723228

                     E (Thermal)             CV                S
                      KCal/Mol        Cal/Mol-Kelvin    Cal/Mol-Kelvin
 Total                   42.768             18.862             71.827
 Electronic               0.000              0.000              0.000
 Translational            0.889              2.981             38.389
 Rotational               0.889              2.981             24.747
 Vibrational             40.991             12.900              8.691
 Vibration     1          0.619              1.899              2.634
 Vibration     2          0.636              1.845              2.167
 Vibration     3          0.781              1.432              0.900
 Vibration     4          0.788              1.414              0.873

 Normal termination of Gaussian 09 at Wed Jun 22 01:16:39 2016.
