 Gaussian 09, Revision E.01,
 Gaussian 09:  EM64L-G09RevE.01 30-Nov-2015

 ---------------------------------------------
 #p b3lyp/6-311++G(3df,2p) freq symmetry=Loose
 ---------------------------------------------

 ---------
 b3lyp opt
 ---------
 Symbolic Z-matrix:
 Charge =  1 Multiplicity = 2

                         Standard orientation:
 ---------------------------------------------------------------------
 Center     Atomic      Atomic             Coordinates (Angstroms)
 Number     Number       Type             X           Y           Z
 ---------------------------------------------------------------------
      1          1           0       -2.598087   -0.629265   -0.930161
      2          1           0        2.421370    0.752919   -0.000449
      3          6           0        1.755411   -1.128745    0.000245
      4          6           0       -2.092764   -0.369435   -0.000054
      5          1           0       -2.598317   -0.627297    0.930613
      6          6           0        1.475739    0.186200   -0.000172
      7          6           0       -0.955671    0.208980   -0.000106
      8          6           0        0.239294    0.862347    0.000056
      9          1           0        0.242973    1.947565    0.000187
 ---------------------------------------------------------------------

 SCF Done:  E(UB3LYP) =  -192.462953496     A.U. after   19 cycles

 The electronic state is 2-A.
 Alpha  occ. eigenvalues --  -10.50701 -10.47140 -10.46977 -10.44326 -10.41314
 Alpha  occ. eigenvalues --   -1.09394  -1.02506  -0.95478  -0.82474  -0.73167
 Alpha  occ. eigenvalues --   -0.72714  -0.68459  -0.67915  -0.59902  -0.54001
 Alpha  occ. eigenvalues --   -0.51883  -0.49777
 Alpha virt. eigenvalues --   -0.34198  -0.30110  -0.22565  -0.17567  -0.15228
 Alpha virt. eigenvalues --   -0.13435  -0.10937  -0.10417  -0.09393  -0.07588
 Alpha virt. eigenvalues --   -0.07386  -0.07017  -0.05086  -0.04689  -0.03553

  Beta  occ. eigenvalues --  -10.50074 -10.46810 -10.46506 -10.44242 -10.41370
  Beta  occ. eigenvalues --   -1.08156  -1.01383  -0.94249  -0.81659  -0.72892
  Beta  occ. eigenvalues --   -0.72121  -0.67419  -0.67116  -0.56764  -0.53199
  Beta  occ. eigenvalues --   -0.51483
  Beta virt. eigenvalues --   -0.40523  -0.33462  -0.26503  -0.22317  -0.15100
  Beta virt. eigenvalues --   -0.14898  -0.13375  -0.10844  -0.10049  -0.09269
  Beta virt. eigenvalues --   -0.07460  -0.07292  -0.06951  -0.05005  -0.04229

 Mulliken charges and spin densities:
               1          2
     1  H    0.238675   0.031704
     2  H    0.204001  -0.006109
     3  C   -0.216930   0.353257
     4  C   -0.311585  -0.034981
     5  H    0.238578   0.031736
     6  C    0.238042   0.098602
     7  C    0.555146   0.265454
     8  C   -0.171056   0.266619
     9  H    0.225128  -0.006280
 Sum of Mulliken charges =   1.00000   1.00000

 Dipole moment (field-independent basis, Debye):
    X=             -0.6346    Y=              1.6401    Z=             -0.0004  Tot=              1.7586
 Quadrupole moment (field-independent basis, Debye-Ang):
   XX=             -8.0637   YY=            -25.1485   ZZ=            -26.4415
   XY=              5.8838   XZ=             -0.0038   YZ=              0.0036

  Exact polarizability:  94.041  -0.986  49.696  -0.003   0.002  34.973
 Approx polarizability: 140.717  -0.553  83.386  -0.006  -0.000  50.327

                      1                      2                      3
                      A                      A                      A
 Frequencies --    129.2764               145.6484               221.3715
 Red. masses --      6.3295                 1.5428                 1.4984
 Frc consts  --      0.0623                 0.0193                 0.0433
 IR Inten    --      8.3811                 9.3851                 4.8771

                      4                      5                      6
                      A                      A                      A
 Frequencies --    263.7071               365.2490               575.2513
 Red. masses --      5.4135                 1.9545                 5.8352
 Frc consts  --      0.2218                 0.1536                 1.1377
 IR Inten    --      6.0391                 3.0581                10.6717

                      7                      8                      9
                      A                      A                      A
 Frequencies --    655.2615               862.4600               906.4850
 Red. masses --      1.2639                 1.6820                 1.3259
 Frc consts  --      0.3197                 0.7372                 0.6419
 IR Inten    --     13.7482                 5.1327                45.9531

                     10                     11                     12
                      A                      A                      A
 Frequencies --    924.1953               927.6936              1026.4105
 Red. masses --      1.6029                 1.9211                 2.4221
 Frc consts  --      0.8067                 0.9741                 1.5034
 IR Inten    --      3.5301                13.9339                 4.3754

                     13                     14                     15
                      A                      A                      A
 Frequencies --   1156.2517              1333.2343              1424.2346
 Red. masses --      1.5434                 1.1221                 1.9413
 Frc consts  --      1.2157                 1.1752                 2.3201
 IR Inten    --     19.9627                38.1883                 9.4730

                     16                     17                     18
                      A                      A                      A
 Frequencies --   1575.0891              1965.6609              2998.4116
 Red. masses --      7.0420                 9.7127                 1.0799
 Frc consts  --     10.2934                22.1111                 5.7204
 IR Inten    --    224.3986               226.8796                99.5828

                     19                     20                     21
                      A                      A                      A
 Frequencies --   3070.4649              3139.7760              3153.3118
 Red. masses --      1.0611                 1.1106                 1.0894
 Frc consts  --      5.8942                 6.4509                 6.3820
 IR Inten    --    188.5368                63.3246                20.4403

 - Thermochemistry -
 -------------------
 Temperature   298.150 Kelvin.  Pressure   1.00000 Atm.
 Atom     1 has atomic number  1 and mass   1.00783

 Molecular mass:    64.03130 amu.
 Principal axes and moments of inertia in atomic units:
                           1         2         3
     Eigenvalues --   119.39381 531.35573 638.28804
           X            0.99888   0.04739  -0.00001
           Y           -0.04739   0.99888   0.00005
           Z            0.00002  -0.00005   1.00000
 This molecule is an asymmetric top.
 Rotational symmetry number  1.
 Rotational temperatures (Kelvin)      0.72545     0.16301     0.13570
 Rotational constants (GHZ):          15.11587     3.39648     2.82747
 Zero-point vibrational energy     160415.9 (Joules/Mol)
                                   38.34032 (Kcal/Mol)
 Warning -- explicit consideration of   6 degrees of freedom as
           vibrations may cause significant error
 Vibrational temperatures:    186.00   209.56   318.50   379.42   525.51
          (Kelvin)            827.66   942.77  1240.89  1304.23  1329.71
                             1334.74  1476.77  1663.59  1918.22  2049.15
                             2266.20  2828.14  4314.04  4417.71  4517.43
                             4536.91

 Zero-point correction=                           0.061099 (Hartree/Particle)
 Thermal correction to Energy=                    0.067196
 Thermal correction to Enthalpy=                  0.068140
 Thermal correction to Gibbs Free Energy=         0.031585
 Sum of electronic and zero-point Energies=           -192.401854
 Sum of electronic and thermal Energies=              -192.395758
 Sum of electronic and thermal Enthalpies=            -192.394813
 Sum of electronic and thermal Free Energies=         -192.431368

                     E (Thermal)             CV                S
                      KCal/Mol        Cal/Mol-Kelvin    Cal/Mol-Kelvin
 Total                   42.166             19.749             76.936
 Electronic               0.000              0.000              1.377
 Translational            0.889              2.981             38.389
 Rotational               0.889              2.981             25.208
 Vibrational             40.389             13.787             11.961
 Vibration     1          0.612              1.924              2.957
 Vibration     2          0.617              1.907              2.728
 Vibration     3          0.648              1.809              1.948
 Vibration     4          0.670              1.739              1.637
 Vibration     5          0.738              1.544              1.100
 Vibration     6          0.932              1.085              0.494

 Normal termination of Gaussian 09 at Mon Jun 20 05:15:58 2016.
