 Gaussian 09, Revision E.01,
 Gaussian 09:  EM64L-G09RevE.01 30-Nov-2015

 ---------------------------------------------
 #p b3lyp/6-311++G(3df,2p) freq symmetry=Loose
 ---------------------------------------------

 ---------
 b3lyp opt
 ---------
 Symbolic Z-matrix:
 Charge =  1 Multiplicity = 4

                         Standard orientation:
 ---------------------------------------------------------------------
 Center     Atomic      Atomic             Coordinates (Angstroms)
 Number     Number       Type             X           Y           Z
 ---------------------------------------------------------------------
      1          6           0       -0.853203    0.488988    0.090454
      2          6           0        0.505720    0.742969   -0.435354
      3          6           0        1.237355   -0.550285   -0.107253
      4          6           0        0.253245   -0.114843    0.870671
      5          1           0       -1.459993    1.311410    0.469271
      6          1           0        2.289185   -0.480323    0.150768
      7          1           0        0.977612   -1.408446   -0.738751
      8          6           0       -1.600825   -0.757955   -0.299646
      9          1           0        0.939444    1.724112   -0.594523
 ---------------------------------------------------------------------

 SCF Done:  E(UB3LYP) =  -192.310941277     A.U. after   20 cycles

 The electronic state is 4-A.
 Alpha  occ. eigenvalues --  -10.52965 -10.50338 -10.50317 -10.48881 -10.45884
 Alpha  occ. eigenvalues --   -1.22817  -1.00830  -0.90542  -0.84810  -0.78172
 Alpha  occ. eigenvalues --   -0.75099  -0.69457  -0.66381  -0.63836  -0.58712
 Alpha  occ. eigenvalues --   -0.53070  -0.51224  -0.46282
 Alpha virt. eigenvalues --   -0.32836  -0.24633  -0.16160  -0.14145  -0.13570
 Alpha virt. eigenvalues --   -0.12321  -0.09627  -0.09279  -0.07922  -0.07597
 Alpha virt. eigenvalues --   -0.06941  -0.05557  -0.04528  -0.04312  -0.03782

  Beta  occ. eigenvalues --  -10.51110 -10.49552 -10.48808 -10.48153 -10.45788
  Beta  occ. eigenvalues --   -1.20868  -0.98794  -0.87271  -0.81842  -0.75385
  Beta  occ. eigenvalues --   -0.71733  -0.67103  -0.64983  -0.62333  -0.52473
  Beta virt. eigenvalues --   -0.40722  -0.37063  -0.29025  -0.28839  -0.20616
  Beta virt. eigenvalues --   -0.15679  -0.13788  -0.12940  -0.12009  -0.09057
  Beta virt. eigenvalues --   -0.08314  -0.07623  -0.07198  -0.06140  -0.04838

 Mulliken charges and spin densities:
               1          2
     1  C    0.324827  -0.161463
     2  C   -0.003354   0.526581
     3  C   -0.248735  -0.057354
     4  C    0.174595   1.101309
     5  H    0.239106   0.055813
     6  H    0.213397   0.018002
     7  H    0.235169   0.066312
     8  C   -0.185287   1.428383
     9  H    0.250282   0.022417
 Sum of Mulliken charges =   1.00000   3.00000

 Dipole moment (field-independent basis, Debye):
    X=              1.5029    Y=              1.5999    Z=             -0.1955  Tot=              2.2038
 Quadrupole moment (field-independent basis, Debye-Ang):
   XX=            -19.3030   YY=            -21.9524   ZZ=            -26.5630
   XY=             -2.4113   XZ=             -0.9216   YZ=             -0.2138

  Exact polarizability:  71.855   9.115  47.956   1.792   0.965  38.452
 Approx polarizability: 130.772  24.894  78.928  11.886   0.109  71.087

                      1                      2                      3
                      A                      A                      A
 Frequencies --    219.4780               295.0431               503.3037
 Red. masses --      5.3581                 3.7783                 4.1769
 Frc consts  --      0.1521                 0.1938                 0.6234
 IR Inten    --      2.3548                12.1028                29.5901

                      4                      5                      6
                      A                      A                      A
 Frequencies --    664.2008               684.8701               783.3573
 Red. masses --      4.1046                 4.0667                 3.8523
 Frc consts  --      1.0669                 1.1239                 1.3928
 IR Inten    --     13.1806                 4.4797                23.2206

                      7                      8                      9
                      A                      A                      A
 Frequencies --    829.1550               865.7999               959.6523
 Red. masses --      1.2549                 2.6475                 1.2467
 Frc consts  --      0.5083                 1.1693                 0.6764
 IR Inten    --     36.3914                29.9035                 9.2552

                     10                     11                     12
                      A                      A                      A
 Frequencies --    999.9865              1041.7641              1084.9014
 Red. masses --      1.7913                 1.2711                 1.5094
 Frc consts  --      1.0554                 0.8128                 1.0467
 IR Inten    --      6.3747                44.4807                 4.7203

                     13                     14                     15
                      A                      A                      A
 Frequencies --   1142.6929              1149.8836              1218.6024
 Red. masses --      1.4778                 2.0771                 1.9507
 Frc consts  --      1.1369                 1.6181                 1.7068
 IR Inten    --     40.2996                 4.1700                55.2452

                     16                     17                     18
                      A                      A                      A
 Frequencies --   1275.1187              1431.4143              2990.7529
 Red. masses --      2.5823                 1.1511                 1.0648
 Frc consts  --      2.4737                 1.3896                 5.6117
 IR Inten    --     11.1260                23.6232                42.4487

                     19                     20                     21
                      A                      A                      A
 Frequencies --   3093.0357              3159.6221              3173.1367
 Red. masses --      1.0895                 1.0999                 1.0954
 Frc consts  --      6.1410                 6.4698                 6.4984
 IR Inten    --     36.0681                15.3535                62.3835

 - Thermochemistry -
 -------------------
 Temperature   298.150 Kelvin.  Pressure   1.00000 Atm.
 Atom     1 has atomic number  6 and mass  12.00000

 Molecular mass:    64.03130 amu.
 Principal axes and moments of inertia in atomic units:
                           1         2         3
     Eigenvalues --   145.47483 302.92607 350.18065
           X            0.99775  -0.05957  -0.03085
           Y            0.06097   0.99705   0.04668
           Z            0.02797  -0.04845   0.99843
 This molecule is an asymmetric top.
 Rotational symmetry number  1.
 Rotational temperatures (Kelvin)      0.59539     0.28592     0.24734
 Rotational constants (GHZ):          12.40587     5.95770     5.15374
 Zero-point vibrational energy     164879.9 (Joules/Mol)
                                   39.40725 (Kcal/Mol)
 Warning -- explicit consideration of   3 degrees of freedom as
           vibrations may cause significant error
 Vibrational temperatures:    315.78   424.50   724.14   955.64   985.37
          (Kelvin)           1127.08  1192.97  1245.69  1380.72  1438.76
                             1498.86  1560.93  1644.08  1654.42  1753.29
                             1834.61  2059.48  4303.02  4450.18  4545.99
                             4565.43

 Zero-point correction=                           0.062799 (Hartree/Particle)
 Thermal correction to Energy=                    0.067487
 Thermal correction to Enthalpy=                  0.068431
 Thermal correction to Gibbs Free Energy=         0.034587
 Sum of electronic and zero-point Energies=           -192.248142
 Sum of electronic and thermal Energies=              -192.243455
 Sum of electronic and thermal Enthalpies=            -192.242511
 Sum of electronic and thermal Free Energies=         -192.276354

                     E (Thermal)             CV                S
                      KCal/Mol        Cal/Mol-Kelvin    Cal/Mol-Kelvin
 Total                   42.348             16.650             71.230
 Electronic               0.000              0.000              2.755
 Translational            0.889              2.981             38.389
 Rotational               0.889              2.981             24.249
 Vibrational             40.571             10.688              5.837
 Vibration     1          0.647              1.811              1.963
 Vibration     2          0.689              1.683              1.445
 Vibration     3          0.859              1.243              0.650

 Optimization completed.
    -- Stationary point found.
 Normal termination of Gaussian 09 at Mon Jun 20 07:06:30 2016.
