 Gaussian 09, Revision E.01,
 Gaussian 09:  EM64L-G09RevE.01 30-Nov-2015

 ---------------------------------------------
 #p b3lyp/6-311++G(3df,2p) freq symmetry=Loose
 ---------------------------------------------

 ---------
 b3lyp opt
 ---------
 Symbolic Z-matrix:
 Charge =  1 Multiplicity = 4

                         Standard orientation:
 ---------------------------------------------------------------------
 Center     Atomic      Atomic             Coordinates (Angstroms)
 Number     Number       Type             X           Y           Z
 ---------------------------------------------------------------------
      1          6           0        0.298374   -0.161587    0.062598
      2          6           0       -1.039060   -0.557775    0.058177
      3          1           0       -1.263289   -1.590367    0.320937
      4          6           0       -2.154762    0.372352   -0.208826
      5          1           0       -2.913367    0.759201    0.461338
      6          6           0        1.277433    0.826949    0.045382
      7          1           0        1.544210    1.870075    0.112410
      8          6           0        1.651422   -0.455328   -0.070913
      9          1           0        2.432001   -1.186577   -0.213191
 ---------------------------------------------------------------------

 SCF Done:  E(UB3LYP) =  -192.426273399     A.U. after   14 cycles

 The electronic state is 4-A.
 Alpha  occ. eigenvalues --  -10.47077 -10.46974 -10.46805 -10.46377 -10.41822
 Alpha  occ. eigenvalues --   -1.18260  -1.02174  -0.86673  -0.82676  -0.79068
 Alpha  occ. eigenvalues --   -0.73019  -0.67657  -0.64841  -0.62064  -0.58862
 Alpha  occ. eigenvalues --   -0.53684  -0.44242  -0.41490
 Alpha virt. eigenvalues --   -0.26612  -0.21397  -0.14613  -0.13134  -0.12964
 Alpha virt. eigenvalues --   -0.10904  -0.10086  -0.09876  -0.08561  -0.07681
 Alpha virt. eigenvalues --   -0.05856  -0.04668  -0.04189  -0.03730  -0.03130

  Beta  occ. eigenvalues --  -10.46822 -10.46755 -10.46597 -10.45338 -10.38867
  Beta  occ. eigenvalues --   -1.17549  -0.97732  -0.82500  -0.81434  -0.77806
  Beta  occ. eigenvalues --   -0.70821  -0.65323  -0.62145  -0.61215  -0.57655
  Beta virt. eigenvalues --   -0.39178  -0.27150  -0.25524  -0.25034  -0.15821
  Beta virt. eigenvalues --   -0.14270  -0.12974  -0.12654  -0.10563  -0.09601
  Beta virt. eigenvalues --   -0.09235  -0.08155  -0.07031  -0.05146  -0.04081

 Mulliken charges and spin densities:
               1          2
     1  C    0.194210   0.109985
     2  C   -0.218867   0.609774
     3  H    0.228261   0.023062
     4  C   -0.365302   1.935654
     5  H    0.233191   0.022116
     6  C    0.244788   0.162443
     7  H    0.311802  -0.001740
     8  C    0.062701   0.139906
     9  H    0.309217  -0.001200
 Sum of Mulliken charges =   1.00000   3.00000

 Dipole moment (field-independent basis, Debye):
    X=              1.8176    Y=             -0.2780    Z=              0.5998  Tot=              1.9341
 Quadrupole moment (field-independent basis, Debye-Ang):
   XX=            -10.4730   YY=            -19.9228   ZZ=            -27.3195
   XY=              0.2622   XZ=             -2.1365   YZ=              0.5020

  Exact polarizability:  77.154   0.292  45.375   0.012   0.121  30.453
 Approx polarizability: 105.154   1.575  69.153   0.807   0.385  44.437

                      1                      2                      3
                      A                      A                      A
 Frequencies --    166.1204               203.1777               285.5397
 Red. masses --      2.7447                 2.5413                 1.4558
 Frc consts  --      0.0446                 0.0618                 0.0699
 IR Inten    --      3.9415                 3.4294                57.0489

                      4                      5                      6
                      A                      A                      A
 Frequencies --    400.6333               537.8271               685.3934
 Red. masses --      2.4589                 4.4788                 1.2317
 Frc consts  --      0.2325                 0.7633                 0.3409
 IR Inten    --     14.6081                 7.8436                 4.9929

                      7                      8                      9
                      A                      A                      A
 Frequencies --    799.8093               812.2207               911.8483
 Red. masses --      1.3314                 2.5897                 1.3748
 Frc consts  --      0.5018                 1.0066                 0.6735
 IR Inten    --     43.1329                 4.0453                11.1780

                     10                     11                     12
                      A                      A                      A
 Frequencies --    961.4951               983.2777              1016.3134
 Red. masses --      1.4533                 1.4230                 1.6434
 Frc consts  --      0.7916                 0.8106                 1.0001
 IR Inten    --      0.5308                 9.3170                 1.6336

                     13                     14                     15
                      A                      A                      A
 Frequencies --   1103.3942              1170.8879              1328.7368
 Red. masses --      2.4735                 4.6832                 1.6103
 Frc consts  --      1.7743                 3.7829                 1.6751
 IR Inten    --     82.7308                21.6076                33.8951

                     16                     17                     18
                      A                      A                      A
 Frequencies --   1446.0951              1724.5322              3108.7646
 Red. masses --      6.7462                 6.8790                 1.0850
 Frc consts  --      8.3120                12.0537                 6.1782
 IR Inten    --     26.1923                 1.8121                17.6400

                     19                     20                     21
                      A                      A                      A
 Frequencies --   3179.0589              3237.5900              3273.3224
 Red. masses --      1.0893                 1.0934                 1.1410
 Frc consts  --      6.4866                 6.7526                 7.2033
 IR Inten    --     19.8219                76.2596                48.6084

 - Thermochemistry -
 -------------------
 Temperature   298.150 Kelvin.  Pressure   1.00000 Atm.
 Atom     1 has atomic number  6 and mass  12.00000

 Molecular mass:    64.03130 amu.
 Principal axes and moments of inertia in atomic units:
                           1         2         3
     Eigenvalues --    91.10489 505.79349 589.53626
           X            0.99989  -0.00148  -0.01492
           Y            0.00167   0.99992   0.01288
           Z            0.01490  -0.01290   0.99981
 This molecule is an asymmetric top.
 Rotational symmetry number  1.
 Rotational temperatures (Kelvin)      0.95070     0.17124     0.14692
 Rotational constants (GHZ):          19.80949     3.56814     3.06129
 Zero-point vibrational energy     163505.8 (Joules/Mol)
                                   39.07883 (Kcal/Mol)
 Warning -- explicit consideration of   5 degrees of freedom as
           vibrations may cause significant error
 Vibrational temperatures:    239.01   292.33   410.83   576.42   773.81
          (Kelvin)            986.13  1150.75  1168.60  1311.94  1383.38
                             1414.72  1462.25  1587.54  1684.64  1911.75
                             2080.61  2481.21  4472.81  4573.95  4658.16
                             4709.57

 Zero-point correction=                           0.062276 (Hartree/Particle)
 Thermal correction to Energy=                    0.067727
 Thermal correction to Enthalpy=                  0.068671
 Thermal correction to Gibbs Free Energy=         0.033093
 Sum of electronic and zero-point Energies=           -192.363997
 Sum of electronic and thermal Energies=              -192.358547
 Sum of electronic and thermal Enthalpies=            -192.357602
 Sum of electronic and thermal Free Energies=         -192.393180

                     E (Thermal)             CV                S
                      KCal/Mol        Cal/Mol-Kelvin    Cal/Mol-Kelvin
 Total                   42.499             18.578             74.879
 Electronic               0.000              0.000              2.755
 Translational            0.889              2.981             38.389
 Rotational               0.889              2.981             24.811
 Vibrational             40.722             12.616              8.924
 Vibration     1          0.624              1.884              2.479
 Vibration     2          0.639              1.835              2.104
 Vibration     3          0.683              1.701              1.500
 Vibration     4          0.766              1.469              0.960
 Vibration     5          0.893              1.166              0.570

 Normal termination of Gaussian 09 at Mon Jun 20 05:33:08 2016.
