 Gaussian 09, Revision E.01,
 Gaussian 09:  EM64L-G09RevE.01 30-Nov-2015

 ---------------------------------------------
 #p b3lyp/6-311++G(3df,2p) freq symmetry=Loose
 ---------------------------------------------

 ---------
 b3lyp opt
 ---------
 Symbolic Z-matrix:
 Charge =  1 Multiplicity = 2

                         Standard orientation:
 ---------------------------------------------------------------------
 Center     Atomic      Atomic             Coordinates (Angstroms)
 Number     Number       Type             X           Y           Z
 ---------------------------------------------------------------------
      1          6           0        1.272692    0.098803   -0.000044
      2          6           0       -1.109678    0.142227   -0.000072
      3          6           0        0.087875    0.793857   -0.000024
      4          1           0        0.108965    1.881651    0.000143
      5          6           0       -2.240566   -0.446101    0.000049
      6          1           0       -2.743385   -0.707411    0.930797
      7          1           0       -2.743133   -0.707828   -0.930721
      8          6           0        2.340313   -0.496647    0.000021
      9          1           0        3.273739   -1.019244    0.000201
 ---------------------------------------------------------------------

 SCF Done:  E(UB3LYP) =  -192.545713771     A.U. after   17 cycles

 The electronic state is 2-A.
 Alpha  occ. eigenvalues --  -10.46546 -10.46270 -10.44343 -10.43390 -10.40596
 Alpha  occ. eigenvalues --   -1.07396  -1.01098  -0.95872  -0.81526  -0.75346
 Alpha  occ. eigenvalues --   -0.72235  -0.70346  -0.67824  -0.59297  -0.52446
 Alpha  occ. eigenvalues --   -0.51579  -0.49609
 Alpha virt. eigenvalues --   -0.28500  -0.22408  -0.18710  -0.15320  -0.14091
 Alpha virt. eigenvalues --   -0.11984  -0.11004  -0.09833  -0.09791  -0.07868
 Alpha virt. eigenvalues --   -0.06936  -0.06842  -0.05323  -0.04612  -0.03736

  Beta  occ. eigenvalues --  -10.46101 -10.45946 -10.43638 -10.43351 -10.40649
  Beta  occ. eigenvalues --   -1.06147  -0.99892  -0.94530  -0.80698  -0.74683
  Beta  occ. eigenvalues --   -0.71870  -0.69941  -0.66529  -0.55951  -0.51924
  Beta  occ. eigenvalues --   -0.51298
  Beta virt. eigenvalues --   -0.40300  -0.24952  -0.22137  -0.18370  -0.15157
  Beta virt. eigenvalues --   -0.12207  -0.11846  -0.10890  -0.09616  -0.09342
  Beta virt. eigenvalues --   -0.07788  -0.06797  -0.06347  -0.05158  -0.04202

 Mulliken charges and spin densities:
               1          2
     1  C   -0.058694   0.046770
     2  C    0.582707   0.280427
     3  C   -0.853736   0.216396
     4  H    0.216073  -0.007005
     5  C   -0.285004  -0.007879
     6  H    0.239302   0.030946
     7  H    0.239271   0.030954
     8  C    0.545477   0.421955
     9  H    0.374603  -0.012565
 Sum of Mulliken charges =   1.00000   1.00000

 Dipole moment (field-independent basis, Debye):
    X=              0.0698    Y=             -0.4404    Z=              0.0003  Tot=              0.4459
 Quadrupole moment (field-independent basis, Debye-Ang):
   XX=             -0.2023   YY=            -23.0701   ZZ=            -25.7562
   XY=             -1.0184   XZ=              0.0001   YZ=              0.0006

  Exact polarizability: 109.944  -1.832  43.332  -0.001   0.001  32.377
 Approx polarizability: 171.237  -7.992  68.773   0.001  -0.000  46.402

                      1                      2                      3
                      A                      A                      A
 Frequencies --    135.4191               135.9162               335.5299
 Red. masses --      3.8957                 1.1142                 4.9880
 Frc consts  --      0.0421                 0.0121                 0.3309
 IR Inten    --      3.7108                 1.8024                 5.6982

                      4                      5                      6
                      A                      A                      A
 Frequencies --    336.7939               374.7355               591.7542
 Red. masses --      2.1973                 2.3484                 7.4152
 Frc consts  --      0.1468                 0.1943                 1.5299
 IR Inten    --      1.7874                16.5562                13.2920

                      7                      8                      9
                      A                      A                      A
 Frequencies --    687.3658               737.1274               790.7832
 Red. masses --      1.2465                 1.3576                 1.4566
 Frc consts  --      0.3470                 0.4346                 0.5367
 IR Inten    --     43.1932                15.1006                 3.1871

                     10                     11                     12
                      A                      A                      A
 Frequencies --    894.7793               900.4781               981.1286
 Red. masses --      1.9752                 1.3157                 5.0121
 Frc consts  --      0.9318                 0.6286                 2.8426
 IR Inten    --     13.6862                50.0419                12.8916

                     13                     14                     15
                      A                      A                      A
 Frequencies --   1136.2714              1326.8541              1398.9408
 Red. masses --      1.8649                 1.1263                 1.9552
 Frc consts  --      1.4187                 1.1683                 2.2545
 IR Inten    --     13.3723                37.0625                 7.3541

                     16                     17                     18
                      A                      A                      A
 Frequencies --   1961.5355              2113.2854              3073.8032
 Red. masses --      9.3947                 6.6823                 1.0615
 Frc consts  --     21.2973                17.5831                 5.9089
 IR Inten    --    361.4006                79.6914               213.2746

                     19                     20                     21
                      A                      A                      A
 Frequencies --   3123.2847              3143.4121              3387.7075
 Red. masses --      1.0876                 1.1106                 1.1509
 Frc consts  --      6.2511                 6.4657                 7.7819
 IR Inten    --     26.5852                62.9771               141.9038

 - Thermochemistry -
 -------------------
 Temperature   298.150 Kelvin.  Pressure   1.00000 Atm.
 Atom     1 has atomic number  6 and mass  12.00000

 Molecular mass:    64.03130 amu.
 Principal axes and moments of inertia in atomic units:
                           1         2         3
     Eigenvalues --    73.68170 671.13228 732.34251
           X            0.99999   0.00456   0.00000
           Y           -0.00456   0.99999   0.00002
           Z           -0.00000  -0.00002   1.00000
 This molecule is an asymmetric top.
 Rotational symmetry number  1.
 Rotational temperatures (Kelvin)      1.17551     0.12906     0.11827
 Rotational constants (GHZ):          24.49375     2.68910     2.46434
 Zero-point vibrational energy     164886.7 (Joules/Mol)
                                   39.40887 (Kcal/Mol)
 Warning -- explicit consideration of   6 degrees of freedom as
           vibrations may cause significant error
 Vibrational temperatures:    194.84   195.55   482.75   484.57   539.16
          (Kelvin)            851.40   988.96  1060.56  1137.76  1287.39
                             1295.59  1411.62  1634.84  1909.04  2012.76
                             2822.21  3040.54  4422.51  4493.70  4522.66
                             4874.15

 Zero-point correction=                           0.062802 (Hartree/Particle)
 Thermal correction to Energy=                    0.068711
 Thermal correction to Enthalpy=                  0.069655
 Thermal correction to Gibbs Free Energy=         0.033612
 Sum of electronic and zero-point Energies=           -192.482912
 Sum of electronic and thermal Energies=              -192.477003
 Sum of electronic and thermal Enthalpies=            -192.476058
 Sum of electronic and thermal Free Energies=         -192.512102

                     E (Thermal)             CV                S
                      KCal/Mol        Cal/Mol-Kelvin    Cal/Mol-Kelvin
 Total                   43.117             19.775             75.859
 Electronic               0.000              0.000              1.377
 Translational            0.889              2.981             38.389
 Rotational               0.889              2.981             25.097
 Vibrational             41.339             13.814             10.996
 Vibration     1          0.613              1.918              2.868
 Vibration     2          0.614              1.917              2.861
 Vibration     3          0.717              1.605              1.233
 Vibration     4          0.718              1.602              1.227
 Vibration     5          0.746              1.524              1.060
 Vibration     6          0.949              1.049              0.464

 Optimization completed.
    -- Stationary point found.
 Normal termination of Gaussian 09 at Mon Jun 20 04:01:18 2016.
