 Gaussian 09, Revision E.01,
 Gaussian 09:  EM64L-G09RevE.01 30-Nov-2015

 ---------------------------------------------
 #p b3lyp/6-311++G(3df,2p) freq symmetry=Loose
 ---------------------------------------------

 ---------
 b3lyp opt
 ---------
 Symbolic Z-matrix:
 Charge =  0 Multiplicity = 1

                         Standard orientation:
 ---------------------------------------------------------------------
 Center     Atomic      Atomic             Coordinates (Angstroms)
 Number     Number       Type             X           Y           Z
 ---------------------------------------------------------------------
      1          6           0        1.325084    0.955815    0.000000
      2          6           0       -0.289470   -1.955064    0.000000
      3          1           0        0.785001   -2.081962    0.000000
      4          1           0       -0.901493   -2.846909    0.000000
      5          6           0       -0.831356   -0.736872    0.000000
      6          1           0       -1.907230   -0.604968    0.000000
      7          6           0        0.000000    0.440865    0.000000
      8          6           0        0.172319    1.758200    0.000000
      9          1           0       -0.235737    2.756175    0.000000
 ---------------------------------------------------------------------

 SCF Done:  E(RB3LYP) =  -192.830679551     A.U. after   12 cycles

 The electronic state is 1-A'.
 Alpha  occ. eigenvalues --  -10.22563 -10.21722 -10.21091 -10.20805 -10.18341
 Alpha  occ. eigenvalues --   -0.92353  -0.81117  -0.65155  -0.58725  -0.53347
 Alpha  occ. eigenvalues --   -0.49480  -0.43192  -0.41094  -0.39934  -0.32500
 Alpha  occ. eigenvalues --   -0.30434  -0.23051
 Alpha virt. eigenvalues --   -0.07981  -0.02040  -0.00878   0.00313   0.01762
 Alpha virt. eigenvalues --    0.03594   0.03829   0.05333   0.05499   0.07007
 Alpha virt. eigenvalues --    0.08816   0.09142   0.09263   0.10320   0.10415

 Mulliken charges:
               1
     1  C   -0.588646
     2  C   -0.555730
     3  H    0.176079
     4  H    0.183329
     5  C   -0.167932
     6  H    0.166766
     7  C    0.345172
     8  C    0.182049
     9  H    0.258913
 Sum of Mulliken charges =  -0.00000

 Dipole moment (field-independent basis, Debye):
    X=             -3.6125    Y=             -0.8765    Z=              0.0000  Tot=              3.7173
 Quadrupole moment (field-independent basis, Debye-Ang):
   XX=            -35.6183   YY=            -22.7697   ZZ=            -31.1943
   XY=             -2.9448   XZ=              0.0000   YZ=              0.0000

  Exact polarizability:  55.760   4.376  81.190   0.000  -0.000  38.162
 Approx polarizability:  79.994   0.194 124.682  -0.000  -0.000  57.487

                      1                      2                      3
                     A"                     A'                     A"
 Frequencies --     91.8414               211.1537               364.3634
 Red. masses --      2.7367                 3.5236                 2.1198
 Frc consts  --      0.0136                 0.0926                 0.1658
 IR Inten    --     12.0000                 7.2960                 0.0186

                      4                      5                      6
                     A'                     A"                     A'
 Frequencies --    528.2692               710.9946               747.1410
 Red. masses --      3.1411                 1.7301                 3.2212
 Frc consts  --      0.5165                 0.5153                 1.0594
 IR Inten    --      6.6721                 5.1295                 1.6406

                      7                      8                      9
                     A"                     A'                     A"
 Frequencies --    898.0906               942.4127              1021.7947
 Red. masses --      1.4966                 1.3299                 1.0900
 Frc consts  --      0.7112                 0.6959                 0.6705
 IR Inten    --     13.0708                 6.2696                44.8432

                     10                     11                     12
                     A"                     A'                     A'
 Frequencies --   1026.8671              1027.3717              1209.6337
 Red. masses --      1.3976                 1.6865                 4.1414
 Frc consts  --      0.8683                 1.0488                 3.5703
 IR Inten    --      4.2087                10.4680                29.1980

                     13                     14                     15
                     A'                     A'                     A'
 Frequencies --   1303.0477              1335.6427              1438.6441
 Red. masses --      3.9351                 1.5321                 1.2337
 Frc consts  --      3.9366                 1.6103                 1.5044
 IR Inten    --     42.0307                 8.0008                13.9640

                     16                     17                     18
                     A'                     A'                     A'
 Frequencies --   1659.7444              1763.5988              3140.0498
 Red. masses --      3.7586                 8.3106                 1.0591
 Frc consts  --      6.1003                15.2294                 6.1526
 IR Inten    --      0.8775                52.6428                 2.4022

                     19                     20                     21
                     A'                     A'                     A'
 Frequencies --   3151.5707              3227.6163              3232.8340
 Red. masses --      1.0910                 1.1122                 1.1177
 Frc consts  --      6.3847                 6.8262                 6.8822
 IR Inten    --     13.2084                 0.0673                 2.3206

 - Thermochemistry -
 -------------------
 Temperature   298.150 Kelvin.  Pressure   1.00000 Atm.
 Atom     1 has atomic number  6 and mass  12.00000

 Molecular mass:    64.03130 amu.
 Principal axes and moments of inertia in atomic units:
                           1         2         3
     Eigenvalues --    85.49077 482.40146 567.89222
           X            0.32679   0.94510   0.00000
           Y            0.94510  -0.32679   0.00000
           Z            0.00000  -0.00000   1.00000
 This molecule is an asymmetric top.
 Rotational symmetry number  1.
 Rotational temperatures (Kelvin)      1.01314     0.17955     0.15252
 Rotational constants (GHZ):          21.11036     3.74116     3.17796
 Zero-point vibrational energy     173654.0 (Joules/Mol)
                                   41.50430 (Kcal/Mol)
 Warning -- explicit consideration of   4 degrees of freedom as
           vibrations may cause significant error
 Vibrational temperatures:    132.14   303.80   524.24   760.06  1022.96
          (Kelvin)           1074.97  1292.15  1355.92  1470.13  1477.43
                             1478.16  1740.39  1874.79  1921.69  2069.89
                             2388.00  2537.42  4517.83  4534.40  4643.81
                             4651.32

 Zero-point correction=                           0.066141 (Hartree/Particle)
 Thermal correction to Energy=                    0.071269
 Thermal correction to Enthalpy=                  0.072213
 Thermal correction to Gibbs Free Energy=         0.038204
 Sum of electronic and zero-point Energies=           -192.764538
 Sum of electronic and thermal Energies=              -192.759411
 Sum of electronic and thermal Enthalpies=            -192.758467
 Sum of electronic and thermal Free Energies=         -192.792475

                     E (Thermal)             CV                S
                      KCal/Mol        Cal/Mol-Kelvin    Cal/Mol-Kelvin
 Total                   44.722             16.663             71.577
 Electronic               0.000              0.000              0.000
 Translational            0.889              2.981             38.389
 Rotational               0.889              2.981             24.663
 Vibrational             42.944             10.701              8.524
 Vibration     1          0.602              1.955              3.620
 Vibration     2          0.643              1.824              2.034
 Vibration     3          0.738              1.546              1.103
 Vibration     4          0.883              1.187              0.591

 Normal termination of Gaussian 09 at Wed Jun 22 02:23:40 2016.
