 Gaussian 09, Revision E.01,
 Gaussian 09:  EM64L-G09RevE.01 30-Nov-2015

 ---------------------------------------------
 #p b3lyp/6-311++G(3df,2p) freq symmetry=Loose
 ---------------------------------------------

 ---------
 b3lyp opt
 ---------
 Symbolic Z-matrix:
 Charge =  1 Multiplicity = 4

                         Standard orientation:
 ---------------------------------------------------------------------
 Center     Atomic      Atomic             Coordinates (Angstroms)
 Number     Number       Type             X           Y           Z
 ---------------------------------------------------------------------
      1          6           0        0.501305   -0.174332    0.466851
      2          6           0       -1.682593   -0.096403   -0.117865
      3          6           0       -0.590555   -0.910731   -0.261232
      4          1           0        0.555396   -0.395475    1.527493
      5          6           0        1.742116    0.065033   -0.241465
      6          1           0        1.747505    0.290106   -1.298696
      7          1           0        2.682168   -0.031245    0.282419
      8          6           0       -0.708845    0.832184    0.112326
      9          1           0       -0.553631    1.842107   -0.262904
 ---------------------------------------------------------------------

 SCF Done:  E(UB3LYP) =  -192.375105093     A.U. after   15 cycles

 The electronic state is 4-A.
 Alpha  occ. eigenvalues --  -10.52450 -10.50389 -10.50105 -10.47437 -10.42036
 Alpha  occ. eigenvalues --   -1.20553  -1.00762  -0.88906  -0.86335  -0.76357
 Alpha  occ. eigenvalues --   -0.72191  -0.68616  -0.67450  -0.63747  -0.59042
 Alpha  occ. eigenvalues --   -0.55293  -0.51687  -0.45328
 Alpha virt. eigenvalues --   -0.30729  -0.26560  -0.14487  -0.14209  -0.13112
 Alpha virt. eigenvalues --   -0.11452  -0.10659  -0.08575  -0.07907  -0.07890
 Alpha virt. eigenvalues --   -0.06803  -0.06383  -0.04694  -0.03720  -0.03334

  Beta  occ. eigenvalues --  -10.50649 -10.49759 -10.48384 -10.47254 -10.40753
  Beta  occ. eigenvalues --   -1.18122  -0.98095  -0.86080  -0.83053  -0.74437
  Beta  occ. eigenvalues --   -0.68760  -0.66303  -0.64362  -0.61825  -0.56758
  Beta virt. eigenvalues --   -0.39381  -0.35750  -0.32256  -0.26092  -0.22868
  Beta virt. eigenvalues --   -0.13930  -0.13575  -0.12235  -0.10488  -0.09940
  Beta virt. eigenvalues --   -0.07977  -0.07695  -0.06882  -0.06279  -0.05884

 Mulliken charges and spin densities:
               1          2
     1  C    0.404341  -0.131162
     2  C    0.226476   0.915362
     3  C    0.076757   0.982832
     4  H    0.258395  -0.011411
     5  C   -0.631649   0.967395
     6  H    0.242079  -0.024826
     7  H    0.225253  -0.011833
     8  C   -0.061430   0.272097
     9  H    0.259779   0.041547
 Sum of Mulliken charges =   1.00000   3.00000

 Dipole moment (field-independent basis, Debye):
    X=              0.3874    Y=              1.0241    Z=              0.0738  Tot=              1.0975
 Quadrupole moment (field-independent basis, Debye-Ang):
   XX=            -17.7596   YY=            -23.1415   ZZ=            -24.5783
   XY=             -0.7144   XZ=              0.6166   YZ=             -1.2001

  Exact polarizability:  69.680   0.982  44.045  -1.328   0.778  36.062
 Approx polarizability: 110.354   2.834  82.502  -0.511   5.894  53.929

                      1                      2                      3
                      A                      A                      A
 Frequencies --    234.1815               325.0605               357.6165
 Red. masses --      3.9658                 1.1075                 2.8384
 Frc consts  --      0.1281                 0.0689                 0.2139
 IR Inten    --     13.2794                 1.3647                 0.7361

                      4                      5                      6
                      A                      A                      A
 Frequencies --    489.7472               525.7984               640.3535
 Red. masses --      3.2536                 5.9951                 4.9994
 Frc consts  --      0.4598                 0.9765                 1.2078
 IR Inten    --      1.2865                25.4996                 9.4209

                      7                      8                      9
                      A                      A                      A
 Frequencies --    761.1420               829.0133               889.9578
 Red. masses --      1.4277                 1.5759                 1.8826
 Frc consts  --      0.4873                 0.6381                 0.8785
 IR Inten    --     31.2966                43.7631                 5.1116

                     10                     11                     12
                      A                      A                      A
 Frequencies --   1055.3432              1070.6155              1101.1079
 Red. masses --      1.1960                 1.3082                 2.0357
 Frc consts  --      0.7848                 0.8835                 1.4542
 IR Inten    --     14.8448                 6.1774                27.1902

                     13                     14                     15
                      A                      A                      A
 Frequencies --   1144.0712              1228.8688              1332.1823
 Red. masses --      3.2771                 6.1198                 1.3960
 Frc consts  --      2.5272                 5.4450                 1.4597
 IR Inten    --     21.6645                 4.2296                 6.5257

                     16                     17                     18
                      A                      A                      A
 Frequencies --   1464.3826              1496.3780              3131.7317
 Red. masses --      1.2276                 5.5928                 1.0937
 Frc consts  --      1.5510                 7.3784                 6.3201
 IR Inten    --     10.5315                 3.2619                63.7778

                     19                     20                     21
                      A                      A                      A
 Frequencies --   3147.5647              3152.1767              3265.4129
 Red. masses --      1.0510                 1.0894                 1.1223
 Frc consts  --      6.1348                 6.3774                 7.0510
 IR Inten    --     25.4082                15.0523                16.1845

 - Thermochemistry -
 -------------------
 Temperature   298.150 Kelvin.  Pressure   1.00000 Atm.
 Atom     1 has atomic number  6 and mass  12.00000

 Molecular mass:    64.03130 amu.
 Principal axes and moments of inertia in atomic units:
                           1         2         3
     Eigenvalues --   110.88820 367.02314 417.21749
           X            0.99993  -0.01034  -0.00492
           Y            0.00977   0.99455  -0.10385
           Z            0.00597   0.10379   0.99458
 This molecule is an asymmetric top.
 Rotational symmetry number  1.
 Rotational temperatures (Kelvin)      0.78109     0.23599     0.20760
 Rotational constants (GHZ):          16.27532     4.91724     4.32566
 Zero-point vibrational energy     165340.1 (Joules/Mol)
                                   39.51723 (Kcal/Mol)
 Warning -- explicit consideration of   5 degrees of freedom as
           vibrations may cause significant error
 Vibrational temperatures:    336.93   467.69   514.53   704.64   756.51
          (Kelvin)            921.32  1095.11  1192.76  1280.45  1518.40
                             1540.37  1584.25  1646.06  1768.07  1916.71
                             2106.92  2152.95  4505.86  4528.64  4535.27
                             4698.19

 Zero-point correction=                           0.062975 (Hartree/Particle)
 Thermal correction to Energy=                    0.067991
 Thermal correction to Enthalpy=                  0.068936
 Thermal correction to Gibbs Free Energy=         0.034567
 Sum of electronic and zero-point Energies=           -192.312130
 Sum of electronic and thermal Energies=              -192.307114
 Sum of electronic and thermal Enthalpies=            -192.306169
 Sum of electronic and thermal Free Energies=         -192.340538

                     E (Thermal)             CV                S
                      KCal/Mol        Cal/Mol-Kelvin    Cal/Mol-Kelvin
 Total                   42.665             17.814             72.335
 Electronic               0.000              0.000              2.755
 Translational            0.889              2.981             38.389
 Rotational               0.889              2.981             24.344
 Vibrational             40.888             11.852              6.847
 Vibration     1          0.654              1.789              1.847
 Vibration     2          0.709              1.625              1.285
 Vibration     3          0.733              1.560              1.132
 Vibration     4          0.846              1.273              0.684
 Vibration     5          0.881              1.193              0.597

 Optimization completed.
    -- Stationary point found.
 Normal termination of Gaussian 09 at Mon Jun 20 06:47:07 2016.
