 Gaussian 09, Revision E.01,
 Gaussian 09:  EM64L-G09RevE.01 30-Nov-2015

 ---------------------------------------------
 #p b3lyp/6-311++G(3df,2p) freq symmetry=Loose
 ---------------------------------------------

 ---------
 b3lyp opt
 ---------
 Symbolic Z-matrix:
 Charge =  2 Multiplicity = 3

                         Standard orientation:
 ---------------------------------------------------------------------
 Center     Atomic      Atomic             Coordinates (Angstroms)
 Number     Number       Type             X           Y           Z
 ---------------------------------------------------------------------
      1          6           0       -1.194277    0.070397   -0.014459
      2          6           0        1.292692   -0.228674    0.188147
      3          1           0        1.335839   -1.110128    0.893172
      4          6           0        2.461732   -0.320432   -0.292775
      5          6           0        0.088871    0.695890    0.056534
      6          1           0        0.086291    1.392855    0.922668
      7          1           0        0.201706    1.367904   -0.814195
      8          6           0       -2.358096   -0.366770   -0.080343
      9          1           0       -3.369368   -0.753101   -0.144265
 ---------------------------------------------------------------------

 SCF Done:  E(UB3LYP) =  -191.840630474     A.U. after   24 cycles

 The electronic state is 3-A.
 Alpha  occ. eigenvalues --  -10.78909 -10.69940 -10.69632 -10.68333 -10.67634
 Alpha  occ. eigenvalues --   -1.30809  -1.26725  -1.19069  -0.99954  -0.97570
 Alpha  occ. eigenvalues --   -0.94555  -0.91021  -0.88494  -0.85163  -0.78381
 Alpha  occ. eigenvalues --   -0.76095  -0.75280
 Alpha virt. eigenvalues --   -0.57605  -0.45248  -0.44333  -0.42429  -0.32233
 Alpha virt. eigenvalues --   -0.30943  -0.28256  -0.26659  -0.26288  -0.24831
 Alpha virt. eigenvalues --   -0.23897  -0.22320  -0.21242  -0.20898  -0.20139

  Beta  occ. eigenvalues --  -10.76703 -10.69314 -10.68776 -10.68190 -10.67590
  Beta  occ. eigenvalues --   -1.29399  -1.23768  -1.16849  -0.98528  -0.96262
  Beta  occ. eigenvalues --   -0.93963  -0.90108  -0.86119  -0.75628  -0.74228
  Beta virt. eigenvalues --   -0.64763  -0.63867  -0.54183  -0.43208  -0.41210
  Beta virt. eigenvalues --   -0.38921  -0.31711  -0.30828  -0.27256  -0.26374
  Beta virt. eigenvalues --   -0.25767  -0.24559  -0.23569  -0.22135  -0.21005

 Mulliken charges and spin densities:
               1          2
     1  C    0.016478   0.451541
     2  C    0.251438  -0.129486
     3  H    0.266809  -0.002212
     4  C    0.106442   1.120024
     5  C   -0.226906   0.011671
     6  H    0.292099   0.039910
     7  H    0.277187   0.037597
     8  C    0.580990   0.485630
     9  H    0.435463  -0.014676
 Sum of Mulliken charges =   2.00000   2.00000

 Dipole moment (field-independent basis, Debye):
    X=              0.1247    Y=             -0.7457    Z=              0.1698  Tot=              0.7749
 Quadrupole moment (field-independent basis, Debye-Ang):
   XX=             19.8746   YY=            -18.7754   ZZ=            -21.7337
   XY=              1.0969   XZ=             -0.1578   YZ=             -1.4182

  Exact polarizability:  85.383   3.437  38.357  -2.106   3.016  34.777
 Approx polarizability: 138.647   9.759  53.427  -9.921  -0.132  49.566

                      1                      2                      3
                      A                      A                      A
 Frequencies --     61.7396               182.8618               239.4212
 Red. masses --      3.2300                 3.7695                 3.9246
 Frc consts  --      0.0073                 0.0743                 0.1325
 IR Inten    --      0.2436                 9.9570                 2.6783

                      4                      5                      6
                      A                      A                      A
 Frequencies --    313.5102               381.5185               492.4450
 Red. masses --      2.1870                 1.6974                 6.2446
 Frc consts  --      0.1266                 0.1456                 0.8922
 IR Inten    --     18.7335                 6.2727                 5.3192

                      7                      8                      9
                      A                      A                      A
 Frequencies --    690.8674               726.4777               757.5682
 Red. masses --      1.4272                 1.2597                 1.6374
 Frc consts  --      0.4013                 0.3917                 0.5537
 IR Inten    --      3.6752                41.2889                22.8956

                     10                     11                     12
                      A                      A                      A
 Frequencies --    786.6686               936.1350               963.4003
 Red. masses --      3.2344                 1.5646                 2.7729
 Frc consts  --      1.1793                 0.8078                 1.5164
 IR Inten    --     51.0761                13.4477                 7.2271

                     13                     14                     15
                      A                      A                      A
 Frequencies --   1149.6897              1291.3327              1306.0083
 Red. masses --      1.1033                 1.0502                 1.4021
 Frc consts  --      0.8592                 1.0318                 1.4090
 IR Inten    --      7.4144               111.2334                 9.0615

                     16                     17                     18
                      A                      A                      A
 Frequencies --   1761.0471              2041.5401              2773.5884
 Red. masses --     10.6448                 6.0923                 1.0738
 Frc consts  --     19.4504                14.9605                 4.8670
 IR Inten    --     32.4736               101.0910               190.5148

                     19                     20                     21
                      A                      A                      A
 Frequencies --   2864.1250              2924.4909              3248.9925
 Red. masses --      1.0729                 1.0736                 1.1607
 Frc consts  --      5.1857                 5.4100                 7.2188
 IR Inten    --    193.3642               154.0425               317.6956

 - Thermochemistry -
 -------------------
 Temperature   298.150 Kelvin.  Pressure   1.00000 Atm.
 Atom     1 has atomic number  6 and mass  12.00000

 Molecular mass:    64.03130 amu.
 Principal axes and moments of inertia in atomic units:
                           1         2         3
     Eigenvalues --    67.39895 692.19601 732.05095
           X            0.99993   0.00862   0.00790
           Y           -0.00812   0.99809  -0.06124
           Z           -0.00841   0.06117   0.99809
 This molecule is an asymmetric top.
 Rotational symmetry number  1.
 Rotational temperatures (Kelvin)      1.28509     0.12513     0.11832
 Rotational constants (GHZ):          26.77699     2.60727     2.46532
 Zero-point vibrational energy     154877.1 (Joules/Mol)
                                   37.01651 (Kcal/Mol)
 Warning -- explicit consideration of   6 degrees of freedom as
           vibrations may cause significant error
 Vibrational temperatures:     88.83   263.10   344.47   451.07   548.92
          (Kelvin)            708.52   994.00  1045.24  1089.97  1131.84
                             1346.89  1386.12  1654.14  1857.94  1879.05
                             2533.75  2937.32  3990.57  4120.83  4207.68
                             4674.57

 Zero-point correction=                           0.058990 (Hartree/Particle)
 Thermal correction to Energy=                    0.065211
 Thermal correction to Enthalpy=                  0.066155
 Thermal correction to Gibbs Free Energy=         0.028824
 Sum of electronic and zero-point Energies=           -191.781641
 Sum of electronic and thermal Energies=              -191.775420
 Sum of electronic and thermal Enthalpies=            -191.774476
 Sum of electronic and thermal Free Energies=         -191.811806

                     E (Thermal)             CV                S
                      KCal/Mol        Cal/Mol-Kelvin    Cal/Mol-Kelvin
 Total                   40.920             20.474             78.568
 Electronic               0.000              0.000              2.183
 Translational            0.889              2.981             38.389
 Rotational               0.889              2.981             25.038
 Vibrational             39.143             14.512             12.958
 Vibration     1          0.597              1.973              4.401
 Vibration     2          0.630              1.863              2.299
 Vibration     3          0.657              1.780              1.807
 Vibration     4          0.701              1.648              1.344
 Vibration     5          0.751              1.510              1.033
 Vibration     6          0.848              1.267              0.677

 Normal termination of Gaussian 09 at Mon Jun 20 09:17:13 2016.
