 Gaussian 09, Revision E.01,
 Gaussian 09:  EM64L-G09RevE.01 30-Nov-2015

 ---------------------------------------------
 #p b3lyp/6-311++G(3df,2p) freq symmetry=Loose
 ---------------------------------------------

 ---------
 b3lyp opt
 ---------
 Symbolic Z-matrix:
 Charge =  2 Multiplicity = 3

                         Standard orientation:
 ---------------------------------------------------------------------
 Center     Atomic      Atomic             Coordinates (Angstroms)
 Number     Number       Type             X           Y           Z
 ---------------------------------------------------------------------
      1          6           0        0.924957   -0.430140   -0.053927
      2          1           0        0.724705   -1.498235   -0.125225
      3          6           0        2.276982    0.016570    0.017264
      4          1           0        2.565118    1.044420   -0.212229
      5          1           0        3.065855   -0.679050    0.313217
      6          6           0       -1.459558    0.073492    0.017279
      7          6           0       -2.665346   -0.228525    0.006613
      8          6           0       -0.143087    0.495565    0.007930
      9          1           0        0.040637    1.571095    0.053279
 ---------------------------------------------------------------------

 SCF Done:  E(UB3LYP) =  -191.881237014     A.U. after   22 cycles

 The electronic state is 3-A.
 Alpha  occ. eigenvalues --  -10.76146 -10.71503 -10.70751 -10.69418 -10.69396
 Alpha  occ. eigenvalues --   -1.31041  -1.26129  -1.17863  -1.05408  -0.98900
 Alpha  occ. eigenvalues --   -0.92794  -0.88859  -0.85435  -0.84995  -0.83033
 Alpha  occ. eigenvalues --   -0.76908  -0.76418
 Alpha virt. eigenvalues --   -0.60705  -0.48290  -0.43766  -0.36769  -0.31560
 Alpha virt. eigenvalues --   -0.30078  -0.29243  -0.25921  -0.24978  -0.24055
 Alpha virt. eigenvalues --   -0.23360  -0.21089  -0.21019  -0.19865  -0.19847

  Beta  occ. eigenvalues --  -10.73161 -10.71151 -10.71040 -10.68928 -10.68884
  Beta  occ. eigenvalues --   -1.30106  -1.22827  -1.15917  -1.04460  -0.98434
  Beta  occ. eigenvalues --   -0.92543  -0.88060  -0.84709  -0.80014  -0.74029
  Beta virt. eigenvalues --   -0.66416  -0.61614  -0.57184  -0.44114  -0.40600
  Beta virt. eigenvalues --   -0.32768  -0.31329  -0.29918  -0.29002  -0.25827
  Beta virt. eigenvalues --   -0.24780  -0.23539  -0.22988  -0.20893  -0.20798

 Mulliken charges and spin densities:
               1          2
     1  C    0.158941   0.388297
     2  H    0.262231  -0.001499
     3  C   -0.108336   0.214673
     4  H    0.267833  -0.001637
     5  H    0.285261   0.000366
     6  C    0.638255   0.144183
     7  C    0.349725   1.475416
     8  C   -0.099012  -0.219830
     9  H    0.245103   0.000032
 Sum of Mulliken charges =   2.00000   2.00000

 Dipole moment (field-independent basis, Debye):
    X=              1.7018    Y=              0.0109    Z=              0.0525  Tot=              1.7026
 Quadrupole moment (field-independent basis, Debye-Ang):
   XX=             21.0745   YY=            -18.5132   ZZ=            -24.2941
   XY=              1.1448   XZ=              0.1735   YZ=              0.0427

  Exact polarizability: 116.030  -0.708  37.629   0.165  -0.382  25.876
 Approx polarizability: 200.438   3.065  52.126   0.244  -0.040  37.812

                      1                      2                      3
                      A                      A                      A
 Frequencies --    124.5771               146.2202               235.1882
 Red. masses --      3.6410                 5.8485                 1.2022
 Frc consts  --      0.0333                 0.0737                 0.0392
 IR Inten    --      6.4525                 2.5513                36.7170

                      4                      5                      6
                      A                      A                      A
 Frequencies --    349.2878               396.6308               497.4350
 Red. masses --      3.4187                 3.6143                 5.7065
 Frc consts  --      0.2457                 0.3350                 0.8319
 IR Inten    --      2.8718                 5.0704                 3.3789

                      7                      8                      9
                      A                      A                      A
 Frequencies --    867.5944               879.6203               943.7426
 Red. masses --      1.3347                 1.4470                 1.7402
 Frc consts  --      0.5919                 0.6597                 0.9132
 IR Inten    --     59.6506                13.7102                 3.2679

                     10                     11                     12
                      A                      A                      A
 Frequencies --   1045.9793              1133.8548              1182.6737
 Red. masses --      3.3611                 1.7006                 2.2888
 Frc consts  --      2.1666                 1.2882                 1.8862
 IR Inten    --     76.7997                17.9027               237.1765

                     13                     14                     15
                      A                      A                      A
 Frequencies --   1214.5718              1327.2430              1438.7858
 Red. masses --      2.0656                 1.2771                 1.4460
 Frc consts  --      1.7953                 1.3255                 1.7636
 IR Inten    --     52.2789                42.7232                24.4537

                     16                     17                     18
                      A                      A                      A
 Frequencies --   1485.5809              2072.7847              3061.4777
 Red. masses --      1.3316                11.8698                 1.0552
 Frc consts  --      1.7314                30.0471                 5.8270
 IR Inten    --     17.1874               178.9383               127.8240

                     19                     20                     21
                      A                      A                      A
 Frequencies --   3101.1322              3130.9339              3173.1828
 Red. masses --      1.0915                 1.0936                 1.1226
 Frc consts  --      6.1847                 6.3164                 6.6599
 IR Inten    --     58.6792                47.1287                84.3128

 - Thermochemistry -
 -------------------
 Temperature   298.150 Kelvin.  Pressure   1.00000 Atm.
 Atom     1 has atomic number  6 and mass  12.00000

 Molecular mass:    64.03130 amu.
 Principal axes and moments of inertia in atomic units:
                           1         2         3
     Eigenvalues --    44.20280 713.32615 756.07539
           X            1.00000  -0.00200   0.00167
           Y            0.00202   0.99991  -0.01355
           Z           -0.00164   0.01355   0.99991
 This molecule is an asymmetric top.
 Rotational symmetry number  1.
 Rotational temperatures (Kelvin)      1.95946     0.12142     0.11456
 Rotational constants (GHZ):          40.82866     2.53004     2.38699
 Zero-point vibrational energy     166331.7 (Joules/Mol)
                                   39.75424 (Kcal/Mol)
 Warning -- explicit consideration of   6 degrees of freedom as
           vibrations may cause significant error
 Vibrational temperatures:    179.24   210.38   338.38   502.55   570.66
          (Kelvin)            715.70  1248.27  1265.58  1357.83  1504.93
                             1631.36  1701.60  1747.50  1909.60  2070.09
                             2137.42  2982.27  4404.78  4461.83  4504.71
                             4565.50

 Zero-point correction=                           0.063352 (Hartree/Particle)
 Thermal correction to Energy=                    0.069205
 Thermal correction to Enthalpy=                  0.070150
 Thermal correction to Gibbs Free Energy=         0.033875
 Sum of electronic and zero-point Energies=           -191.817885
 Sum of electronic and thermal Energies=              -191.812032
 Sum of electronic and thermal Enthalpies=            -191.811087
 Sum of electronic and thermal Free Energies=         -191.847362

                     E (Thermal)             CV                S
                      KCal/Mol        Cal/Mol-Kelvin    Cal/Mol-Kelvin
 Total                   43.427             18.721             76.347
 Electronic               0.000              0.000              2.183
 Translational            0.889              2.981             38.389
 Rotational               0.889              2.981             24.681
 Vibrational             41.650             12.759             11.093
 Vibration     1          0.610              1.928              3.028
 Vibration     2          0.617              1.907              2.721
 Vibration     3          0.655              1.787              1.839
 Vibration     4          0.727              1.577              1.169
 Vibration     5          0.763              1.477              0.975
 Vibration     6          0.853              1.256              0.665

 Normal termination of Gaussian 09 at Mon Jun 20 09:36:01 2016.
