 Gaussian 09, Revision E.01,
 Gaussian 09:  EM64L-G09RevE.01 30-Nov-2015

 ------------------------------------------------------
 #p b3lyp/6-311++G(3df,2p) freq IOp(2/17=3) IOp(2/18=3)
 ------------------------------------------------------

 ---------
 b3lyp opt
 ---------
 Symbolic Z-matrix:
 Charge =  3 Multiplicity = 4

                         Standard orientation:
 ---------------------------------------------------------------------
 Center     Atomic      Atomic             Coordinates (Angstroms)
 Number     Number       Type             X           Y           Z
 ---------------------------------------------------------------------
      1          1           0       -0.000000   -0.889016    1.416353
      2          6           0       -0.000000    0.000000    0.678501
      3          1           0        0.000000    0.889016    1.416353
      4          6           0       -1.269177    0.000000    0.009808
      5          6           0       -2.469916    0.000000   -0.444694
      6          1           0       -3.508362    0.000000   -0.842507
      7          6           0        1.269177   -0.000000    0.009808
      8          6           0        2.469916   -0.000000   -0.444694
      9          1           0        3.508362   -0.000000   -0.842507
 ---------------------------------------------------------------------

 SCF Done:  E(UB3LYP) =  -191.104717414     A.U. after   14 cycles

 The electronic state is 4-A2.
 Alpha  occ. eigenvalues --  -10.98068 -10.98067 -10.97839 -10.97839 -10.92903
 Alpha  occ. eigenvalues --   -1.55189  -1.51128  -1.44653  -1.27721  -1.19889
 Alpha  occ. eigenvalues --   -1.17771  -1.16581  -1.14037  -1.03142  -1.02094
 Alpha  occ. eigenvalues --   -1.01688  -0.97861
 Alpha virt. eigenvalues --   -0.71050  -0.70250  -0.68497  -0.67751  -0.55739
 Alpha virt. eigenvalues --   -0.49727  -0.49110  -0.46221  -0.45545  -0.43903
 Alpha virt. eigenvalues --   -0.42285  -0.39909  -0.38735  -0.37966  -0.36198

  Beta  occ. eigenvalues --  -10.96989 -10.96988 -10.96556 -10.96555 -10.92830
  Beta  occ. eigenvalues --   -1.52038  -1.45453  -1.40731  -1.25714  -1.17847
  Beta  occ. eigenvalues --   -1.16510  -1.14052  -1.11319  -0.95846
  Beta virt. eigenvalues --   -0.88450  -0.87932  -0.87674  -0.64638  -0.64240
  Beta virt. eigenvalues --   -0.63854  -0.63211  -0.53559  -0.48148  -0.46697
  Beta virt. eigenvalues --   -0.44966  -0.44491  -0.43247  -0.41638  -0.39378

 Mulliken charges and spin densities:
               1          2
     1  H    0.369595   0.115866
     2  C   -0.416058   0.141003
     3  H    0.369595   0.115866
     4  C    0.256915   0.675838
     5  C    0.589394   0.658798
     6  H    0.492125  -0.021004
     7  C    0.256915   0.675838
     8  C    0.589394   0.658798
     9  H    0.492125  -0.021004
 Sum of Mulliken charges =   3.00000   3.00000

 Dipole moment (field-independent basis, Debye):
    X=             -0.0000    Y=             -0.0000    Z=             -0.6076  Tot=              0.6076
 Quadrupole moment (field-independent basis, Debye-Ang):
   XX=             53.6122   YY=            -21.4989   ZZ=            -12.5688
   XY=             -0.0000   XZ=              0.0000   YZ=             -0.0000

  Exact polarizability: 145.956   0.000  26.416  -0.000   0.000  33.446
 Approx polarizability: 337.631  -0.000  37.571  -0.000   0.000  53.126

                      1                      2                      3
                     A1                     B2                     A2
 Frequencies --    156.7696               266.4857               324.0023
 Red. masses --      3.5910                 2.0964                 4.3300
 Frc consts  --      0.0520                 0.0877                 0.2678
 IR Inten    --     10.8288                60.3053                 0.0000

                      4                      5                      6
                     B1                     A1                     B2
 Frequencies --    338.1278               524.9356               691.4032
 Red. masses --      3.6800                 5.3605                 1.5515
 Frc consts  --      0.2479                 0.8703                 0.4370
 IR Inten    --     11.2100                17.3249                 2.9880

                      7                      8                      9
                     A2                     B2                     A1
 Frequencies --    702.3425               712.5435               740.6311
 Red. masses --      1.2565                 1.7268                 1.4686
 Frc consts  --      0.3652                 0.5165                 0.4746
 IR Inten    --      0.0000                71.6204                15.1901

                     10                     11                     12
                     B1                     A1                     B1
 Frequencies --    744.3425               806.0231               950.2886
 Red. masses --      1.3418                 5.0868                 1.6890
 Frc consts  --      0.4380                 1.9471                 0.8986
 IR Inten    --      0.2194                17.0199                76.9796

                     13                     14                     15
                     A2                     A1                     B1
 Frequencies --   1026.4474              1100.6010              1210.2912
 Red. masses --      1.0781                 1.0756                 2.4663
 Frc consts  --      0.6693                 0.7677                 2.1285
 IR Inten    --      0.0000               139.0186               654.2769

                     16                     17                     18
                     B1                     A1                     B2
 Frequencies --   1672.0014              1893.8638              2413.2324
 Red. masses --      5.7592                 5.9400                 1.0763
 Frc consts  --      9.4861                12.5527                 3.6932
 IR Inten    --   2919.9350                 9.5586               394.7301

                     19                     20                     21
                     A1                     B1                     A1
 Frequencies --   2477.9102              2977.2668              2985.5521
 Red. masses --      1.0557                 1.1640                 1.1665
 Frc consts  --      3.8190                 6.0789                 6.1263
 IR Inten    --    574.1528               982.0008               114.9451

 - Thermochemistry -
 -------------------
 Temperature   298.150 Kelvin.  Pressure   1.00000 Atm.
 Atom     1 has atomic number  1 and mass   1.00783

 Molecular mass:    64.03130 amu.
 Principal axes and moments of inertia in atomic units:
                           1         2         3
     Eigenvalues --    61.85019 755.18763 805.65993
           X            1.00000  -0.00000   0.00000
           Y           -0.00000   0.00000   1.00000
           Z            0.00000   1.00000  -0.00000
 This molecule is an asymmetric top.
 Rotational symmetry number  2.
 Rotational temperatures (Kelvin)      1.40038     0.11469     0.10751
 Rotational constants (GHZ):          29.17923     2.38979     2.24008
 Zero-point vibrational energy     147828.9 (Joules/Mol)
                                   35.33195 (Kcal/Mol)
 Warning -- explicit consideration of   5 degrees of freedom as
           vibrations may cause significant error
 Vibrational temperatures:    225.56   383.41   466.17   486.49   755.26
          (Kelvin)            994.77  1010.51  1025.19  1065.60  1070.94
                             1159.69  1367.25  1476.83  1583.52  1741.34
                             2405.63  2724.84  3472.10  3565.16  4283.62
                             4295.54

 Zero-point correction=                           0.056305 (Hartree/Particle)
 Thermal correction to Energy=                    0.061933
 Thermal correction to Enthalpy=                  0.062877
 Thermal correction to Gibbs Free Energy=         0.027642
 Sum of electronic and zero-point Energies=           -191.048412
 Sum of electronic and thermal Energies=              -191.042784
 Sum of electronic and thermal Enthalpies=            -191.041840
 Sum of electronic and thermal Free Energies=         -191.077076

                     E (Thermal)             CV                S
                      KCal/Mol        Cal/Mol-Kelvin    Cal/Mol-Kelvin
 Total                   38.864             19.955             74.159
 Electronic               0.000              0.000              2.755
 Translational            0.889              2.981             38.389
 Rotational               0.889              2.981             23.757
 Vibrational             37.086             13.993              9.258
 Vibration     1          0.620              1.895              2.588
 Vibration     2          0.672              1.735              1.619
 Vibration     3          0.709              1.627              1.290
 Vibration     4          0.718              1.599              1.221
 Vibration     5          0.880              1.195              0.599

 Optimization completed.
    -- Stationary point found.
 Normal termination of Gaussian 09 at Thu Jan 31 08:35:46 2019.
