 Gaussian 09, Revision E.01,
 Gaussian 09:  EM64L-G09RevE.01 30-Nov-2015

 ---------------------------------------------
 #p b3lyp/6-311++G(3df,2p) freq symmetry=Loose
 ---------------------------------------------

 ---------
 b3lyp opt
 ---------
 Symbolic Z-matrix:
 Charge =  1 Multiplicity = 2

                         Standard orientation:
 ---------------------------------------------------------------------
 Center     Atomic      Atomic             Coordinates (Angstroms)
 Number     Number       Type             X           Y           Z
 ---------------------------------------------------------------------
      1          6           0        1.215844    0.225069    0.000000
      2          6           0        2.337947   -0.239277    0.000000
      3          6           0       -1.435673   -1.077990    0.000000
      4          1           0       -0.592037   -1.757842    0.000000
      5          1           0       -2.425191   -1.517383    0.000000
      6          6           0       -1.268548    0.275782    0.000000
      7          1           0       -2.129481    0.931015    0.000000
      8          6           0        0.000000    0.879346    0.000000
      9          1           0        0.049288    1.966627    0.000000
 ---------------------------------------------------------------------

 SCF Done:  E(UB3LYP) =  -192.468414910     A.U. after   20 cycles

 The electronic state is 2-A'.
 Alpha  occ. eigenvalues --  -10.49108 -10.48550 -10.44644 -10.42612 -10.42297
 Alpha  occ. eigenvalues --   -1.07542  -1.01049  -0.94065  -0.83266  -0.74106
 Alpha  occ. eigenvalues --   -0.72128  -0.64806  -0.62771  -0.60878  -0.59689
 Alpha  occ. eigenvalues --   -0.53185  -0.52276
 Alpha virt. eigenvalues --   -0.37502  -0.22718  -0.20647  -0.14579  -0.13057
 Alpha virt. eigenvalues --   -0.11996  -0.11617  -0.09146  -0.09062  -0.07950
 Alpha virt. eigenvalues --   -0.07556  -0.05568  -0.05128  -0.04604  -0.04081

  Beta  occ. eigenvalues --  -10.48511 -10.46662 -10.44806 -10.42547 -10.42307
  Beta  occ. eigenvalues --   -1.07545  -0.99832  -0.93127  -0.82950  -0.74178
  Beta  occ. eigenvalues --   -0.72058  -0.64801  -0.61250  -0.59492  -0.51476
  Beta  occ. eigenvalues --   -0.51362
  Beta virt. eigenvalues --   -0.40343  -0.36692  -0.21975  -0.18614  -0.14350
  Beta virt. eigenvalues --   -0.12791  -0.11925  -0.10703  -0.09159  -0.08669
  Beta virt. eigenvalues --   -0.07933  -0.06986  -0.05137  -0.04811  -0.04594

 Mulliken charges and spin densities:
               1          2
     1  C    0.661144   0.022469
     2  C    0.216987   0.988219
     3  C   -0.298382  -0.105502
     4  H    0.197150   0.002521
     5  H    0.232652   0.003130
     6  C    0.020489  -0.012440
     7  H    0.209789   0.001198
     8  C   -0.454044   0.106226
     9  H    0.214216  -0.005821
 Sum of Mulliken charges =   1.00000   1.00000

 Dipole moment (field-independent basis, Debye):
    X=             -1.0502    Y=             -0.2704    Z=              0.0000  Tot=              1.0845
 Quadrupole moment (field-independent basis, Debye-Ang):
   XX=            -10.7901   YY=            -18.7044   ZZ=            -28.1200
   XY=              1.2299   XZ=              0.0000   YZ=              0.0000

  Exact polarizability:  89.862   8.950  54.975  -0.000  -0.001  31.125
 Approx polarizability: 172.830  11.145  87.923  -0.000  -0.000  44.421

                      1                      2                      3
                     A'                     A"                     A'
 Frequencies --    104.1086               182.6218               305.0943
 Red. masses --      6.6243                 2.6063                 4.1979
 Frc consts  --      0.0423                 0.0512                 0.2302
 IR Inten    --      1.7157                 0.0120                 0.6728

                      4                      5                      6
                     A"                     A"                     A'
 Frequencies --    339.4383               482.3975               611.5060
 Red. masses --      3.2530                 1.2080                 3.1602
 Frc consts  --      0.2208                 0.1656                 0.6963
 IR Inten    --     10.9360                 6.8131                 2.5316

                      7                      8                      9
                     A"                     A'                     A"
 Frequencies --    939.3960               953.2196              1044.3485
 Red. masses --      1.2976                 4.6617                 1.3750
 Frc consts  --      0.6747                 2.4956                 0.8836
 IR Inten    --     22.1014                 4.5731                 6.6520

                     10                     11                     12
                     A'                     A"                     A'
 Frequencies --   1047.6550              1115.3438              1189.5632
 Red. masses --      1.5231                 1.3774                 1.4111
 Frc consts  --      0.9850                 1.0096                 1.1765
 IR Inten    --      9.0913                 9.4311                29.4261

                     13                     14                     15
                     A'                     A'                     A'
 Frequencies --   1326.3878              1452.3381              1496.1019
 Red. masses --      1.3930                 1.3391                 2.5333
 Frc consts  --      1.4439                 1.6641                 3.3409
 IR Inten    --     62.7449                33.8418               127.2696

                     16                     17                     18
                     A'                     A'                     A'
 Frequencies --   1597.0954              2154.8354              3132.5425
 Red. masses --      2.5468                11.8082                 1.0884
 Frc consts  --      3.8274                32.3046                 6.2926
 IR Inten    --    191.5948               196.7754                17.0582

                     19                     20                     21
                     A'                     A'                     A'
 Frequencies --   3143.6364              3191.6064              3243.9972
 Red. masses --      1.0595                 1.0941                 1.1194
 Frc consts  --      6.1690                 6.5662                 6.9408
 IR Inten    --      4.8863                 6.9235                12.9367

 - Thermochemistry -
 -------------------
 Temperature   298.150 Kelvin.  Pressure   1.00000 Atm.
 Atom     1 has atomic number  6 and mass  12.00000

 Molecular mass:    64.03130 amu.
 Principal axes and moments of inertia in atomic units:
                           1         2         3
     Eigenvalues --   120.74427 498.71031 619.45458
           X            0.99135  -0.13125   0.00000
           Y            0.13125   0.99135   0.00000
           Z            0.00000   0.00000   1.00000
 This molecule is an asymmetric top.
 Rotational symmetry number  1.
 Rotational temperatures (Kelvin)      0.71733     0.17368     0.13982
 Rotational constants (GHZ):          14.94681     3.61882     2.91344
 Zero-point vibrational energy     173776.9 (Joules/Mol)
                                   41.53368 (Kcal/Mol)
 Warning -- explicit consideration of   6 degrees of freedom as
           vibrations may cause significant error
 Vibrational temperatures:    149.79   262.75   438.96   488.38   694.06
          (Kelvin)            879.82  1351.58  1371.47  1502.58  1507.34
                             1604.73  1711.51  1908.37  2089.59  2152.55
                             2297.86  3100.32  4507.02  4522.99  4592.00
                             4667.38

 Zero-point correction=                           0.066188 (Hartree/Particle)
 Thermal correction to Energy=                    0.071732
 Thermal correction to Enthalpy=                  0.072676
 Thermal correction to Gibbs Free Energy=         0.037110
 Sum of electronic and zero-point Energies=           -192.402227
 Sum of electronic and thermal Energies=              -192.396683
 Sum of electronic and thermal Enthalpies=            -192.395739
 Sum of electronic and thermal Free Energies=         -192.431305

                     E (Thermal)             CV                S
                      KCal/Mol        Cal/Mol-Kelvin    Cal/Mol-Kelvin
 Total                   45.012             17.706             74.856
 Electronic               0.000              0.000              1.377
 Translational            0.889              2.981             38.389
 Rotational               0.889              2.981             25.126
 Vibrational             43.235             11.744              9.963
 Vibration     1          0.605              1.946              3.376
 Vibration     2          0.630              1.863              2.301
 Vibration     3          0.696              1.664              1.389
 Vibration     4          0.719              1.597              1.215
 Vibration     5          0.839              1.289              0.704
 Vibration     6          0.971              1.007              0.430

 Normal termination of Gaussian 09 at Mon Jun 20 04:15:44 2016.
