 Gaussian 09, Revision E.01,
 Gaussian 09:  EM64L-G09RevE.01 30-Nov-2015

 ------------------------------------------------------
 #p b3lyp/6-311++G(3df,2p) freq IOp(2/17=3) IOp(2/18=3)
 ------------------------------------------------------

 ---------
 b3lyp opt
 ---------
 Symbolic Z-matrix:
 Charge =  0 Multiplicity = 1

                         Standard orientation:
 ---------------------------------------------------------------------
 Center     Atomic      Atomic             Coordinates (Angstroms)
 Number     Number       Type             X           Y           Z
 ---------------------------------------------------------------------
      1          6           0        1.059204    0.267372    0.000000
      2          1           0        1.668150    0.177339   -0.896726
      3          1           0        1.668150    0.177339    0.896726
      4          6           0       -0.210891   -0.704037    0.000000
      5          6           0       -0.030574   -1.982703    0.000000
      6          6           0        0.000000    1.352432    0.000000
      7          1           0        0.085703    2.428433    0.000000
      8          6           0       -1.036364    0.502111    0.000000
      9          1           0       -2.110104    0.605846    0.000000
 ---------------------------------------------------------------------

 SCF Done:  E(RB3LYP) =  -192.792997988     A.U. after   13 cycles

 The electronic state is 1-A'.
 Alpha  occ. eigenvalues --  -10.22532 -10.21714 -10.21594 -10.20979 -10.18953
 Alpha  occ. eigenvalues --   -0.90361  -0.74582  -0.69221  -0.59795  -0.54586
 Alpha  occ. eigenvalues --   -0.47341  -0.44824  -0.39560  -0.37585  -0.33057
 Alpha  occ. eigenvalues --   -0.28868  -0.25774
 Alpha virt. eigenvalues --   -0.10263  -0.04575  -0.00965   0.01295   0.01370
 Alpha virt. eigenvalues --    0.01615   0.05210   0.05458   0.05928   0.06501
 Alpha virt. eigenvalues --    0.07569   0.07842   0.10338   0.10390   0.10981

 Mulliken charges:
               1
     1  C   -0.645816
     2  H    0.171346
     3  H    0.171346
     4  C    0.588089
     5  C   -0.751694
     6  C   -0.001146
     7  H    0.242914
     8  C   -0.001240
     9  H    0.226201
 Sum of Mulliken charges =  -0.00000

 Dipole moment (field-independent basis, Debye):
    X=              0.0323    Y=              3.6381    Z=             -0.0000  Tot=              3.6383
 Quadrupole moment (field-independent basis, Debye-Ang):
   XX=            -25.7234   YY=            -36.7061   ZZ=            -31.6334
   XY=              0.9589   XZ=             -0.0000   YZ=             -0.0000

  Exact polarizability:  55.083   1.949  77.561   0.000  -0.000  40.549
 Approx polarizability:  85.696  10.944 134.116  -0.000   0.000  59.397

                      1                      2                      3
                     A'                     A"                     A"
 Frequencies --    105.4798               207.4970               483.0609
 Red. masses --      6.4523                 3.6164                 1.9506
 Frc consts  --      0.0423                 0.0917                 0.2682
 IR Inten    --     10.8966                 1.1911                12.3353

                      4                      5                      6
                     A'                     A"                     A'
 Frequencies --    696.5382               754.4673               791.2158
 Red. masses --      7.2601                 1.3013                 5.7700
 Frc consts  --      2.0753                 0.4364                 2.1282
 IR Inten    --     11.7509                38.2507                12.1753

                      7                      8                      9
                     A'                     A"                     A"
 Frequencies --    928.5768               940.0891               973.9866
 Red. masses --      2.2446                 1.4036                 1.4961
 Frc consts  --      1.1403                 0.7308                 0.8362
 IR Inten    --      0.8468                 0.4847                 4.3487

                     10                     11                     12
                     A'                     A"                     A'
 Frequencies --    982.1353              1082.4108              1120.5501
 Red. masses --      2.6480                 1.1536                 1.3979
 Frc consts  --      1.5049                 0.7963                 1.0342
 IR Inten    --      3.6574                 2.5535                 0.4811

                     13                     14                     15
                     A'                     A'                     A'
 Frequencies --   1201.3850              1300.8520              1465.4732
 Red. masses --      1.3419                 1.6700                 1.1353
 Frc consts  --      1.1412                 1.6650                 1.4366
 IR Inten    --      0.3349                 9.3094                 3.9180

                     16                     17                     18
                     A'                     A'                     A'
 Frequencies --   1596.3438              1794.2806              3073.1029
 Red. masses --      4.9742                11.0102                 1.0541
 Frc consts  --      7.4683                20.8847                 5.8653
 IR Inten    --     13.3621               101.5461                14.5476

                     19                     20                     21
                     A"                     A'                     A'
 Frequencies --   3132.5484              3204.1827              3232.6765
 Red. masses --      1.1108                 1.0864                 1.1131
 Frc consts  --      6.4220                 6.5716                 6.8535
 IR Inten    --      4.5035                 0.6922                 4.0821

 - Thermochemistry -
 -------------------
 Temperature   298.150 Kelvin.  Pressure   1.00000 Atm.
 Atom     1 has atomic number  6 and mass  12.00000

 Molecular mass:    64.03130 amu.
 Principal axes and moments of inertia in atomic units:
                           1         2         3
     Eigenvalues --   137.76564 309.93570 436.12522
           X           -0.01841   0.99983   0.00000
           Y            0.99983   0.01841   0.00000
           Z           -0.00000  -0.00000   1.00000
 This molecule is an asymmetric top.
 Rotational symmetry number  1.
 Rotational temperatures (Kelvin)      0.62870     0.27946     0.19860
 Rotational constants (GHZ):          13.10008     5.82295     4.13813
 Zero-point vibrational energy     173858.4 (Joules/Mol)
                                   41.55315 (Kcal/Mol)
 Warning -- explicit consideration of   3 degrees of freedom as
           vibrations may cause significant error
 Vibrational temperatures:    151.76   298.54   695.02  1002.16  1085.51
          (Kelvin)           1138.38  1336.01  1352.58  1401.35  1413.07
                             1557.35  1612.22  1728.52  1871.63  2108.49
                             2296.78  2581.57  4421.50  4507.03  4610.10
                             4651.09

 Zero-point correction=                           0.066219 (Hartree/Particle)
 Thermal correction to Energy=                    0.071112
 Thermal correction to Enthalpy=                  0.072057
 Thermal correction to Gibbs Free Energy=         0.038617
 Sum of electronic and zero-point Energies=           -192.726779
 Sum of electronic and thermal Energies=              -192.721885
 Sum of electronic and thermal Enthalpies=            -192.720941
 Sum of electronic and thermal Free Energies=         -192.754381

                     E (Thermal)             CV                S
                      KCal/Mol        Cal/Mol-Kelvin    Cal/Mol-Kelvin
 Total                   44.624             16.041             70.381
 Electronic               0.000              0.000              0.000
 Translational            0.889              2.981             38.389
 Rotational               0.889              2.981             24.436
 Vibrational             42.846             10.079              7.556
 Vibration     1          0.605              1.945              3.350
 Vibration     2          0.641              1.829              2.066
 Vibration     3          0.839              1.288              0.702

 Optimization completed.
    -- Stationary point found.
 Normal termination of Gaussian 09 at Thu Jan 31 06:39:00 2019.
