 Gaussian 09, Revision E.01,
 Gaussian 09:  EM64L-G09RevE.01 30-Nov-2015

 ---------------------------------------------
 #p b3lyp/6-311++G(3df,2p) freq symmetry=Loose
 ---------------------------------------------

 ---------
 b3lyp opt
 ---------
 Symbolic Z-matrix:
 Charge =  0 Multiplicity = 3

                         Standard orientation:
 ---------------------------------------------------------------------
 Center     Atomic      Atomic             Coordinates (Angstroms)
 Number     Number       Type             X           Y           Z
 ---------------------------------------------------------------------
      1          6           0       -0.952478   -0.674324    0.000000
      2          1           0       -1.991476   -0.338937    0.000000
      3          6           0       -0.724069   -2.028461    0.000000
      4          1           0       -1.340366   -2.911270    0.000000
      5          6           0        0.000000    0.303617    0.000000
      6          6           0        0.427266    1.661335    0.000000
      7          1           0        0.178676    2.708757    0.000000
      8          6           0        1.371304    0.742806    0.000000
      9          1           0        2.421027    0.511610    0.000000
 ---------------------------------------------------------------------

 SCF Done:  E(UB3LYP) =  -192.755566236     A.U. after   16 cycles

 The electronic state is 3-A".
 Alpha  occ. eigenvalues --  -10.22767 -10.22373 -10.21177 -10.17776 -10.17071
 Alpha  occ. eigenvalues --   -0.92677  -0.77250  -0.63464  -0.60159  -0.56906
 Alpha  occ. eigenvalues --   -0.48372  -0.45713  -0.40883  -0.39058  -0.33345
 Alpha  occ. eigenvalues --   -0.29010  -0.23485  -0.14927
 Alpha virt. eigenvalues --   -0.04255  -0.00514   0.00861   0.01008   0.03336
 Alpha virt. eigenvalues --    0.03823   0.05141   0.06332   0.06513   0.08171
 Alpha virt. eigenvalues --    0.09129   0.09722   0.10422   0.11142   0.11260

  Beta  occ. eigenvalues --  -10.22770 -10.22226 -10.20448 -10.17307 -10.15431
  Beta  occ. eigenvalues --   -0.92079  -0.75462  -0.60210  -0.59728  -0.55919
  Beta  occ. eigenvalues --   -0.46675  -0.44330  -0.38833  -0.38562  -0.32664
  Beta  occ. eigenvalues --   -0.26058
  Beta virt. eigenvalues --   -0.06707  -0.04238  -0.03500  -0.00495   0.00858
  Beta virt. eigenvalues --    0.01195   0.03418   0.04819   0.05519   0.06386
  Beta virt. eigenvalues --    0.07187   0.08231   0.09763   0.10126   0.10917

 Mulliken charges and spin densities:
               1          2
     1  C   -0.264952  -0.225467
     2  H    0.135238   0.067424
     3  C   -0.637569   1.732427
     4  H    0.201136   0.003741
     5  C    0.011053   0.337627
     6  C   -0.001029  -0.038982
     7  H    0.248046  -0.003034
     8  C    0.055814   0.134150
     9  H    0.252263  -0.007886
 Sum of Mulliken charges =  -0.00000   2.00000

 Dipole moment (field-independent basis, Debye):
    X=              0.8026    Y=              2.4112    Z=              0.0000  Tot=              2.5413
 Quadrupole moment (field-independent basis, Debye-Ang):
   XX=            -25.7074   YY=            -27.3871   ZZ=            -32.8371
   XY=              0.9602   XZ=              0.0000   YZ=              0.0000

  Exact polarizability:  65.959  16.669  88.653  -0.000  -0.000  41.077
 Approx polarizability:  96.259  16.300 124.703  -0.000  -0.000  57.338

                      1                      2                      3
                     A"                     A'                     A"
 Frequencies --    205.7278               207.7653               359.2199
 Red. masses --      4.5551                 3.3674                 2.0096
 Frc consts  --      0.1136                 0.0856                 0.1528
 IR Inten    --      2.2745                 3.3388                42.8848

                      4                      5                      6
                     A"                     A'                     A"
 Frequencies --    378.2006               502.9897               630.1012
 Red. masses --      1.4040                 3.2565                 1.2655
 Frc consts  --      0.1183                 0.4854                 0.2960
 IR Inten    --     12.9685                 5.6026                47.7795

                      7                      8                      9
                     A'                     A"                     A'
 Frequencies --    738.3628               775.7375               802.7011
 Red. masses --      1.8324                 1.3730                 2.7205
 Frc consts  --      0.5886                 0.4868                 1.0328
 IR Inten    --     17.9628                17.3607                26.9237

                     10                     11                     12
                     A"                     A'                     A'
 Frequencies --    898.1922               927.8102              1013.6968
 Red. masses --      1.4184                 1.4703                 1.7560
 Frc consts  --      0.6742                 0.7457                 1.0631
 IR Inten    --      0.1666                 2.0262                 7.7183

                     13                     14                     15
                     A'                     A'                     A'
 Frequencies --   1068.0402              1202.3232              1367.3572
 Red. masses --      1.6246                 2.0152                 2.1939
 Frc consts  --      1.0918                 1.7164                 2.4167
 IR Inten    --     12.3925                20.5782                38.8435

                     16                     17                     18
                     A'                     A'                     A'
 Frequencies --   1537.5654              1746.1827              3044.8683
 Red. masses --      7.5453                 6.8509                 1.0817
 Frc consts  --     10.5098                12.3077                 5.9088
 IR Inten    --     24.8096                59.0431                 9.8379

                     19                     20                     21
                     A'                     A'                     A'
 Frequencies --   3235.3704              3245.5270              3282.8534
 Red. masses --      1.0856                 1.0944                 1.1360
 Frc consts  --      6.6951                 6.7920                 7.2134
 IR Inten    --      5.9751                 1.2169                 6.1211

 - Thermochemistry -
 -------------------
 Temperature   298.150 Kelvin.  Pressure   1.00000 Atm.
 Atom     1 has atomic number  6 and mass  12.00000

 Molecular mass:    64.03130 amu.
 Principal axes and moments of inertia in atomic units:
                           1         2         3
     Eigenvalues --    81.58869 510.02735 591.61604
           X            0.50689   0.86201   0.00000
           Y            0.86201  -0.50689   0.00000
           Z            0.00000  -0.00000   1.00000
 This molecule is an asymmetric top.
 Rotational symmetry number  1.
 Rotational temperatures (Kelvin)      1.06159     0.16982     0.14640
 Rotational constants (GHZ):          22.11999     3.53852     3.05053
 Zero-point vibrational energy     162516.2 (Joules/Mol)
                                   38.84231 (Kcal/Mol)
 Warning -- explicit consideration of   5 degrees of freedom as
           vibrations may cause significant error
 Vibrational temperatures:    296.00   298.93   516.84   544.15   723.69
          (Kelvin)            906.57  1062.34  1116.11  1154.91  1292.30
                             1334.91  1458.48  1536.67  1729.87  1967.32
                             2212.21  2512.36  4380.88  4654.97  4669.58
                             4723.29

 Zero-point correction=                           0.061899 (Hartree/Particle)
 Thermal correction to Energy=                    0.067339
 Thermal correction to Enthalpy=                  0.068284
 Thermal correction to Gibbs Free Energy=         0.033195
 Sum of electronic and zero-point Energies=           -192.693667
 Sum of electronic and thermal Energies=              -192.688227
 Sum of electronic and thermal Enthalpies=            -192.687283
 Sum of electronic and thermal Free Energies=         -192.722372

                     E (Thermal)             CV                S
                      KCal/Mol        Cal/Mol-Kelvin    Cal/Mol-Kelvin
 Total                   42.256             19.058             73.851
 Electronic               0.000              0.000              2.183
 Translational            0.889              2.981             38.389
 Rotational               0.889              2.981             24.713
 Vibrational             40.479             13.096              8.565
 Vibration     1          0.640              1.832              2.081
 Vibration     2          0.641              1.829              2.063
 Vibration     3          0.734              1.556              1.125
 Vibration     4          0.748              1.517              1.046
 Vibration     5          0.858              1.243              0.651

 Optimization completed.
    -- Stationary point found.
 Normal termination of Gaussian 09 at Wed Jun 22 03:27:00 2016.
