 Gaussian 09, Revision E.01,
 Gaussian 09:  EM64L-G09RevE.01 30-Nov-2015

 ---------------------------------------------
 #p b3lyp/6-311++G(3df,2p) freq symmetry=Loose
 ---------------------------------------------

 ---------
 b3lyp opt
 ---------
 Symbolic Z-matrix:
 Charge =  0 Multiplicity = 1

                         Standard orientation:
 ---------------------------------------------------------------------
 Center     Atomic      Atomic             Coordinates (Angstroms)
 Number     Number       Type             X           Y           Z
 ---------------------------------------------------------------------
      1          6           0        0.468009    0.000702    0.516808
      2          6           0       -0.737579    0.738168    0.072906
      3          6           0       -1.852159   -0.000423   -0.354583
      4          6           0       -0.737610   -0.738019    0.074626
      5          1           0        0.635558    0.002102    1.590942
      6          6           0        1.728719   -0.000437   -0.316869
      7          1           0        2.322465    0.883744   -0.086275
      8          1           0        2.323621   -0.882358   -0.081388
      9          1           0        1.502077   -0.003427   -1.380598
 ---------------------------------------------------------------------

 SCF Done:  E(RB3LYP) =  -192.770835232     A.U. after   12 cycles

 The electronic state is 1-A.
 Alpha  occ. eigenvalues --  -10.26964 -10.25929 -10.25896 -10.22068 -10.20472
 Alpha  occ. eigenvalues --   -1.00436  -0.80517  -0.69884  -0.55663  -0.54362
 Alpha  occ. eigenvalues --   -0.48649  -0.45438  -0.42681  -0.37959  -0.35314
 Alpha  occ. eigenvalues --   -0.33456  -0.25483
 Alpha virt. eigenvalues --   -0.07469  -0.03092  -0.02845  -0.00433   0.00398
 Alpha virt. eigenvalues --    0.02283   0.02830   0.05360   0.05453   0.06144
 Alpha virt. eigenvalues --    0.06809   0.07947   0.09253   0.10585   0.11090

 Mulliken charges:
               1
     1  C    0.149690
     2  C    0.070565
     3  C   -0.474822
     4  C    0.069944
     5  H    0.195378
     6  C   -0.466982
     7  H    0.150653
     8  H    0.150591
     9  H    0.154983
 Sum of Mulliken charges =  -0.00000

 Dipole moment (field-independent basis, Debye):
    X=              4.4806    Y=              0.0019    Z=              1.2839  Tot=              4.6609
 Quadrupole moment (field-independent basis, Debye-Ang):
   XX=            -36.1313   YY=            -32.7311   ZZ=            -28.6670
   XY=             -0.0020   XZ=             -1.9910   YZ=              0.0048

  Exact polarizability:  65.268   0.007  50.453   4.219  -0.008  43.107
 Approx polarizability:  91.110   0.016 101.266   8.877  -0.040  66.490

                      1                      2                      3
                      A                      A                      A
 Frequencies --    191.2935               267.8061               370.6857
 Red. masses --      1.0936                 4.3498                 4.6302
 Frc consts  --      0.0236                 0.1838                 0.3749
 IR Inten    --      0.1282                 6.5029                 4.6431

                      4                      5                      6
                      A                      A                      A
 Frequencies --    502.0491               560.9996               827.3195
 Red. masses --      5.5711                 4.6422                 2.7351
 Frc consts  --      0.8273                 0.8608                 1.1030
 IR Inten    --     57.0462                 1.1253                 4.2663

                      7                      8                      9
                      A                      A                      A
 Frequencies --    943.6590              1030.6011              1037.8546
 Red. masses --      7.6847                 1.2764                 4.1154
 Frc consts  --      4.0319                 0.7987                 2.6118
 IR Inten    --     11.3875                 3.2259                 7.2468

                     10                     11                     12
                      A                      A                      A
 Frequencies --   1117.7295              1132.3372              1224.3487
 Red. masses --      2.0630                 1.3924                 2.4655
 Frc consts  --      1.5185                 1.0518                 2.1775
 IR Inten    --      5.8516                 0.0045                 4.5031

                     13                     14                     15
                      A                      A                      A
 Frequencies --   1396.8204              1418.6532              1492.8080
 Red. masses --      1.6621                 1.2244                 1.0429
 Frc consts  --      1.9107                 1.4519                 1.3693
 IR Inten    --     14.9285                 4.8675                 5.7906

                     16                     17                     18
                      A                      A                      A
 Frequencies --   1494.4899              1518.6749              3044.0084
 Red. masses --      1.1841                 5.6011                 1.0347
 Frc consts  --      1.5582                 7.6113                 5.6486
 IR Inten    --     21.1940                45.8799                 8.1942

                     19                     20                     21
                      A                      A                      A
 Frequencies --   3103.4725              3109.0138              3130.1723
 Red. masses --      1.0882                 1.1018                 1.1021
 Frc consts  --      6.1754                 6.2746                 6.3622
 IR Inten    --      0.9504                 6.2779                 8.0090

 - Thermochemistry -
 -------------------
 Temperature   298.150 Kelvin.  Pressure   1.00000 Atm.
 Atom     1 has atomic number  6 and mass  12.00000

 Molecular mass:    64.03130 amu.
 Principal axes and moments of inertia in atomic units:
                           1         2         3
     Eigenvalues --    89.84867 414.59840 429.35737
           X            0.99989  -0.00000  -0.01511
           Y            0.00002   1.00000   0.00088
           Z            0.01511  -0.00088   0.99989
 This molecule is an asymmetric top.
 Rotational symmetry number  1.
 Rotational temperatures (Kelvin)      0.96400     0.20891     0.20173
 Rotational constants (GHZ):          20.08645     4.35299     4.20335
 Zero-point vibrational energy     172948.9 (Joules/Mol)
                                   41.33578 (Kcal/Mol)
 Warning -- explicit consideration of   5 degrees of freedom as
           vibrations may cause significant error
 Vibrational temperatures:    275.23   385.31   533.33   722.34   807.15
          (Kelvin)           1190.33  1357.71  1482.80  1493.24  1608.16
                             1629.18  1761.56  2009.71  2041.12  2147.82
                             2150.23  2185.03  4379.64  4465.20  4473.17
                             4503.61

 Zero-point correction=                           0.065873 (Hartree/Particle)
 Thermal correction to Energy=                    0.070757
 Thermal correction to Enthalpy=                  0.071701
 Thermal correction to Gibbs Free Energy=         0.038709
 Sum of electronic and zero-point Energies=           -192.704962
 Sum of electronic and thermal Energies=              -192.700078
 Sum of electronic and thermal Enthalpies=            -192.699134
 Sum of electronic and thermal Free Energies=         -192.732126

                     E (Thermal)             CV                S
                      KCal/Mol        Cal/Mol-Kelvin    Cal/Mol-Kelvin
 Total                   44.401             16.310             69.437
 Electronic               0.000              0.000              0.000
 Translational            0.889              2.981             38.389
 Rotational               0.889              2.981             24.285
 Vibrational             42.623             10.348              6.764
 Vibration     1          0.634              1.852              2.215
 Vibration     2          0.673              1.732              1.610
 Vibration     3          0.743              1.532              1.077
 Vibration     4          0.857              1.245              0.653
 Vibration     5          0.917              1.116              0.522

 Optimization completed.
    -- Stationary point found.
 Normal termination of Gaussian 09 at Wed Jun 22 02:28:18 2016.
