 Gaussian 09, Revision E.01,
 Gaussian 09:  EM64L-G09RevE.01 30-Nov-2015

 ---------------------------------------------
 #p b3lyp/6-311++G(3df,2p) freq symmetry=Loose
 ---------------------------------------------

 ---------
 b3lyp opt
 ---------
 Symbolic Z-matrix:
 Charge =  0 Multiplicity = 1

                         Standard orientation:
 ---------------------------------------------------------------------
 Center     Atomic      Atomic             Coordinates (Angstroms)
 Number     Number       Type             X           Y           Z
 ---------------------------------------------------------------------
      1          6           0        0.991235   -0.704138    0.000016
      2          6           0       -0.543140   -0.943097   -0.000144
      3          1           0        1.419220   -1.186491    0.880908
      4          1           0        1.419808   -1.187074   -0.880021
      5          6           0        0.973570    0.765388   -0.000113
      6          1           0        1.757280    1.504229    0.000346
      7          6           0       -0.350081    0.975171   -0.000049
      8          6           0       -1.422522    0.029386   -0.000016
      9          1           0       -2.490675    0.133078    0.000599
 ---------------------------------------------------------------------

 SCF Done:  E(RB3LYP) =  -192.788612365     A.U. after   13 cycles

 The electronic state is 1-A.
 Alpha  occ. eigenvalues --  -10.22217 -10.21510 -10.21414 -10.21169 -10.17952
 Alpha  occ. eigenvalues --   -0.91082  -0.75947  -0.68573  -0.56254  -0.53164
 Alpha  occ. eigenvalues --   -0.46449  -0.46109  -0.44997  -0.40015  -0.34271
 Alpha  occ. eigenvalues --   -0.23847  -0.23342
 Alpha virt. eigenvalues --   -0.08390  -0.03295  -0.00509   0.01321   0.02403
 Alpha virt. eigenvalues --    0.02443   0.04456   0.05150   0.05929   0.06976
 Alpha virt. eigenvalues --    0.08026   0.09334   0.10981   0.11336   0.11491

 Mulliken charges:
               1
     1  C   -0.408351
     2  C   -0.327769
     3  H    0.151382
     4  H    0.151402
     5  C   -0.079054
     6  H    0.189652
     7  C    0.059917
     8  C    0.025703
     9  H    0.237119
 Sum of Mulliken charges =  -0.00000

 Dipole moment (field-independent basis, Debye):
    X=              0.7355    Y=             -0.2148    Z=              0.0014  Tot=              0.7662
 Quadrupole moment (field-independent basis, Debye-Ang):
   XX=            -25.3404   YY=            -31.7637   ZZ=            -31.4227
   XY=             -1.5782   XZ=             -0.0006   YZ=              0.0006

  Exact polarizability:  65.917   3.662  70.863   0.001  -0.001  40.109
 Approx polarizability: 105.542   5.896 182.833   0.002   0.002  58.858

                      1                      2                      3
                      A                      A                      A
 Frequencies --    333.7023               458.8618               481.2215
 Red. masses --      1.9277                 5.1847                 7.0321
 Frc consts  --      0.1265                 0.6432                 0.9595
 IR Inten    --     18.1603                 1.1969               198.4626

                      4                      5                      6
                      A                      A                      A
 Frequencies --    562.2193               718.0652               747.0811
 Red. masses --      8.5995                 1.1101                 1.1892
 Frc consts  --      1.6015                 0.3372                 0.3910
 IR Inten    --     40.4885                47.6421                 0.8934

                      7                      8                      9
                      A                      A                      A
 Frequencies --    852.7495               906.9294               962.8320
 Red. masses --      3.9961                 2.2332                 5.3079
 Frc consts  --      1.7121                 1.0822                 2.8992
 IR Inten    --      3.4488                 3.0860                10.0389

                     10                     11                     12
                      A                      A                      A
 Frequencies --   1035.6383              1129.1548              1149.3952
 Red. masses --      1.7484                 1.0971                 1.1969
 Frc consts  --      1.1049                 0.8242                 0.9317
 IR Inten    --      8.1991                 0.2756                 0.6455

                     13                     14                     15
                      A                      A                      A
 Frequencies --   1221.9145              1278.5102              1410.8111
 Red. masses --      1.4120                 1.9172                 1.2065
 Frc consts  --      1.2421                 1.8464                 1.4148
 IR Inten    --      8.1819                 4.1668                 3.6646

                     16                     17                     18
                      A                      A                      A
 Frequencies --   1531.1475              1685.4812              3040.1910
 Red. masses --      4.9700                 7.8689                 1.0581
 Frc consts  --      6.8650                13.1709                 5.7620
 IR Inten    --     12.6100                15.1384                 7.0894

                     19                     20                     21
                      A                      A                      A
 Frequencies --   3073.9128              3218.7248              3277.0087
 Red. masses --      1.1028                 1.0948                 1.1062
 Frc consts  --      6.1395                 6.6828                 6.9991
 IR Inten    --      2.0221                 7.5215                 0.3592

 - Thermochemistry -
 -------------------
 Temperature   298.150 Kelvin.  Pressure   1.00000 Atm.
 Atom     1 has atomic number  6 and mass  12.00000

 Molecular mass:    64.03130 amu.
 Principal axes and moments of inertia in atomic units:
                           1         2         3
     Eigenvalues --   148.98900 240.77261 378.60154
           X            0.99913  -0.04178  -0.00000
           Y            0.04178   0.99913   0.00000
           Z            0.00000  -0.00000   1.00000
 This molecule is an asymmetric top.
 Rotational symmetry number  1.
 Rotational temperatures (Kelvin)      0.58134     0.35973     0.22877
 Rotational constants (GHZ):          12.11325     7.49562     4.76686
 Zero-point vibrational energy     173910.4 (Joules/Mol)
                                   41.56559 (Kcal/Mol)
 Warning -- explicit consideration of   4 degrees of freedom as
           vibrations may cause significant error
 Vibrational temperatures:    480.12   660.20   692.37   808.91  1033.13
          (Kelvin)           1074.88  1226.91  1304.87  1385.30  1490.05
                             1624.60  1653.72  1758.06  1839.49  2029.84
                             2202.98  2425.03  4374.15  4422.67  4631.02
                             4714.88

 Zero-point correction=                           0.066239 (Hartree/Particle)
 Thermal correction to Energy=                    0.070604
 Thermal correction to Enthalpy=                  0.071549
 Thermal correction to Gibbs Free Energy=         0.039719
 Sum of electronic and zero-point Energies=           -192.722373
 Sum of electronic and thermal Energies=              -192.718008
 Sum of electronic and thermal Enthalpies=            -192.717064
 Sum of electronic and thermal Free Energies=         -192.748893

                     E (Thermal)             CV                S
                      KCal/Mol        Cal/Mol-Kelvin    Cal/Mol-Kelvin
 Total                   44.305             15.725             66.990
 Electronic               0.000              0.000              0.000
 Translational            0.889              2.981             38.389
 Rotational               0.889              2.981             24.122
 Vibrational             42.527              9.763              4.479
 Vibration     1          0.715              1.608              1.242
 Vibration     2          0.817              1.341              0.769
 Vibration     3          0.838              1.292              0.707
 Vibration     4          0.918              1.113              0.519

 Optimization completed.
    -- Stationary point found.
 Normal termination of Gaussian 09 at Wed Jun 22 03:07:17 2016.
