 Gaussian 09, Revision E.01,
 Gaussian 09:  EM64L-G09RevE.01 30-Nov-2015

 ---------------------------------------------
 #p b3lyp/6-311++G(3df,2p) freq symmetry=Loose
 ---------------------------------------------

 ---------
 b3lyp opt
 ---------
 Symbolic Z-matrix:
 Charge =  0 Multiplicity = 3

                         Standard orientation:
 ---------------------------------------------------------------------
 Center     Atomic      Atomic             Coordinates (Angstroms)
 Number     Number       Type             X           Y           Z
 ---------------------------------------------------------------------
      1          6           0        1.723525   -0.680666   -0.506262
      2          6           0       -1.388026   -0.888390    0.015915
      3          1           0       -2.433537   -0.784660   -0.229379
      4          1           0       -1.013925   -1.867434    0.271115
      5          6           0       -0.563232    0.220192    0.004275
      6          6           0       -0.598997    1.529556   -0.217813
      7          6           0        0.976212    0.098885    0.412207
      8          1           0        1.056296   -0.098264    1.486192
      9          1           0        1.494274    1.072893    0.222136
 ---------------------------------------------------------------------

 SCF Done:  E(UB3LYP) =  -192.624742782     A.U. after   23 cycles

 The electronic state is 3-A.
 Alpha  occ. eigenvalues --  -10.26942 -10.24444 -10.23902 -10.21985 -10.21378
 Alpha  occ. eigenvalues --   -0.88302  -0.78619  -0.71910  -0.58203  -0.54004
 Alpha  occ. eigenvalues --   -0.49326  -0.47240  -0.42523  -0.36285  -0.32721
 Alpha  occ. eigenvalues --   -0.31606  -0.24119  -0.22966
 Alpha virt. eigenvalues --   -0.12668  -0.09997  -0.01234   0.00701   0.01303
 Alpha virt. eigenvalues --    0.02199   0.03409   0.05069   0.05587   0.06627
 Alpha virt. eigenvalues --    0.07469   0.08148   0.09056   0.09991   0.10941

  Beta  occ. eigenvalues --  -10.25631 -10.24548 -10.22949 -10.22179 -10.20412
  Beta  occ. eigenvalues --   -0.87342  -0.76858  -0.69265  -0.56099  -0.53317
  Beta  occ. eigenvalues --   -0.48353  -0.46428  -0.41653  -0.33339  -0.30458
  Beta  occ. eigenvalues --   -0.29966
  Beta virt. eigenvalues --   -0.12054  -0.11157  -0.10374  -0.06329  -0.01042
  Beta virt. eigenvalues --    0.00988   0.01581   0.02381   0.04167   0.05570
  Beta virt. eigenvalues --    0.05802   0.06977   0.08116   0.08956   0.09590

 Mulliken charges and spin densities:
               1          2
     1  C   -0.457157   0.896214
     2  C   -0.522196   0.709909
     3  H    0.173923  -0.020526
     4  H    0.184281  -0.019869
     5  C    1.173820  -0.203348
     6  C   -0.798128   0.666072
     7  C   -0.124193  -0.064470
     8  H    0.171964   0.044171
     9  H    0.197687  -0.008153
 Sum of Mulliken charges =  -0.00000   2.00000

 Dipole moment (field-independent basis, Debye):
    X=             -0.4276    Y=             -1.2878    Z=              1.9993  Tot=              2.4162
 Quadrupole moment (field-independent basis, Debye-Ang):
   XX=            -30.8850   YY=            -35.7828   ZZ=            -32.9132
   XY=              5.4825   XZ=              3.5442   YZ=             -0.8419

  Exact polarizability:  79.522  -4.658  72.378  -1.169  -0.714  48.467
 Approx polarizability: 118.468 -14.441 126.971  -1.594  -2.364  69.315

                      1                      2                      3
                      A                      A                      A
 Frequencies --    155.9605               203.2713               225.3098
 Red. masses --      3.9879                 4.8341                 3.3601
 Frc consts  --      0.0572                 0.1177                 0.1005
 IR Inten    --     16.1628                10.8418                 8.9982

                      4                      5                      6
                      A                      A                      A
 Frequencies --    356.7598               463.4092               490.5810
 Red. masses --      2.8039                 3.1628                 1.0668
 Frc consts  --      0.2103                 0.4002                 0.1513
 IR Inten    --      7.6553                 2.9400                 0.8924

                      7                      8                      9
                      A                      A                      A
 Frequencies --    553.1451               680.9004               724.7151
 Red. masses --      2.0612                 4.6989                 1.3846
 Frc consts  --      0.3716                 1.2836                 0.4284
 IR Inten    --      2.4785                41.3553                45.0673

                     10                     11                     12
                      A                      A                      A
 Frequencies --    921.5583              1035.7453              1080.6001
 Red. masses --      1.2775                 1.6689                 1.5027
 Frc consts  --      0.6392                 1.0548                 1.0338
 IR Inten    --     13.5857                 2.2087                 5.0740

                     13                     14                     15
                      A                      A                      A
 Frequencies --   1104.8436              1210.8389              1302.2341
 Red. masses --      3.2741                 2.0035                 1.2107
 Frc consts  --      2.3548                 1.7306                 1.2096
 IR Inten    --      4.4713                 1.2047                42.1205

                     16                     17                     18
                      A                      A                      A
 Frequencies --   1482.4385              1520.4595              2826.3029
 Red. masses --      1.2052                 7.9763                 1.0674
 Frc consts  --      1.5605                10.8643                 5.0235
 IR Inten    --      9.3232                18.6173                34.8072

                     19                     20                     21
                      A                      A                      A
 Frequencies --   3013.0705              3161.5860              3260.7153
 Red. masses --      1.0841                 1.0521                 1.1193
 Frc consts  --      5.7988                 6.1958                 7.0118
 IR Inten    --      4.4135                 0.6202                 0.1413

 - Thermochemistry -
 -------------------
 Temperature   298.150 Kelvin.  Pressure   1.00000 Atm.
 Atom     1 has atomic number  6 and mass  12.00000

 Molecular mass:    64.03130 amu.
 Principal axes and moments of inertia in atomic units:
                           1         2         3
     Eigenvalues --   201.26064 347.88130 492.10817
           X            0.99117   0.12997   0.02634
           Y           -0.12993   0.99152  -0.00336
           Z           -0.02655  -0.00009   0.99965
 This molecule is an asymmetric top.
 Rotational symmetry number  1.
 Rotational temperatures (Kelvin)      0.43036     0.24898     0.17601
 Rotational constants (GHZ):           8.96718     5.18781     3.66737
 Zero-point vibrational energy     154165.4 (Joules/Mol)
                                   36.84642 (Kcal/Mol)
 Warning -- explicit consideration of   7 degrees of freedom as
           vibrations may cause significant error
 Vibrational temperatures:    224.39   292.46   324.17   513.30   666.74
          (Kelvin)            705.84   795.85   979.66  1042.70  1325.92
                             1490.20  1554.74  1589.62  1742.13  1873.62
                             2132.90  2187.60  4066.41  4335.13  4548.81
                             4691.44

 Zero-point correction=                           0.058719 (Hartree/Particle)
 Thermal correction to Energy=                    0.064681
 Thermal correction to Enthalpy=                  0.065625
 Thermal correction to Gibbs Free Energy=         0.029332
 Sum of electronic and zero-point Energies=           -192.566024
 Sum of electronic and thermal Energies=              -192.560062
 Sum of electronic and thermal Enthalpies=            -192.559118
 Sum of electronic and thermal Free Energies=         -192.595410

                     E (Thermal)             CV                S
                      KCal/Mol        Cal/Mol-Kelvin    Cal/Mol-Kelvin
 Total                   40.588             20.319             76.385
 Electronic               0.000              0.000              2.183
 Translational            0.889              2.981             38.389
 Rotational               0.889              2.981             25.047
 Vibrational             38.810             14.358             10.765
 Vibration     1          0.620              1.896              2.598
 Vibration     2          0.639              1.835              2.103
 Vibration     3          0.650              1.802              1.916
 Vibration     4          0.732              1.561              1.136
 Vibration     5          0.821              1.331              0.756
 Vibration     6          0.846              1.271              0.682
 Vibration     7          0.909              1.133              0.538

 Optimization completed.
    -- Stationary point found.
 Normal termination of Gaussian 09 at Wed Jun 22 04:19:13 2016.
