 Gaussian 09, Revision E.01,
 Gaussian 09:  EM64L-G09RevE.01 30-Nov-2015

 ------------------------------------------------------
 #p b3lyp/6-311++G(3df,2p) freq IOp(2/17=3) IOp(2/18=3)
 ------------------------------------------------------

 ---------
 b3lyp opt
 ---------
 Symbolic Z-matrix:
 Charge =  3 Multiplicity = 2

                         Standard orientation:
 ---------------------------------------------------------------------
 Center     Atomic      Atomic             Coordinates (Angstroms)
 Number     Number       Type             X           Y           Z
 ---------------------------------------------------------------------
      1          6           0       -1.087603    0.361812    0.000000
      2          6           0       -0.509914   -0.132409   -1.179879
      3          1           0       -0.956052   -0.477273   -2.145692
      4          6           0        0.917243    0.001801   -0.729741
      5          1           0        1.774891    0.174171   -1.415046
      6          6           0        0.917243    0.001801    0.729741
      7          1           0        1.774891    0.174171    1.415046
      8          6           0       -0.509914   -0.132409    1.179879
      9          1           0       -0.956052   -0.477273    2.145692
 ---------------------------------------------------------------------

 SCF Done:  E(UB3LYP) =  -191.114745856     A.U. after   15 cycles

 The electronic state is 2-A'.
 Alpha  occ. eigenvalues --  -11.07795 -11.03901 -11.03899 -11.01880 -11.01847
 Alpha  occ. eigenvalues --   -1.69142  -1.49505  -1.47833  -1.30102  -1.28503
 Alpha  occ. eigenvalues --   -1.23830  -1.18794  -1.17549  -1.12995  -1.12679
 Alpha  occ. eigenvalues --   -1.04286
 Alpha virt. eigenvalues --   -0.90930  -0.88500  -0.76159  -0.73045  -0.55970
 Alpha virt. eigenvalues --   -0.52952  -0.52813  -0.49297  -0.48795  -0.47578
 Alpha virt. eigenvalues --   -0.46649  -0.43872  -0.43075  -0.41692  -0.40459

  Beta  occ. eigenvalues --  -11.06405 -11.03972 -11.03969 -11.01494 -11.01463
  Beta  occ. eigenvalues --   -1.68158  -1.49270  -1.45933  -1.29312  -1.28073
  Beta  occ. eigenvalues --   -1.22451  -1.18563  -1.16446  -1.12667  -1.10788
  Beta virt. eigenvalues --   -0.91559  -0.90659  -0.84560  -0.74174  -0.70475
  Beta virt. eigenvalues --   -0.55758  -0.52426  -0.51967  -0.48981  -0.48356
  Beta virt. eigenvalues --   -0.47467  -0.46242  -0.43700  -0.42788  -0.41182

 Mulliken charges and spin densities:
               1          2
     1  C    0.509505   0.683386
     2  C    0.280248  -0.085333
     3  H    0.405739   0.003024
     4  C    0.211387   0.241101
     5  H    0.347874  -0.000485
     6  C    0.211387   0.241101
     7  H    0.347874  -0.000485
     8  C    0.280248  -0.085333
     9  H    0.405739   0.003024
 Sum of Mulliken charges =   3.00000   1.00000

 Dipole moment (field-independent basis, Debye):
    X=              0.0167    Y=             -0.5475    Z=              0.0000  Tot=              0.5478
 Quadrupole moment (field-independent basis, Debye-Ang):
   XX=             -2.4662   YY=            -20.8876   ZZ=              5.2039
   XY=              1.3454   XZ=             -0.0000   YZ=             -0.0000

  Exact polarizability:  46.136  -1.009  22.812   0.000   0.000  49.491
 Approx polarizability:  92.823  -7.231  37.415  -0.000  -0.000  94.360

                      1                      2                      3
                     A"                     A'                     A'
 Frequencies --     49.1872               340.5758               499.4247
 Red. masses --      1.9072                 2.6751                 2.9632
 Frc consts  --      0.0027                 0.1828                 0.4355
 IR Inten    --      6.6882                11.0219                15.1447

                      4                      5                      6
                     A"                     A'                     A'
 Frequencies --    654.3462               774.1448               848.9521
 Red. masses --      6.2949                 2.3953                 2.0321
 Frc consts  --      1.5880                 0.8458                 0.8629
 IR Inten    --      5.8940                31.1595                45.2306

                      7                      8                      9
                     A"                     A"                     A'
 Frequencies --    858.2649               948.8152               979.7680
 Red. masses --      1.8226                 1.3675                 1.4641
 Frc consts  --      0.7910                 0.7253                 0.8281
 IR Inten    --     45.5858                 1.2943                 1.8329

                     10                     11                     12
                     A"                     A'                     A'
 Frequencies --    990.3371              1070.9434              1078.4145
 Red. masses --      1.8640                 1.3355                 5.1911
 Frc consts  --      1.0771                 0.9025                 3.5570
 IR Inten    --      0.6448                10.7209                 4.8078

                     13                     14                     15
                     A'                     A"                     A"
 Frequencies --   1098.1662              1148.2224              1233.9513
 Red. masses --      1.5797                 1.4167                 2.2070
 Frc consts  --      1.1225                 1.1005                 1.9800
 IR Inten    --     22.0824                43.5557                12.1870

                     16                     17                     18
                     A"                     A'                     A"
 Frequencies --   1304.4025              1327.0896              2862.1347
 Red. masses --      2.6706                 2.4500                 1.1064
 Frc consts  --      2.6772                 2.5422                 5.3399
 IR Inten    --    194.1585               207.0782               739.0667

                     19                     20                     21
                     A'                     A"                     A'
 Frequencies --   2870.8323              2926.8311              2943.9413
 Red. masses --      1.1028                 1.1017                 1.1035
 Frc consts  --      5.3548                 5.5603                 5.6349
 IR Inten    --    322.6873               232.0833               273.2025

 - Thermochemistry -
 -------------------
 Temperature   298.150 Kelvin.  Pressure   1.00000 Atm.
 Atom     1 has atomic number  6 and mass  12.00000

 Molecular mass:    64.03130 amu.
 Principal axes and moments of inertia in atomic units:
                           1         2         3
     Eigenvalues --   183.13953 221.28108 386.86782
           X            0.00000   0.99947   0.03245
           Y            0.00000  -0.03245   0.99947
           Z            1.00000  -0.00000  -0.00000
 This molecule is an asymmetric top.
 Rotational symmetry number  1.
 Rotational temperatures (Kelvin)      0.47294     0.39142     0.22388
 Rotational constants (GHZ):           9.85446     8.15588     4.66501
 Zero-point vibrational energy     160351.9 (Joules/Mol)
                                   38.32503 (Kcal/Mol)
 Warning -- explicit consideration of   3 degrees of freedom as
           vibrations may cause significant error
 Vibrational temperatures:     70.77   490.01   718.56   941.46  1113.82
          (Kelvin)           1221.45  1234.85  1365.13  1409.67  1424.87
                             1540.85  1551.60  1580.01  1652.03  1775.38
                             1876.74  1909.38  4117.97  4130.48  4211.05
                             4235.67

 Zero-point correction=                           0.061075 (Hartree/Particle)
 Thermal correction to Energy=                    0.065947
 Thermal correction to Enthalpy=                  0.066891
 Thermal correction to Gibbs Free Energy=         0.032523
 Sum of electronic and zero-point Energies=           -191.053671
 Sum of electronic and thermal Energies=              -191.048799
 Sum of electronic and thermal Enthalpies=            -191.047855
 Sum of electronic and thermal Free Energies=         -191.082223

                     E (Thermal)             CV                S
                      KCal/Mol        Cal/Mol-Kelvin    Cal/Mol-Kelvin
 Total                   41.382             16.350             72.333
 Electronic               0.000              0.000              1.377
 Translational            0.889              2.981             38.389
 Rotational               0.889              2.981             24.265
 Vibrational             39.605             10.388              8.302
 Vibration     1          0.595              1.978              4.850
 Vibration     2          0.720              1.594              1.209
 Vibration     3          0.855              1.251              0.660

 Optimization completed.
    -- Stationary point found.
 Normal termination of Gaussian 09 at Thu Jan 31 08:37:31 2019.
