 Gaussian 09, Revision E.01,
 Gaussian 09:  EM64L-G09RevE.01 30-Nov-2015

 ---------------------------------------------
 #p b3lyp/6-311++G(3df,2p) freq symmetry=Loose
 ---------------------------------------------

 ---------
 b3lyp opt
 ---------
 Symbolic Z-matrix:
 Charge =  3 Multiplicity = 2

                         Standard orientation:
 ---------------------------------------------------------------------
 Center     Atomic      Atomic             Coordinates (Angstroms)
 Number     Number       Type             X           Y           Z
 ---------------------------------------------------------------------
      1          6           0        2.276303   -0.250132    0.001447
      2          1           0        2.908950    0.731427   -0.075651
      3          1           0        2.610776   -0.899091   -0.898873
      4          1           0        2.644156   -0.782095    0.963007
      5          6           0       -1.430205   -0.197153   -0.001428
      6          6           0       -2.834511   -0.309224    0.000920
      7          6           0        1.004397    0.075922    0.000767
      8          6           0       -0.311066    0.557894   -0.000001
      9          1           0       -0.393388    1.685918    0.001288
 ---------------------------------------------------------------------

 SCF Done:  E(UB3LYP) =  -191.046503472     A.U. after   26 cycles

 The electronic state is 2-A.
 Alpha  occ. eigenvalues --  -11.06124 -11.02925 -10.97701 -10.95464 -10.88365
 Alpha  occ. eigenvalues --   -1.56567  -1.50428  -1.43368  -1.30514  -1.19766
 Alpha  occ. eigenvalues --   -1.17086  -1.11622  -1.09806  -1.03192  -1.01740
 Alpha  occ. eigenvalues --   -0.98597
 Alpha virt. eigenvalues --   -0.88351  -0.81963  -0.75468  -0.72750  -0.61340
 Alpha virt. eigenvalues --   -0.54124  -0.48046  -0.47419  -0.46601  -0.45237
 Alpha virt. eigenvalues --   -0.43632  -0.41133  -0.40686  -0.39970  -0.37803

  Beta  occ. eigenvalues --  -11.06082 -11.01954 -10.96597 -10.95646 -10.88383
  Beta  occ. eigenvalues --   -1.56198  -1.49068  -1.41421  -1.29539  -1.19205
  Beta  occ. eigenvalues --   -1.16735  -1.12056  -1.09678  -1.02578  -0.97729
  Beta virt. eigenvalues --   -0.87365  -0.84953  -0.81771  -0.74884  -0.67986
  Beta virt. eigenvalues --   -0.60004  -0.53892  -0.47786  -0.46896  -0.46445
  Beta virt. eigenvalues --   -0.45366  -0.43531  -0.41196  -0.40427  -0.39918

 Mulliken charges and spin densities:
               1          2
     1  C   -0.103395  -0.019390
     2  H    0.378894  -0.001800
     3  H    0.370411  -0.013412
     4  H    0.370485  -0.015137
     5  C    0.800993   0.768470
     6  C    0.296825   0.454216
     7  C    0.711939   0.013741
     8  C   -0.131668  -0.213297
     9  H    0.305515   0.026609
 Sum of Mulliken charges =   3.00000   1.00000

 Dipole moment (field-independent basis, Debye):
    X=              3.3373    Y=             -0.0815    Z=             -0.0183  Tot=              3.3383
 Quadrupole moment (field-independent basis, Debye-Ang):
   XX=             44.7777   YY=            -14.3262   ZZ=            -19.9758
   XY=             -0.1345   XZ=             -0.0399   YZ=              0.0005

  Exact polarizability: 121.414   1.644  34.107   0.114   0.012  27.759
 Approx polarizability: 246.293   2.558  54.775   0.495   0.082  42.536

                      1                      2                      3
                      A                      A                      A
 Frequencies --     19.8505               151.0061               203.4446
 Red. masses --      1.1777                 4.6472                 4.5858
 Frc consts  --      0.0003                 0.0624                 0.1118
 IR Inten    --      1.4174                 4.6146                 7.1570

                      4                      5                      6
                      A                      A                      A
 Frequencies --    310.8405               335.5968               359.6415
 Red. masses --      2.1759                 1.8699                 2.8766
 Frc consts  --      0.1239                 0.1241                 0.2192
 IR Inten    --     17.4772                22.2639                 8.6541

                      7                      8                      9
                      A                      A                      A
 Frequencies --    564.8065               622.1358               772.9075
 Red. masses --      4.7197                 1.8044                 4.0305
 Frc consts  --      0.8871                 0.4115                 1.4186
 IR Inten    --     95.7603                 8.6790               193.6214

                     10                     11                     12
                      A                      A                      A
 Frequencies --    830.9498               871.1742               891.7453
 Red. masses --      2.0375                 3.2726                 1.1565
 Frc consts  --      0.8289                 1.4634                 0.5419
 IR Inten    --     89.6774                41.8760                49.1591

                     13                     14                     15
                      A                      A                      A
 Frequencies --    942.7505              1113.1280              1142.7137
 Red. masses --      1.0705                 1.2632                 1.2378
 Frc consts  --      0.5606                 0.9222                 0.9523
 IR Inten    --     66.4206               210.6372                 0.4328

                     16                     17                     18
                      A                      A                      A
 Frequencies --   1503.9329              1702.3690              2374.8142
 Red. masses --      8.1378                10.9157                 1.0764
 Frc consts  --     10.8446                18.6384                 3.5769
 IR Inten    --      6.0127              1155.7342               501.0944

                     19                     20                     21
                      A                      A                      A
 Frequencies --   2432.5254              2469.9811              2697.5896
 Red. masses --      1.0852                 1.0441                 1.0799
 Frc consts  --      3.7833                 3.7531                 4.6300
 IR Inten    --    501.4779              2226.3474               439.6654

 - Thermochemistry -
 -------------------
 Temperature   298.150 Kelvin.  Pressure   1.00000 Atm.
 Atom     1 has atomic number  6 and mass  12.00000

 Molecular mass:    64.03130 amu.
 Principal axes and moments of inertia in atomic units:
                           1         2         3
     Eigenvalues --    45.39238 785.17070 818.03031
           X            0.99991  -0.01371  -0.00010
           Y            0.01371   0.99991   0.00022
           Z            0.00010  -0.00022   1.00000
 This molecule is an asymmetric top.
 Rotational symmetry number  1.
 Rotational temperatures (Kelvin)      1.90811     0.11031     0.10588
 Rotational constants (GHZ):          39.75868     2.29853     2.20620
 Zero-point vibrational energy     133466.8 (Joules/Mol)
                                   31.89933 (Kcal/Mol)
 Warning -- explicit consideration of   7 degrees of freedom as
           vibrations may cause significant error
 Vibrational temperatures:     28.56   217.26   292.71   447.23   482.85
          (Kelvin)            517.44   812.63   895.11  1112.04  1195.55
                             1253.42  1283.02  1356.41  1601.54  1644.11
                             2163.82  2449.33  3416.82  3499.86  3553.75
                             3881.22

 Zero-point correction=                           0.050835 (Hartree/Particle)
 Thermal correction to Energy=                    0.057598
 Thermal correction to Enthalpy=                  0.058542
 Thermal correction to Gibbs Free Energy=         0.019742
 Sum of electronic and zero-point Energies=           -190.995669
 Sum of electronic and thermal Energies=              -190.988906
 Sum of electronic and thermal Enthalpies=            -190.987961
 Sum of electronic and thermal Free Energies=         -191.026761

                     E (Thermal)             CV                S
                      KCal/Mol        Cal/Mol-Kelvin    Cal/Mol-Kelvin
 Total                   36.143             22.015             81.661
 Electronic               0.000              0.000              1.377
 Translational            0.889              2.981             38.389
 Rotational               0.889              2.981             24.881
 Vibrational             34.366             16.054             17.014
 Vibration     1          0.593              1.986              6.649
 Vibration     2          0.618              1.902              2.660
 Vibration     3          0.639              1.835              2.102
 Vibration     4          0.700              1.653              1.358
 Vibration     5          0.717              1.604              1.233
 Vibration     6          0.734              1.555              1.124
 Vibration     7          0.921              1.107              0.514

 Normal termination of Gaussian 09 at Mon Jun 20 10:30:14 2016.
