 Gaussian 09, Revision E.01,
 Gaussian 09:  EM64L-G09RevE.01 30-Nov-2015

 ---------------------------------------------
 #p b3lyp/6-311++G(3df,2p) freq symmetry=Loose
 ---------------------------------------------

 ---------
 b3lyp opt
 ---------
 Symbolic Z-matrix:
 Charge =  0 Multiplicity = 3

                         Standard orientation:
 ---------------------------------------------------------------------
 Center     Atomic      Atomic             Coordinates (Angstroms)
 Number     Number       Type             X           Y           Z
 ---------------------------------------------------------------------
      1          6           0       -1.241356    0.877664   -0.316624
      2          6           0       -1.685444   -0.367705    0.336653
      3          1           0       -1.762768   -0.443842    1.418046
      4          6           0       -0.223054    0.107419   -0.231183
      5          1           0       -2.255133   -1.104797   -0.222844
      6          6           0        1.096507   -0.448345   -0.275293
      7          1           0        1.215904   -1.407008   -0.775739
      8          6           0        2.132211    0.146162    0.281335
      9          1           0        2.328810    1.064478    0.811205
 ---------------------------------------------------------------------

 SCF Done:  E(UB3LYP) =  -192.722254072     A.U. after   17 cycles

 The electronic state is 3-A.
 Alpha  occ. eigenvalues --  -10.22381 -10.22190 -10.21779 -10.21557 -10.20501
 Alpha  occ. eigenvalues --   -0.89284  -0.80933  -0.64637  -0.61729  -0.53694
 Alpha  occ. eigenvalues --   -0.47859  -0.45824  -0.41918  -0.39448  -0.32845
 Alpha  occ. eigenvalues --   -0.28099  -0.26022  -0.23215
 Alpha virt. eigenvalues --   -0.04760  -0.00515   0.00401   0.00940   0.02393
 Alpha virt. eigenvalues --    0.03082   0.04377   0.05575   0.07084   0.07322
 Alpha virt. eigenvalues --    0.08511   0.09583   0.09782   0.11065   0.11833

  Beta  occ. eigenvalues --  -10.21746 -10.21675 -10.21469 -10.20665 -10.19463
  Beta  occ. eigenvalues --   -0.88156  -0.79342  -0.62397  -0.59892  -0.52399
  Beta  occ. eigenvalues --   -0.46936  -0.45015  -0.39652  -0.36274  -0.31079
  Beta  occ. eigenvalues --   -0.25779
  Beta virt. eigenvalues --   -0.12218  -0.10415  -0.02719  -0.00339   0.00794
  Beta virt. eigenvalues --    0.01129   0.02871   0.03332   0.04606   0.06186
  Beta virt. eigenvalues --    0.07306   0.07657   0.09190   0.10039   0.10364

 Mulliken charges and spin densities:
               1          2
     1  C   -0.067344   0.560999
     2  C   -0.447948   0.345126
     3  H    0.152641  -0.013151
     4  C    0.326043   0.065217
     5  H    0.151338  -0.010971
     6  C   -0.091717  -0.155583
     7  H    0.155956   0.035846
     8  C   -0.389735   1.150193
     9  H    0.210767   0.022324
 Sum of Mulliken charges =  -0.00000   2.00000

 Dipole moment (field-independent basis, Debye):
    X=              0.5649    Y=             -1.2418    Z=              0.7340  Tot=              1.5492
 Quadrupole moment (field-independent basis, Debye-Ang):
   XX=            -30.6426   YY=            -30.1824   ZZ=            -30.3660
   XY=              3.6103   XZ=             -0.5881   YZ=              2.3504

  Exact polarizability:  90.404  -0.100  55.024   3.924  -1.610  46.798
 Approx polarizability: 139.098  -5.335  86.836   9.849  -2.657  68.491

                      1                      2                      3
                      A                      A                      A
 Frequencies --     81.5792               187.2926               284.3389
 Red. masses --      2.5381                 3.5881                 2.7139
 Frc consts  --      0.0100                 0.0742                 0.1293
 IR Inten    --      2.0113                 1.2711                 5.7166

                      4                      5                      6
                      A                      A                      A
 Frequencies --    438.2500               583.3975               705.4036
 Red. masses --      3.1339                 3.9095                 1.5865
 Frc consts  --      0.3546                 0.7840                 0.4651
 IR Inten    --      5.2090                11.0016                30.7394

                      7                      8                      9
                      A                      A                      A
 Frequencies --    739.2623               853.6404               877.4857
 Red. masses --      1.4412                 2.0917                 1.1875
 Frc consts  --      0.4641                 0.8981                 0.5387
 IR Inten    --      0.0744                25.5851                40.9368

                     10                     11                     12
                      A                      A                      A
 Frequencies --    970.1541               988.6863              1053.6608
 Red. masses --      3.0450                 1.3649                 3.5165
 Frc consts  --      1.6886                 0.7861                 2.3002
 IR Inten    --     14.8933                45.6764                 8.7446

                     13                     14                     15
                      A                      A                      A
 Frequencies --   1071.7841              1268.9512              1500.7311
 Red. masses --      1.4598                 1.1833                 1.1040
 Frc consts  --      0.9880                 1.1226                 1.4649
 IR Inten    --      2.0004                 1.1206                 5.3198

                     16                     17                     18
                      A                      A                      A
 Frequencies --   1585.1188              1864.4051              3055.9694
 Red. masses --      6.5871                10.8029                 1.0460
 Frc consts  --      9.7514                22.1245                 5.7552
 IR Inten    --      2.0573                16.3994                40.1548

                     19                     20                     21
                      A                      A                      A
 Frequencies --   3096.7191              3137.3124              3237.7539
 Red. masses --      1.0846                 1.1190                 1.1008
 Frc consts  --      6.1281                 6.4896                 6.7992
 IR Inten    --      2.2449                16.0068                 2.2050

 - Thermochemistry -
 -------------------
 Temperature   298.150 Kelvin.  Pressure   1.00000 Atm.
 Atom     1 has atomic number  6 and mass  12.00000

 Molecular mass:    64.03130 amu.
 Principal axes and moments of inertia in atomic units:
                           1         2         3
     Eigenvalues --    94.36656 520.19452 556.32666
           X            0.99939   0.03471  -0.00341
           Y           -0.03381   0.98828   0.14885
           Z            0.00854  -0.14864   0.98885
 This molecule is an asymmetric top.
 Rotational symmetry number  1.
 Rotational temperatures (Kelvin)      0.91784     0.16650     0.15569
 Rotational constants (GHZ):          19.12480     3.46936     3.24403
 Zero-point vibrational energy     164976.4 (Joules/Mol)
                                   39.43030 (Kcal/Mol)
 Warning -- explicit consideration of   5 degrees of freedom as
           vibrations may cause significant error
 Vibrational temperatures:    117.37   269.47   409.10   630.54   839.38
          (Kelvin)           1014.92  1063.63  1228.20  1262.50  1395.83
                             1422.50  1515.98  1542.06  1825.74  2159.21
                             2280.63  2682.46  4396.85  4455.48  4513.89
                             4658.40

 Zero-point correction=                           0.062836 (Hartree/Particle)
 Thermal correction to Energy=                    0.068395
 Thermal correction to Enthalpy=                  0.069339
 Thermal correction to Gibbs Free Energy=         0.033419
 Sum of electronic and zero-point Energies=           -192.659418
 Sum of electronic and thermal Energies=              -192.653859
 Sum of electronic and thermal Enthalpies=            -192.652915
 Sum of electronic and thermal Free Energies=         -192.688835

                     E (Thermal)             CV                S
                      KCal/Mol        Cal/Mol-Kelvin    Cal/Mol-Kelvin
 Total                   42.918             18.353             75.599
 Electronic               0.000              0.000              2.183
 Translational            0.889              2.981             38.389
 Rotational               0.889              2.981             24.816
 Vibrational             41.141             12.391             10.211
 Vibration     1          0.600              1.962              3.853
 Vibration     2          0.632              1.857              2.254
 Vibration     3          0.683              1.703              1.507
 Vibration     4          0.798              1.387              0.832
 Vibration     5          0.940              1.067              0.479

 Optimization completed.
    -- Stationary point found.
 Normal termination of Gaussian 09 at Mon Jun 20 03:44:03 2016.
