 Gaussian 09, Revision E.01,
 Gaussian 09:  EM64L-G09RevE.01 30-Nov-2015

 ---------------------------------------------
 #p b3lyp/6-311++G(3df,2p) freq symmetry=Loose
 ---------------------------------------------

 ---------
 b3lyp opt
 ---------
 Symbolic Z-matrix:
 Charge =  0 Multiplicity = 1

                         Standard orientation:
 ---------------------------------------------------------------------
 Center     Atomic      Atomic             Coordinates (Angstroms)
 Number     Number       Type             X           Y           Z
 ---------------------------------------------------------------------
      1          6           0        0.000000   -0.000000    0.679125
      2          6           0       -0.000000    1.253460   -0.169000
      3          6           0        0.000000   -1.253460   -0.169000
      4          1           0        0.877409   -0.004420    1.323769
      5          1           0       -0.877409    0.004420    1.323769
      6          1           0       -0.848412    1.460488   -0.828895
      7          1           0        0.848412   -1.460488   -0.828895
      8          6           0        0.899587    2.178508   -0.253041
      9          6           0       -0.899587   -2.178508   -0.253041
 ---------------------------------------------------------------------

 SCF Done:  E(RB3LYP) =  -192.709229102     A.U. after   11 cycles

 The electronic state is 1-A.
 Alpha  occ. eigenvalues --  -10.24869 -10.24296 -10.24296 -10.20044 -10.20042
 Alpha  occ. eigenvalues --   -0.86141  -0.80054  -0.71496  -0.55697  -0.54758
 Alpha  occ. eigenvalues --   -0.49077  -0.45623  -0.43375  -0.32248  -0.30973
 Alpha  occ. eigenvalues --   -0.30742  -0.29814
 Alpha virt. eigenvalues --   -0.12816  -0.10855  -0.02234  -0.00206   0.00338
 Alpha virt. eigenvalues --    0.00893   0.01322   0.03278   0.04814   0.05777
 Alpha virt. eigenvalues --    0.06647   0.07111   0.07371   0.09133   0.10453

 Mulliken charges:
               1
     1  C   -0.091034
     2  C    0.410068
     3  C    0.410068
     4  H    0.180819
     5  H    0.180819
     6  H    0.174788
     7  H    0.174788
     8  C   -0.720158
     9  C   -0.720158
 Sum of Mulliken charges =   0.00000

 Dipole moment (field-independent basis, Debye):
    X=              0.0000    Y=             -0.0000    Z=              0.6665  Tot=              0.6665
 Quadrupole moment (field-independent basis, Debye-Ang):
   XX=            -32.9230   YY=            -44.0529   ZZ=            -29.4599
   XY=             -9.3012   XZ=              0.0000   YZ=              0.0000

  Exact polarizability:  55.164  13.776  73.832   0.000   0.000  47.497
 Approx polarizability:  89.927  23.242 100.493  -0.000   0.000  69.634

                      1                      2                      3
                      A                      B                      A
 Frequencies --    108.1887               111.3886               137.2985
 Red. masses --      5.2370                 4.6847                 6.7792
 Frc consts  --      0.0361                 0.0342                 0.0753
 IR Inten    --     23.8836                38.3952                13.1414

                      4                      5                      6
                      B                      A                      B
 Frequencies --    172.5902               340.2686               640.0372
 Red. masses --      3.1216                 1.8282                 1.3979
 Frc consts  --      0.0548                 0.1247                 0.3374
 IR Inten    --      4.1053                 2.9674                29.4867

                      7                      8                      9
                      A                      B                      A
 Frequencies --    691.4135               808.6364               848.1055
 Red. masses --      2.0442                 1.1576                 2.3055
 Frc consts  --      0.5758                 0.4460                 0.9771
 IR Inten    --     24.3883                21.0356                 0.6384

                     10                     11                     12
                      B                      A                      B
 Frequencies --    964.6066              1001.5414              1092.1329
 Red. masses --      4.3719                 1.5871                 1.5131
 Frc consts  --      2.3968                 0.9380                 1.0633
 IR Inten    --     16.9207                 4.3736                 1.4325

                     13                     14                     15
                      A                      B                      A
 Frequencies --   1257.2461              1321.3788              1484.2505
 Red. masses --      1.0851                 1.2508                 1.0777
 Frc consts  --      1.0106                 1.2867                 1.3988
 IR Inten    --      0.0120                32.4907                 5.2884

                     16                     17                     18
                      B                      A                      A
 Frequencies --   1736.0992              1762.6110              3060.3034
 Red. masses --      9.4142                 8.4241                 1.0620
 Frc consts  --     16.7179                15.4202                 5.8601
 IR Inten    --    195.9273                 0.0258                 8.3956

                     19                     20                     21
                      B                      A                      B
 Frequencies --   3065.5687              3068.2567              3105.0182
 Red. masses --      1.0831                 1.0783                 1.1059
 Frc consts  --      5.9974                 5.9810                 6.2821
 IR Inten    --     41.8936                 0.4738                 1.0979

 - Thermochemistry -
 -------------------
 Temperature   298.150 Kelvin.  Pressure   1.00000 Atm.
 Atom     1 has atomic number  6 and mass  12.00000

 Molecular mass:    64.03130 amu.
 Principal axes and moments of inertia in atomic units:
                           1         2         3
     Eigenvalues --    77.10875 636.84100 650.14225
           X            0.28995   0.00000   0.95704
           Y            0.95704  -0.00000  -0.28995
           Z           -0.00000   1.00000  -0.00000
 This molecule is an asymmetric top.
 Rotational symmetry number  2.
 Rotational temperatures (Kelvin)      1.12327     0.13601     0.13322
 Rotational constants (GHZ):          23.40514     2.83390     2.77592
 Zero-point vibrational energy     160161.7 (Joules/Mol)
                                   38.27956 (Kcal/Mol)
 Warning -- explicit consideration of   5 degrees of freedom as
           vibrations may cause significant error
 Vibrational temperatures:    155.66   160.26   197.54   248.32   489.57
          (Kelvin)            920.87   994.79  1163.45  1220.23  1387.85
                             1440.99  1571.33  1808.89  1901.17  2135.50
                             2497.86  2536.00  4403.09  4410.66  4414.53
                             4467.42

 Zero-point correction=                           0.061002 (Hartree/Particle)
 Thermal correction to Energy=                    0.067444
 Thermal correction to Enthalpy=                  0.068388
 Thermal correction to Gibbs Free Energy=         0.032085
 Sum of electronic and zero-point Energies=           -192.648227
 Sum of electronic and thermal Energies=              -192.641785
 Sum of electronic and thermal Enthalpies=            -192.640841
 Sum of electronic and thermal Free Energies=         -192.677144

                     E (Thermal)             CV                S
                      KCal/Mol        Cal/Mol-Kelvin    Cal/Mol-Kelvin
 Total                   42.322             19.766             76.406
 Electronic               0.000              0.000              0.000
 Translational            0.889              2.981             38.389
 Rotational               0.889              2.981             23.594
 Vibrational             40.544             13.804             14.422
 Vibration     1          0.606              1.943              3.301
 Vibration     2          0.607              1.940              3.245
 Vibration     3          0.614              1.916              2.841
 Vibration     4          0.626              1.876              2.407
 Vibration     5          0.720              1.595              1.211

 Optimization completed.
    -- Stationary point found.
 Normal termination of Gaussian 09 at Tue Jul 19 23:05:23 2016.
