 Gaussian 09, Revision E.01,
 Gaussian 09:  EM64L-G09RevE.01 30-Nov-2015

 ---------------------------------------------
 #p b3lyp/6-311++G(3df,2p) freq symmetry=Loose
 ---------------------------------------------

 ---------
 b3lyp opt
 ---------
 Symbolic Z-matrix:
 Charge =  0 Multiplicity = 1

                         Standard orientation:
 ---------------------------------------------------------------------
 Center     Atomic      Atomic             Coordinates (Angstroms)
 Number     Number       Type             X           Y           Z
 ---------------------------------------------------------------------
      1          6           0        1.242927   -0.357039   -0.158846
      2          6           0       -0.832633    0.792738   -0.025984
      3          1           0        2.290027   -0.578982   -0.055988
      4          1           0        1.150650    1.748248    0.392681
      5          1           0       -1.494376    1.628085    0.149024
      6          6           0       -1.146867   -0.535469   -0.079474
      7          6           0        0.131908   -1.084787    0.227084
      8          6           0        0.629174    0.891723   -0.019714
      9          1           0       -2.093358   -1.040348   -0.144116
 ---------------------------------------------------------------------

 SCF Done:  E(RB3LYP) =  -192.824782750     A.U. after   15 cycles

 The electronic state is 1-A.
 Alpha  occ. eigenvalues --  -10.23349 -10.21042 -10.19220 -10.18643 -10.18572
 Alpha  occ. eigenvalues --   -0.90410  -0.73905  -0.68895  -0.55439  -0.55355
 Alpha  occ. eigenvalues --   -0.49041  -0.44259  -0.40906  -0.39273  -0.37337
 Alpha  occ. eigenvalues --   -0.23827  -0.23562
 Alpha virt. eigenvalues --   -0.11744  -0.00674   0.01119   0.01611   0.01889
 Alpha virt. eigenvalues --    0.02820   0.03497   0.04938   0.06347   0.08393
 Alpha virt. eigenvalues --    0.08514   0.09374   0.10362   0.10818   0.12071

 Mulliken charges:
               1
     1  C   -0.276654
     2  C   -0.236476
     3  H    0.163025
     4  H    0.147970
     5  H    0.169055
     6  C   -0.042687
     7  C   -0.040121
     8  C   -0.085258
     9  H    0.201146
 Sum of Mulliken charges =  -0.00000

 Dipole moment (field-independent basis, Debye):
    X=             -0.0379    Y=              0.9634    Z=             -0.1529  Tot=              0.9762
 Quadrupole moment (field-independent basis, Debye-Ang):
   XX=            -25.8721   YY=            -28.3738   ZZ=            -33.4560
   XY=              0.7157   XZ=              0.4078   YZ=              2.3496

  Exact polarizability:  65.420  -0.857  70.393  -0.175  -3.680  40.187
 Approx polarizability: 102.229  -1.504 152.190  -1.560  -9.850  60.531

                      1                      2                      3
                      A                      A                      A
 Frequencies --    274.4287               519.7538               606.9331
 Red. masses --      2.0079                 2.8325                 3.6162
 Frc consts  --      0.0891                 0.4508                 0.7848
 IR Inten    --      0.8689               117.5364                 3.1557

                      4                      5                      6
                      A                      A                      A
 Frequencies --    611.5449               739.9739               792.5525
 Red. masses --      2.5206                 1.5208                 1.9318
 Frc consts  --      0.5554                 0.4906                 0.7149
 IR Inten    --      6.2094               104.7065                14.9891

                      7                      8                      9
                      A                      A                      A
 Frequencies --    864.1548               892.3476               963.4287
 Red. masses --      1.5985                 1.7046                 1.7534
 Frc consts  --      0.7033                 0.7997                 0.9589
 IR Inten    --     10.5426                14.0350                17.2534

                     10                     11                     12
                      A                      A                      A
 Frequencies --   1031.8794              1090.1392              1109.5091
 Red. masses --      4.8454                 1.2166                 1.1186
 Frc consts  --      3.0398                 0.8518                 0.8113
 IR Inten    --     27.3133                11.1865                 3.7641

                     13                     14                     15
                      A                      A                      A
 Frequencies --   1231.0455              1260.7576              1352.7057
 Red. masses --      1.4643                 3.9389                 2.3676
 Frc consts  --      1.3075                 3.6888                 2.5525
 IR Inten    --     15.2113                16.2043                11.6088

                     16                     17                     18
                      A                      A                      A
 Frequencies --   1397.4923              1503.6532              3156.0331
 Red. masses --      3.5441                 3.9459                 1.0885
 Frc consts  --      4.0781                 5.2565                 6.3877
 IR Inten    --     30.4316                 3.1942                 3.1399

                     19                     20                     21
                      A                      A                      A
 Frequencies --   3198.6471              3253.7608              3263.5059
 Red. masses --      1.0926                 1.0970                 1.0988
 Frc consts  --      6.5865                 6.8428                 6.8952
 IR Inten    --      4.4975                 0.2613                 0.4125

 - Thermochemistry -
 -------------------
 Temperature   298.150 Kelvin.  Pressure   1.00000 Atm.
 Atom     1 has atomic number  6 and mass  12.00000

 Molecular mass:    64.03130 amu.
 Principal axes and moments of inertia in atomic units:
                           1         2         3
     Eigenvalues --   158.93181 221.68254 372.20043
           X            0.99970   0.02348   0.00686
           Y           -0.02366   0.99937   0.02645
           Z           -0.00624  -0.02661   0.99963
 This molecule is an asymmetric top.
 Rotational symmetry number  1.
 Rotational temperatures (Kelvin)      0.54497     0.39071     0.23271
 Rotational constants (GHZ):          11.35544     8.14111     4.84884
 Zero-point vibrational energy     174141.9 (Joules/Mol)
                                   41.62091 (Kcal/Mol)
 Warning -- explicit consideration of   4 degrees of freedom as
           vibrations may cause significant error
 Vibrational temperatures:    394.84   747.81   873.24   879.88  1064.66
          (Kelvin)           1140.30  1243.32  1283.89  1386.16  1484.64
                             1568.47  1596.33  1771.20  1813.95  1946.24
                             2010.68  2163.42  4540.82  4602.13  4681.43
                             4695.45

 Zero-point correction=                           0.066327 (Hartree/Particle)
 Thermal correction to Energy=                    0.070602
 Thermal correction to Enthalpy=                  0.071547
 Thermal correction to Gibbs Free Energy=         0.039836
 Sum of electronic and zero-point Energies=           -192.758456
 Sum of electronic and thermal Energies=              -192.754180
 Sum of electronic and thermal Enthalpies=            -192.753236
 Sum of electronic and thermal Free Energies=         -192.784946

                     E (Thermal)             CV                S
                      KCal/Mol        Cal/Mol-Kelvin    Cal/Mol-Kelvin
 Total                   44.304             15.374             66.739
 Electronic               0.000              0.000              0.000
 Translational            0.889              2.981             38.389
 Rotational               0.889              2.981             24.087
 Vibrational             42.526              9.413              4.263
 Vibration     1          0.677              1.721              1.568
 Vibration     2          0.875              1.206              0.611
 Vibration     3          0.966              1.017              0.438
 Vibration     4          0.971              1.007              0.430

 Normal termination of Gaussian 09 at Wed Jun 22 02:46:35 2016.
