 Gaussian 09, Revision E.01,
 Gaussian 09:  EM64L-G09RevE.01 30-Nov-2015

 ---------------------------------------------
 #p b3lyp/6-311++G(3df,2p) freq symmetry=Loose
 ---------------------------------------------

 ---------
 b3lyp opt
 ---------
 Symbolic Z-matrix:
 Charge =  0 Multiplicity = 3

                         Standard orientation:
 ---------------------------------------------------------------------
 Center     Atomic      Atomic             Coordinates (Angstroms)
 Number     Number       Type             X           Y           Z
 ---------------------------------------------------------------------
      1          6           0       -0.354114   -0.843743   -0.446815
      2          6           0       -1.540257   -0.144096    0.250524
      3          1           0       -1.664696   -0.502375    1.268317
      4          1           0       -0.603203    1.581635   -0.808795
      5          1           0       -2.480293   -0.060009   -0.285560
      6          6           0       -0.489446    0.835305   -0.028877
      7          6           0        0.687405   -0.000261    0.034307
      8          6           0        2.012191    0.081012    0.141946
      9          1           0        2.853515   -0.588545    0.119531
 ---------------------------------------------------------------------

 SCF Done:  E(UB3LYP) =  -192.724149245     A.U. after   17 cycles

 The electronic state is 3-A.
 Alpha  occ. eigenvalues --  -10.22485 -10.22434 -10.22080 -10.21925 -10.21476
 Alpha  occ. eigenvalues --   -0.94083  -0.77173  -0.66661  -0.61178  -0.53398
 Alpha  occ. eigenvalues --   -0.49613  -0.44921  -0.41895  -0.40512  -0.34404
 Alpha  occ. eigenvalues --   -0.27471  -0.24911  -0.23146
 Alpha virt. eigenvalues --   -0.02569  -0.01092   0.00867   0.01205   0.02000
 Alpha virt. eigenvalues --    0.03251   0.04667   0.06612   0.06928   0.08023
 Alpha virt. eigenvalues --    0.08710   0.09458   0.10822   0.11601   0.11913

  Beta  occ. eigenvalues --  -10.22365 -10.22218 -10.21490 -10.21424 -10.19766
  Beta  occ. eigenvalues --   -0.93050  -0.74606  -0.64594  -0.59973  -0.51648
  Beta  occ. eigenvalues --   -0.48219  -0.44079  -0.41088  -0.39005  -0.32198
  Beta  occ. eigenvalues --   -0.23248
  Beta virt. eigenvalues --   -0.12093  -0.10070  -0.01593  -0.00528   0.01176
  Beta virt. eigenvalues --    0.01381   0.03053   0.03426   0.05016   0.07090
  Beta virt. eigenvalues --    0.07582   0.08244   0.09131   0.10393   0.11304

 Mulliken charges and spin densities:
               1          2
     1  C   -0.301611   0.617194
     2  C   -0.492987  -0.003655
     3  H    0.198189   0.036733
     4  H    0.180429   0.005503
     5  H    0.140391   0.011202
     6  C   -0.238972   0.147721
     7  C    0.572561  -0.312197
     8  C   -0.270630   1.486544
     9  H    0.212631   0.010955
 Sum of Mulliken charges =  -0.00000   2.00000

 Dipole moment (field-independent basis, Debye):
    X=             -0.6603    Y=              0.7247    Z=              0.4621  Tot=              1.0839
 Quadrupole moment (field-independent basis, Debye-Ang):
   XX=            -25.5770   YY=            -32.4053   ZZ=            -31.3536
   XY=             -2.2957   XZ=             -0.1393   YZ=             -2.9010

  Exact polarizability:  87.814   2.579  57.631   3.637   4.730  45.351
 Approx polarizability: 132.102   6.949 107.983   7.117  14.147  66.719

                      1                      2                      3
                      A                      A                      A
 Frequencies --    258.1465               327.3984               521.3543
 Red. masses --      2.8865                 2.9370                 3.2863
 Frc consts  --      0.1133                 0.1855                 0.5263
 IR Inten    --      5.3798                13.9355                26.8973

                      4                      5                      6
                      A                      A                      A
 Frequencies --    543.6968               598.0964               697.0322
 Red. masses --      1.6603                 2.6208                 3.0359
 Frc consts  --      0.2892                 0.5524                 0.8691
 IR Inten    --     43.0735                27.2302                45.5746

                      7                      8                      9
                      A                      A                      A
 Frequencies --    799.0189               870.4545               943.9558
 Red. masses --      2.1138                 1.5918                 2.0588
 Frc consts  --      0.7951                 0.7106                 1.0809
 IR Inten    --     21.4668                46.2955                 1.6429

                     10                     11                     12
                      A                      A                      A
 Frequencies --    980.3306              1035.8497              1064.2970
 Red. masses --      2.2370                 1.4616                 1.8793
 Frc consts  --      1.2666                 0.9240                 1.2542
 IR Inten    --      5.1477                25.9010                 3.4623

                     13                     14                     15
                      A                      A                      A
 Frequencies --   1132.8692              1193.3711              1299.7662
 Red. masses --      1.3840                 2.2640                 1.7126
 Frc consts  --      1.0465                 1.8997                 1.7047
 IR Inten    --      8.7127                 0.1611                 0.6772

                     16                     17                     18
                      A                      A                      A
 Frequencies --   1483.4547              1517.5768              3079.6077
 Red. masses --      1.5275                 2.9290                 1.0565
 Frc consts  --      1.9806                 3.9744                 5.9034
 IR Inten    --     11.4413                19.0377                12.7303

                     19                     20                     21
                      A                      A                      A
 Frequencies --   3118.4634              3149.6790              3263.8560
 Red. masses --      1.0905                 1.1113                 1.0968
 Frc consts  --      6.2480                 6.4957                 6.8843
 IR Inten    --      4.9572                10.0023                 4.0672

 - Thermochemistry -
 -------------------
 Temperature   298.150 Kelvin.  Pressure   1.00000 Atm.
 Atom     1 has atomic number  6 and mass  12.00000

 Molecular mass:    64.03130 amu.
 Principal axes and moments of inertia in atomic units:
                           1         2         3
     Eigenvalues --    93.28833 393.47587 447.25162
           X            0.99979  -0.02034  -0.00362
           Y            0.01969   0.99131  -0.13006
           Z            0.00624   0.12996   0.99150
 This molecule is an asymmetric top.
 Rotational symmetry number  1.
 Rotational temperatures (Kelvin)      0.92845     0.22012     0.19366
 Rotational constants (GHZ):          19.34584     4.58666     4.03518
 Zero-point vibrational energy     166749.1 (Joules/Mol)
                                   39.85399 (Kcal/Mol)
 Warning -- explicit consideration of   5 degrees of freedom as
           vibrations may cause significant error
 Vibrational temperatures:    371.41   471.05   750.11   782.26   860.53
          (Kelvin)           1002.87  1149.61  1252.39  1358.14  1410.48
                             1490.35  1531.28  1629.94  1716.99  1870.07
                             2134.36  2183.45  4430.86  4486.77  4531.68
                             4695.95

 Zero-point correction=                           0.063511 (Hartree/Particle)
 Thermal correction to Energy=                    0.068229
 Thermal correction to Enthalpy=                  0.069173
 Thermal correction to Gibbs Free Energy=         0.035609
 Sum of electronic and zero-point Energies=           -192.660638
 Sum of electronic and thermal Energies=              -192.655920
 Sum of electronic and thermal Enthalpies=            -192.654976
 Sum of electronic and thermal Free Energies=         -192.688540

                     E (Thermal)             CV                S
                      KCal/Mol        Cal/Mol-Kelvin    Cal/Mol-Kelvin
 Total                   42.814             17.007             70.641
 Electronic               0.000              0.000              2.183
 Translational            0.889              2.981             38.389
 Rotational               0.889              2.981             24.310
 Vibrational             41.037             11.045              5.758
 Vibration     1          0.667              1.749              1.674
 Vibration     2          0.711              1.621              1.273
 Vibration     3          0.876              1.203              0.607
 Vibration     4          0.899              1.153              0.557
 Vibration     5          0.956              1.036              0.453

 Optimization completed.
    -- Stationary point found.
 Normal termination of Gaussian 09 at Mon Jun 20 03:05:46 2016.
