 Gaussian 09, Revision E.01,
 Gaussian 09:  EM64L-G09RevE.01 30-Nov-2015

 ------------------------------------------------------
 #p b3lyp/6-311++G(3df,2p) freq IOp(2/17=3) IOp(2/18=3)
 ------------------------------------------------------

 ---------
 b3lyp opt
 ---------
 Symbolic Z-matrix:
 Charge =  2 Multiplicity = 3

                         Standard orientation:
 ---------------------------------------------------------------------
 Center     Atomic      Atomic             Coordinates (Angstroms)
 Number     Number       Type             X           Y           Z
 ---------------------------------------------------------------------
      1          6           0        0.179023   -1.086476    0.000000
      2          6           0        0.714626    0.126612    0.000000
      3          1           0       -0.481708   -2.901712   -0.946613
      4          1           0        1.823213    0.159636    0.000000
      5          6           0        0.000000    1.311262    0.000000
      6          6           0       -0.568387    2.407604    0.000000
      7          1           0       -1.072081    3.365745    0.000000
      8          6           0       -0.289854   -2.379341    0.000000
      9          1           0       -0.481708   -2.901712    0.946613
 ---------------------------------------------------------------------

 SCF Done:  E(UB3LYP) =  -191.957185587     A.U. after   20 cycles

 The electronic state is 3-A".
 Alpha  occ. eigenvalues --  -10.76117 -10.72194 -10.68926 -10.67564 -10.66763
 Alpha  occ. eigenvalues --   -1.32186  -1.25221  -1.19738  -1.05647  -0.97388
 Alpha  occ. eigenvalues --   -0.94391  -0.93854  -0.92443  -0.81561  -0.79154
 Alpha  occ. eigenvalues --   -0.73458  -0.73188
 Alpha virt. eigenvalues --   -0.51609  -0.51267  -0.40914  -0.34967  -0.33672
 Alpha virt. eigenvalues --   -0.28081  -0.26644  -0.25885  -0.25531  -0.24233
 Alpha virt. eigenvalues --   -0.23846  -0.22078  -0.21517  -0.20814  -0.20147

  Beta  occ. eigenvalues --  -10.74756 -10.71461 -10.69075 -10.66882 -10.66291
  Beta  occ. eigenvalues --   -1.29479  -1.22254  -1.17319  -1.04061  -0.95775
  Beta  occ. eigenvalues --   -0.93456  -0.92568  -0.90594  -0.78272  -0.72564
  Beta virt. eigenvalues --   -0.65854  -0.62664  -0.47358  -0.45195  -0.40004
  Beta virt. eigenvalues --   -0.32782  -0.31897  -0.27640  -0.26271  -0.25374
  Beta virt. eigenvalues --   -0.25157  -0.23565  -0.23113  -0.21712  -0.20372

 Mulliken charges and spin densities:
               1          2
     1  C    0.729615   0.831443
     2  C   -0.373499   0.102247
     3  H    0.307224   0.011196
     4  H    0.265263   0.035834
     5  C    0.010369   0.273333
     6  C    0.542976   0.290201
     7  H    0.424622  -0.010985
     8  C   -0.213793   0.455536
     9  H    0.307224   0.011196
 Sum of Mulliken charges =   2.00000   2.00000

 Dipole moment (field-independent basis, Debye):
    X=             -0.6737    Y=             -2.1679    Z=              0.0000  Tot=              2.2702
 Quadrupole moment (field-independent basis, Debye-Ang):
   XX=            -18.0607   YY=             26.5639   ZZ=            -22.9774
   XY=             -3.0299   XZ=             -0.0000   YZ=              0.0000

  Exact polarizability:  36.924  -3.974 104.023  -0.000   0.000  27.955
 Approx polarizability:  58.134 -10.062 161.356  -0.000   0.000  39.331

                      1                      2                      3
                     A'                     A"                     A"
 Frequencies --     86.6571               194.2787               300.8965
 Red. masses --      4.2154                 1.1177                 2.1491
 Frc consts  --      0.0187                 0.0249                 0.1146
 IR Inten    --      9.0082                 2.8810                15.3130

                      4                      5                      6
                     A'                     A"                     A'
 Frequencies --    325.3223               331.7582               492.4176
 Red. masses --      4.7512                 2.8485                 6.1916
 Frc consts  --      0.2963                 0.1847                 0.8846
 IR Inten    --      7.6383                13.9004                 4.0774

                      7                      8                      9
                     A'                     A"                     A"
 Frequencies --    724.6374               747.6984               807.8940
 Red. masses --      1.2448                 1.6191                 1.4773
 Frc consts  --      0.3851                 0.5333                 0.5681
 IR Inten    --     40.5755                 6.0303                20.6260

                     10                     11                     12
                     A'                     A"                     A'
 Frequencies --    836.3794               963.1118              1001.0453
 Red. masses --      4.8357                 1.4563                 1.3656
 Frc consts  --      1.9930                 0.7959                 0.8063
 IR Inten    --      8.6157                 1.3788                22.6602

                     13                     14                     15
                     A'                     A'                     A'
 Frequencies --   1057.8989              1267.7765              1392.6303
 Red. masses --      1.9952                 1.7795                 1.1623
 Frc consts  --      1.3156                 1.6851                 1.3281
 IR Inten    --     60.3175                67.8041                22.7547

                     16                     17                     18
                     A'                     A'                     A'
 Frequencies --   1773.7554              2105.4420              2890.4343
 Red. masses --     10.4468                 6.2097                 1.0749
 Frc consts  --     19.3651                16.2184                 5.2913
 IR Inten    --    254.7148               102.5681               288.0458

                     19                     20                     21
                     A'                     A"                     A'
 Frequencies --   2991.7661              3097.1731              3271.1375
 Red. masses --      1.0496                 1.1205                 1.1640
 Frc consts  --      5.5350                 6.3330                 7.3384
 IR Inten    --    365.0893               139.9548               286.1855

 - Thermochemistry -
 -------------------
 Temperature   298.150 Kelvin.  Pressure   1.00000 Atm.
 Atom     1 has atomic number  6 and mass  12.00000

 Molecular mass:    64.03130 amu.
 Principal axes and moments of inertia in atomic units:
                           1         2         3
     Eigenvalues --    63.01766 725.48900 775.60671
           X           -0.05359   0.99856   0.00000
           Y            0.99856   0.05359   0.00000
           Z           -0.00000   0.00000   1.00000
 This molecule is an asymmetric top.
 Rotational symmetry number  1.
 Rotational temperatures (Kelvin)      1.37444     0.11939     0.11167
 Rotational constants (GHZ):          28.63866     2.48762     2.32688
 Zero-point vibrational energy     159462.9 (Joules/Mol)
                                   38.11254 (Kcal/Mol)
 Warning -- explicit consideration of   6 degrees of freedom as
           vibrations may cause significant error
 Vibrational temperatures:    124.68   279.52   432.92   468.07   477.33
          (Kelvin)            708.48  1042.59  1075.77  1162.38  1203.36
                             1385.70  1440.28  1522.08  1824.05  2003.68
                             2552.04  3029.26  4158.69  4304.48  4456.14
                             4706.43

 Zero-point correction=                           0.060736 (Hartree/Particle)
 Thermal correction to Energy=                    0.066793
 Thermal correction to Enthalpy=                  0.067737
 Thermal correction to Gibbs Free Energy=         0.030945
 Sum of electronic and zero-point Energies=           -191.896449
 Sum of electronic and thermal Energies=              -191.890393
 Sum of electronic and thermal Enthalpies=            -191.889449
 Sum of electronic and thermal Free Energies=         -191.926241

                     E (Thermal)             CV                S
                      KCal/Mol        Cal/Mol-Kelvin    Cal/Mol-Kelvin
 Total                   41.913             20.121             77.436
 Electronic               0.000              0.000              2.183
 Translational            0.889              2.981             38.389
 Rotational               0.889              2.981             25.076
 Vibrational             40.136             14.159             11.788
 Vibration     1          0.601              1.958              3.734
 Vibration     2          0.635              1.848              2.187
 Vibration     3          0.693              1.672              1.412
 Vibration     4          0.709              1.625              1.283
 Vibration     5          0.714              1.612              1.252
 Vibration     6          0.848              1.267              0.677

 Normal termination of Gaussian 09 at Thu Jan 31 08:05:42 2019.
