 Gaussian 09, Revision E.01,
 Gaussian 09:  EM64L-G09RevE.01 30-Nov-2015

 ---------------------------------------------
 #p b3lyp/6-311++G(3df,2p) freq symmetry=Loose
 ---------------------------------------------

 ---------
 b3lyp opt
 ---------
 Symbolic Z-matrix:
 Charge =  3 Multiplicity = 2

                         Standard orientation:
 ---------------------------------------------------------------------
 Center     Atomic      Atomic             Coordinates (Angstroms)
 Number     Number       Type             X           Y           Z
 ---------------------------------------------------------------------
      1          6           0       -2.217574    0.216745    0.000100
      2          1           0       -2.240457    1.364935    0.497087
      3          1           0       -2.242251    1.364867   -0.496912
      4          1           0       -3.210751   -0.250542    0.000946
      5          6           0       -1.027945   -0.485185    0.000024
      6          1           0       -1.122598   -1.605479    0.000573
      7          6           0        0.303328   -0.114011   -0.000457
      8          6           0        1.571339    0.055835   -0.000607
      9          6           0        2.840195    0.180986    0.000658
 ---------------------------------------------------------------------

 SCF Done:  E(UB3LYP) =  -191.058548570     A.U. after   22 cycles

 The electronic state is 2-A.
 Alpha  occ. eigenvalues --  -11.06884 -11.00852 -10.93008 -10.92586 -10.92520
 Alpha  occ. eigenvalues --   -1.54240  -1.50207  -1.42440  -1.34902  -1.23255
 Alpha  occ. eigenvalues --   -1.14109  -1.10677  -1.08121  -1.06841  -1.03593
 Alpha  occ. eigenvalues --   -0.99517
 Alpha virt. eigenvalues --   -0.86069  -0.84154  -0.72633  -0.60666  -0.57546
 Alpha virt. eigenvalues --   -0.56776  -0.49965  -0.48003  -0.46627  -0.45148
 Alpha virt. eigenvalues --   -0.41952  -0.41608  -0.39313  -0.37487  -0.36805

  Beta  occ. eigenvalues --  -11.03607 -11.01273 -10.93016 -10.92789 -10.92348
  Beta  occ. eigenvalues --   -1.54319  -1.49051  -1.41450  -1.34761  -1.23614
  Beta  occ. eigenvalues --   -1.14620  -1.08605  -1.06576  -1.02347  -0.99094
  Beta virt. eigenvalues --   -0.85200  -0.84534  -0.81714  -0.70713  -0.59221
  Beta virt. eigenvalues --   -0.57235  -0.54940  -0.50011  -0.48244  -0.47607
  Beta virt. eigenvalues --   -0.45110  -0.41986  -0.41626  -0.39250  -0.37513

 Mulliken charges and spin densities:
               1          2
     1  C   -0.385516  -0.297412
     2  H    0.310598  -0.027125
     3  H    0.310651  -0.027134
     4  H    0.352227   0.007578
     5  C    0.667258   0.098878
     6  H    0.300929  -0.015167
     7  C   -0.043521  -0.181002
     8  C    0.888966   0.042121
     9  C    0.598406   1.399263
 Sum of Mulliken charges =   3.00000   1.00000

 Dipole moment (field-independent basis, Debye):
    X=             -1.2937    Y=              2.4402    Z=              0.0023  Tot=              2.7619
 Quadrupole moment (field-independent basis, Debye-Ang):
   XX=             52.2131   YY=            -11.6841   ZZ=            -22.5346
   XY=             -4.6058   XZ=              0.0038   YZ=             -0.0010

  Exact polarizability: 117.256  -3.238  34.023   0.005  -0.000  24.118
 Approx polarizability: 301.720  -3.406  54.637   0.039   0.002  34.445

                      1                      2                      3
                      A                      A                      A
 Frequencies --    161.0584               177.9706               305.5091
 Red. masses --      4.1848                 4.0600                 4.5666
 Frc consts  --      0.0640                 0.0758                 0.2511
 IR Inten    --     20.8191                 3.1938                18.3278

                      4                      5                      6
                      A                      A                      A
 Frequencies --    353.0973               450.4117               563.8670
 Red. masses --      2.5877                 1.1029                 4.1938
 Frc consts  --      0.1901                 0.1318                 0.7856
 IR Inten    --     16.9845                 0.9819                14.0035

                      7                      8                      9
                      A                      A                      A
 Frequencies --    585.6207               746.3889               800.5385
 Red. masses --      2.5263                 3.6698                 1.3427
 Frc consts  --      0.5105                 1.2045                 0.5070
 IR Inten    --     24.7784                91.4251               130.6195

                     10                     11                     12
                      A                      A                      A
 Frequencies --    904.3575               949.4726              1136.9558
 Red. masses --      1.9543                 1.3918                 1.1694
 Frc consts  --      0.9417                 0.7393                 0.8906
 IR Inten    --      4.9041                 3.2629               937.4588

                     13                     14                     15
                      A                      A                      A
 Frequencies --   1164.2247              1357.4283              1518.2394
 Red. masses --      1.3958                 2.7053                 1.1181
 Frc consts  --      1.1147                 2.9370                 1.5185
 IR Inten    --    152.5614                21.4131               290.4683

                     16                     17                     18
                      A                      A                      A
 Frequencies --   1526.5696              1831.7253              2118.3060
 Red. masses --      8.4202                 1.0247                10.9512
 Frc consts  --     11.5613                 2.0256                28.9526
 IR Inten    --     15.7720               197.9123              1151.6736

                     19                     20                     21
                      A                      A                      A
 Frequencies --   2389.6077              2763.6891              3062.0820
 Red. masses --      1.0716                 1.0815                 1.1000
 Frc consts  --      3.6053                 4.8670                 6.0766
 IR Inten    --    176.9308               377.2018               287.6570

 - Thermochemistry -
 -------------------
 Temperature   298.150 Kelvin.  Pressure   1.00000 Atm.
 Atom     1 has atomic number  6 and mass  12.00000

 Molecular mass:    64.03130 amu.
 Principal axes and moments of inertia in atomic units:
                           1         2         3
     Eigenvalues --    38.62221 786.97739 822.04357
           X            0.99985  -0.01719  -0.00001
           Y            0.01719   0.99985  -0.00008
           Z            0.00002   0.00008   1.00000
 This molecule is an asymmetric top.
 Rotational symmetry number  1.
 Rotational temperatures (Kelvin)      2.24259     0.11006     0.10536
 Rotational constants (GHZ):          46.72806     2.29326     2.19543
 Zero-point vibrational energy     148738.4 (Joules/Mol)
                                   35.54933 (Kcal/Mol)
 Warning -- explicit consideration of   7 degrees of freedom as
           vibrations may cause significant error
 Vibrational temperatures:    231.73   256.06   439.56   508.03   648.04
          (Kelvin)            811.28   842.58  1073.89  1151.79  1301.17
                             1366.08  1635.82  1675.06  1953.03  2184.41
                             2196.39  2635.44  3047.77  3438.11  3976.33
                             4405.65

 Zero-point correction=                           0.056651 (Hartree/Particle)
 Thermal correction to Energy=                    0.062420
 Thermal correction to Enthalpy=                  0.063364
 Thermal correction to Gibbs Free Energy=         0.027934
 Sum of electronic and zero-point Energies=           -191.001897
 Sum of electronic and thermal Energies=              -190.996129
 Sum of electronic and thermal Enthalpies=            -190.995184
 Sum of electronic and thermal Free Energies=         -191.030614

                     E (Thermal)             CV                S
                      KCal/Mol        Cal/Mol-Kelvin    Cal/Mol-Kelvin
 Total                   39.169             19.582             74.569
 Electronic               0.000              0.000              1.377
 Translational            0.889              2.981             38.389
 Rotational               0.889              2.981             24.728
 Vibrational             37.392             13.620             10.074
 Vibration     1          0.622              1.890              2.537
 Vibration     2          0.628              1.869              2.350
 Vibration     3          0.696              1.663              1.387
 Vibration     4          0.729              1.569              1.152
 Vibration     5          0.809              1.360              0.795
 Vibration     6          0.920              1.109              0.516
 Vibration     7          0.943              1.062              0.475

 Normal termination of Gaussian 09 at Mon Jun 20 10:48:25 2016.
