 Gaussian 09, Revision E.01,
 Gaussian 09:  EM64L-G09RevE.01 30-Nov-2015

 ---------------------------------------------
 #p b3lyp/6-311++G(3df,2p) freq symmetry=Loose
 ---------------------------------------------

 ---------
 b3lyp opt
 ---------
 Symbolic Z-matrix:
 Charge =  3 Multiplicity = 2

                         Standard orientation:
 ---------------------------------------------------------------------
 Center     Atomic      Atomic             Coordinates (Angstroms)
 Number     Number       Type             X           Y           Z
 ---------------------------------------------------------------------
      1          1           0        1.242118   -1.219285   -0.938328
      2          6           0       -2.625498   -0.401237    0.253847
      3          6           0        1.073923   -0.316433   -0.253976
      4          1           0       -1.853473    1.464098   -0.240396
      5          6           0       -1.476005    0.398029   -0.072365
      6          6           0       -0.197332    0.057245   -0.106649
      7          6           0        2.363343    0.133085    0.240234
      8          1           0        2.996569    0.816806   -0.375035
      9          1           0        2.784208   -0.285757    1.187216
 ---------------------------------------------------------------------

 SCF Done:  E(UB3LYP) =  -191.085257962     A.U. after   24 cycles

 The electronic state is 2-A.
 Alpha  occ. eigenvalues --  -11.04490 -10.98647 -10.98375 -10.95201 -10.91879
 Alpha  occ. eigenvalues --   -1.54925  -1.49527  -1.39260  -1.31343  -1.19546
 Alpha  occ. eigenvalues --   -1.16453  -1.13980  -1.12857  -1.04058  -0.99785
 Alpha  occ. eigenvalues --   -0.96696
 Alpha virt. eigenvalues --   -0.81620  -0.80689  -0.78893  -0.73529  -0.62413
 Alpha virt. eigenvalues --   -0.51584  -0.48590  -0.46549  -0.45029  -0.42825
 Alpha virt. eigenvalues --   -0.42133  -0.40583  -0.39291  -0.38272  -0.38221

  Beta  occ. eigenvalues --  -11.03938 -10.98649 -10.98183 -10.94623 -10.91574
  Beta  occ. eigenvalues --   -1.53531  -1.48245  -1.38339  -1.30385  -1.18869
  Beta  occ. eigenvalues --   -1.15439  -1.13280  -1.11900  -1.01370  -0.98474
  Beta virt. eigenvalues --   -0.86652  -0.81227  -0.80004  -0.78101  -0.70175
  Beta virt. eigenvalues --   -0.60714  -0.50901  -0.48109  -0.46105  -0.44587
  Beta virt. eigenvalues --   -0.42564  -0.41636  -0.40308  -0.38860  -0.37958

 Mulliken charges and spin densities:
               1          2
     1  H    0.308382   0.000158
     2  C    0.462498   0.295009
     3  C    0.120719   0.330521
     4  H    0.306671   0.023858
     5  C    0.223736   0.067776
     6  C    0.815002   0.239643
     7  C    0.047766   0.004972
     8  H    0.355957   0.014399
     9  H    0.359270   0.023664
 Sum of Mulliken charges =   3.00000   1.00000

 Dipole moment (field-independent basis, Debye):
    X=              2.7638    Y=              0.4247    Z=              0.0486  Tot=              2.7966
 Quadrupole moment (field-independent basis, Debye-Ang):
   XX=             45.3802   YY=            -14.4104   ZZ=            -19.3721
   XY=             -1.9245   XZ=              1.3567   YZ=              0.6671

  Exact polarizability: 111.527   2.726  33.530  -2.847  -0.485  28.664
 Approx polarizability: 216.456   8.264  55.549 -17.023  -1.943  43.952

                      1                      2                      3
                      A                      A                      A
 Frequencies --    117.8230               149.4575               186.7100
 Red. masses --      1.2165                 3.9839                 3.1153
 Frc consts  --      0.0099                 0.0524                 0.0640
 IR Inten    --      4.3736                 7.8085                 7.6760

                      4                      5                      6
                      A                      A                      A
 Frequencies --    279.6418               380.1168               542.2521
 Red. masses --      3.5681                 3.0653                 2.3105
 Frc consts  --      0.1644                 0.2610                 0.4003
 IR Inten    --      7.5417                21.5328                 5.4764

                      7                      8                      9
                      A                      A                      A
 Frequencies --    625.3406               675.0846               745.8684
 Red. masses --      1.8859                 1.4910                 5.7583
 Frc consts  --      0.4345                 0.4003                 1.8874
 IR Inten    --     16.7190                38.3382                10.5723

                     10                     11                     12
                      A                      A                      A
 Frequencies --    853.4799               940.7533               950.9619
 Red. masses --      2.0997                 1.2352                 1.4566
 Frc consts  --      0.9012                 0.6441                 0.7761
 IR Inten    --     23.7315                 2.9537                 8.1110

                     13                     14                     15
                      A                      A                      A
 Frequencies --   1126.5258              1207.6389              1334.4571
 Red. masses --      2.0661                 1.5925                 1.2156
 Frc consts  --      1.5449                 1.3684                 1.2754
 IR Inten    --    192.2888                67.4860                72.2253

                     16                     17                     18
                      A                      A                      A
 Frequencies --   1361.0509              1618.1313              2578.2204
 Red. masses --      3.4389                 8.1816                 1.0739
 Frc consts  --      3.7533                12.6217                 4.2059
 IR Inten    --     36.8449                43.2310               818.8083

                     19                     20                     21
                      A                      A                      A
 Frequencies --   2599.3107              2814.8482              2926.6002
 Red. masses --      1.0809                 1.0459                 1.1237
 Frc consts  --      4.3028                 4.8825                 5.6707
 IR Inten    --    303.8591               678.4493               256.7360

 - Thermochemistry -
 -------------------
 Temperature   298.150 Kelvin.  Pressure   1.00000 Atm.
 Atom     1 has atomic number  1 and mass   1.00783

 Molecular mass:    64.03130 amu.
 Principal axes and moments of inertia in atomic units:
                           1         2         3
     Eigenvalues --    52.11933 773.61663 790.51129
           X            0.99990  -0.01253   0.00656
           Y            0.01235   0.99958   0.02619
           Z           -0.00688  -0.02610   0.99964
 This molecule is an asymmetric top.
 Rotational symmetry number  1.
 Rotational temperatures (Kelvin)      1.66184     0.11196     0.10957
 Rotational constants (GHZ):          34.62710     2.33286     2.28300
 Zero-point vibrational energy     143637.3 (Joules/Mol)
                                   34.33013 (Kcal/Mol)
 Warning -- explicit consideration of   6 degrees of freedom as
           vibrations may cause significant error
 Vibrational temperatures:    169.52   215.04   268.63   402.34   546.90
          (Kelvin)            780.18   899.72   971.29  1073.14  1227.97
                             1353.53  1368.22  1620.82  1737.52  1919.98
                             1958.25  2328.13  3709.48  3739.82  4049.93
                             4210.72

 Zero-point correction=                           0.054709 (Hartree/Particle)
 Thermal correction to Energy=                    0.061019
 Thermal correction to Enthalpy=                  0.061963
 Thermal correction to Gibbs Free Energy=         0.025142
 Sum of electronic and zero-point Energies=           -191.030549
 Sum of electronic and thermal Energies=              -191.024239
 Sum of electronic and thermal Enthalpies=            -191.023295
 Sum of electronic and thermal Free Energies=         -191.060116

                     E (Thermal)             CV                S
                      KCal/Mol        Cal/Mol-Kelvin    Cal/Mol-Kelvin
 Total                   38.290             20.849             77.496
 Electronic               0.000              0.000              1.377
 Translational            0.889              2.981             38.389
 Rotational               0.889              2.981             24.970
 Vibrational             36.512             14.887             12.760
 Vibration     1          0.608              1.935              3.136
 Vibration     2          0.618              1.903              2.679
 Vibration     3          0.632              1.858              2.260
 Vibration     4          0.680              1.711              1.536
 Vibration     5          0.750              1.513              1.039
 Vibration     6          0.897              1.157              0.560

 Normal termination of Gaussian 09 at Mon Jun 20 10:30:17 2016.
