 Gaussian 09, Revision E.01,
 Gaussian 09:  EM64L-G09RevE.01 30-Nov-2015

 ---------------------------------------------
 #p b3lyp/6-311++G(3df,2p) freq symmetry=Loose
 ---------------------------------------------

 ---------
 b3lyp opt
 ---------
 Symbolic Z-matrix:
 Charge =  2 Multiplicity = 1

                         Standard orientation:
 ---------------------------------------------------------------------
 Center     Atomic      Atomic             Coordinates (Angstroms)
 Number     Number       Type             X           Y           Z
 ---------------------------------------------------------------------
      1          6           0       -0.914016   -0.056418   -0.000096
      2          6           0        1.799591   -0.461529   -0.000489
      3          1           0        1.807011   -1.549850   -0.007589
      4          1           0        2.371101   -0.031279   -0.855435
      5          1           0        2.361765   -0.045715    0.868370
      6          6           0        0.511663    0.140419   -0.000574
      7          6           0       -0.369349    1.204099    0.000028
      8          1           0       -0.615925    2.271259    0.000442
      9          6           0       -2.015215   -0.933974    0.000166
 ---------------------------------------------------------------------

 SCF Done:  E(RB3LYP) =  -191.879366792     A.U. after   14 cycles

 The electronic state is 1-A.
 Alpha  occ. eigenvalues --  -10.84742 -10.77507 -10.76561 -10.73890 -10.61325
 Alpha  occ. eigenvalues --   -1.45476  -1.24888  -1.20468  -1.05983  -0.97085
 Alpha  occ. eigenvalues --   -0.92003  -0.91370  -0.87307  -0.82541  -0.81764
 Alpha  occ. eigenvalues --   -0.79531
 Alpha virt. eigenvalues --   -0.66758  -0.61925  -0.50833  -0.44981  -0.34776
 Alpha virt. eigenvalues --   -0.32262  -0.29258  -0.28733  -0.27408  -0.26418
 Alpha virt. eigenvalues --   -0.25226  -0.24703  -0.23389  -0.22634  -0.20965

 Mulliken charges:
               1
     1  C    0.648557
     2  C   -0.144852
     3  H    0.232717
     4  H    0.267016
     5  H    0.267587
     6  C   -0.004457
     7  C    0.226742
     8  H    0.382604
     9  C    0.124086
 Sum of Mulliken charges =   2.00000

 Dipole moment (field-independent basis, Debye):
    X=             -0.5059    Y=              1.3425    Z=              0.0078  Tot=              1.4347
 Quadrupole moment (field-independent basis, Debye-Ang):
   XX=             -1.2475   YY=            -12.4677   ZZ=            -22.6647
   XY=             -1.4628   XZ=              0.0170   YZ=             -0.0019

  Exact polarizability:  75.092   5.053  44.063   0.028  -0.008  29.792
 Approx polarizability: 152.398  27.711  78.854   0.092  -0.013  46.747

                      1                      2                      3
                      A                      A                      A
 Frequencies --    102.8884               145.8628               224.6149
 Red. masses --      1.0812                 6.1146                 6.0012
 Frc consts  --      0.0067                 0.0766                 0.1784
 IR Inten    --      7.7214                 1.0747                 0.6507

                      4                      5                      6
                      A                      A                      A
 Frequencies --    384.6221               398.1227               713.6937
 Red. masses --      2.7497                 2.3894                 4.8315
 Frc consts  --      0.2397                 0.2231                 1.4500
 IR Inten    --      3.0907                16.0884                21.1822

                      7                      8                      9
                      A                      A                      A
 Frequencies --    829.5995               857.9698               891.3926
 Red. masses --      3.0100                 1.3261                 1.7269
 Frc consts  --      1.2206                 0.5751                 0.8085
 IR Inten    --     10.9575                 8.7454                36.3538

                     10                     11                     12
                      A                      A                      A
 Frequencies --   1009.9611              1018.2261              1044.3862
 Red. masses --      2.4577                 1.5273                 2.8068
 Frc consts  --      1.4770                 0.9330                 1.8038
 IR Inten    --    305.2214               102.0088                91.2593

                     13                     14                     15
                      A                      A                      A
 Frequencies --   1196.0433              1312.3981              1400.0006
 Red. masses --      1.0808                 1.0497                 1.1420
 Frc consts  --      0.9109                 1.0653                 1.3188
 IR Inten    --    156.8273                30.2371                21.1887

                     16                     17                     18
                      A                      A                      A
 Frequencies --   1446.4477              1697.2692              2841.0048
 Red. masses --      9.5334                 7.8498                 1.0809
 Frc consts  --     11.7517                13.3233                 5.1403
 IR Inten    --    217.8465               789.2410               163.0274

                     19                     20                     21
                      A                      A                      A
 Frequencies --   2849.4954              3107.8828              3129.6081
 Red. masses --      1.0509                 1.1222                 1.0954
 Frc consts  --      5.0274                 6.3863                 6.3214
 IR Inten    --    532.8392               224.1633                43.5740

 - Thermochemistry -
 -------------------
 Temperature   298.150 Kelvin.  Pressure   1.00000 Atm.
 Atom     1 has atomic number  6 and mass  12.00000

 Molecular mass:    64.03130 amu.
 Principal axes and moments of inertia in atomic units:
                           1         2         3
     Eigenvalues --   141.33317 423.35548 553.99312
           X            0.99852  -0.05439   0.00008
           Y            0.05439   0.99852  -0.00001
           Z           -0.00008   0.00002   1.00000
 This molecule is an asymmetric top.
 Rotational symmetry number  1.
 Rotational temperatures (Kelvin)      0.61283     0.20459     0.15634
 Rotational constants (GHZ):          12.76941     4.26295     3.25770
 Zero-point vibrational energy     159112.2 (Joules/Mol)
                                   38.02874 (Kcal/Mol)
 Warning -- explicit consideration of   5 degrees of freedom as
           vibrations may cause significant error
 Vibrational temperatures:    148.03   209.86   323.17   553.38   572.81
          (Kelvin)           1026.84  1193.61  1234.43  1282.51  1453.11
                             1465.00  1502.64  1720.84  1888.25  2014.29
                             2081.11  2441.99  4087.57  4099.78  4471.54
                             4502.80

 Zero-point correction=                           0.060603 (Hartree/Particle)
 Thermal correction to Energy=                    0.066415
 Thermal correction to Enthalpy=                  0.067359
 Thermal correction to Gibbs Free Energy=         0.031924
 Sum of electronic and zero-point Energies=           -191.818764
 Sum of electronic and thermal Energies=              -191.812952
 Sum of electronic and thermal Enthalpies=            -191.812008
 Sum of electronic and thermal Free Energies=         -191.847443

                     E (Thermal)             CV                S
                      KCal/Mol        Cal/Mol-Kelvin    Cal/Mol-Kelvin
 Total                   41.676             18.713             74.579
 Electronic               0.000              0.000              0.000
 Translational            0.889              2.981             38.389
 Rotational               0.889              2.981             25.009
 Vibrational             39.898             12.752             11.182
 Vibration     1          0.605              1.947              3.399
 Vibration     2          0.617              1.907              2.726
 Vibration     3          0.649              1.804              1.922
 Vibration     4          0.754              1.503              1.021
 Vibration     5          0.764              1.474              0.970

 Normal termination of Gaussian 09 at Mon Jun 20 08:03:18 2016.
