 Gaussian 09, Revision E.01,
 Gaussian 09:  EM64L-G09RevE.01 30-Nov-2015

 ------------------------------------------------------
 #p b3lyp/6-311++G(3df,2p) freq IOp(2/17=3) IOp(2/18=3)
 ------------------------------------------------------

 ---------
 b3lyp opt
 ---------
 Symbolic Z-matrix:
 Charge =  3 Multiplicity = 4

                         Standard orientation:
 ---------------------------------------------------------------------
 Center     Atomic      Atomic             Coordinates (Angstroms)
 Number     Number       Type             X           Y           Z
 ---------------------------------------------------------------------
      1          6           0        0.503434   -1.050511    0.000000
      2          6           0        1.821829   -1.603705    0.000000
      3          1           0       -0.204537   -1.943618    0.000000
      4          1           0        2.326025   -1.895662   -0.956521
      5          1           0        2.326025   -1.895662    0.956521
      6          6           0        0.000000    0.232943    0.000000
      7          6           0       -1.122386    1.025907    0.000000
      8          1           0       -2.210751    0.577052    0.000000
      9          6           0       -1.575633    2.254993    0.000000
 ---------------------------------------------------------------------

 SCF Done:  E(UB3LYP) =  -191.036709573     A.U. after   18 cycles

 The electronic state is 4-A".
 Alpha  occ. eigenvalues --  -11.04569 -10.96727 -10.95727 -10.95517 -10.92787
 Alpha  occ. eigenvalues --   -1.54423  -1.50590  -1.40654  -1.29463  -1.19559
 Alpha  occ. eigenvalues --   -1.15811  -1.12850  -1.12232  -1.08147  -1.04610
 Alpha  occ. eigenvalues --   -0.96381  -0.92648
 Alpha virt. eigenvalues --   -0.79741  -0.78988  -0.76334  -0.60208  -0.50414
 Alpha virt. eigenvalues --   -0.49198  -0.48193  -0.46851  -0.42560  -0.42252
 Alpha virt. eigenvalues --   -0.39231  -0.38470  -0.37346  -0.37203  -0.36389

  Beta  occ. eigenvalues --  -11.01116 -10.96618 -10.94956 -10.93863 -10.92754
  Beta  occ. eigenvalues --   -1.51414  -1.47999  -1.37322  -1.27313  -1.17790
  Beta  occ. eigenvalues --   -1.13737  -1.11204  -1.10760  -1.00476
  Beta virt. eigenvalues --   -0.84970  -0.84224  -0.79427  -0.76050  -0.71902
  Beta virt. eigenvalues --   -0.69708  -0.55359  -0.49535  -0.47864  -0.47288
  Beta virt. eigenvalues --   -0.45813  -0.42230  -0.41287  -0.37971  -0.37886

 Mulliken charges and spin densities:
               1          2
     1  C    0.219215   0.236345
     2  C   -0.068715   0.077790
     3  H    0.298126   0.024364
     4  H    0.356904   0.024113
     5  H    0.356904   0.024113
     6  C    0.751142   1.079899
     7  C    0.431429  -0.026276
     8  H    0.316023  -0.016367
     9  C    0.338974   1.576019
 Sum of Mulliken charges =   3.00000   3.00000

 Dipole moment (field-independent basis, Debye):
    X=              0.2999    Y=             -1.6343    Z=             -0.0000  Tot=              1.6616
 Quadrupole moment (field-independent basis, Debye-Ang):
   XX=             18.3754   YY=             21.6732   ZZ=            -20.9752
   XY=            -34.6273   XZ=             -0.0000   YZ=             -0.0000

  Exact polarizability:  64.774 -37.011  73.824   0.000  -0.000  25.627
 Approx polarizability: 108.663 -72.180 144.956  -0.000  -0.000  35.582

                      1                      2                      3
                     A"                     A'                     A"
 Frequencies --    133.6571               175.6750               222.2159
 Red. masses --      2.2703                 4.4703                 1.9695
 Frc consts  --      0.0239                 0.0813                 0.0573
 IR Inten    --      5.0222                18.6509                40.7351

                      4                      5                      6
                     A'                     A'                     A"
 Frequencies --    325.6452               355.2078               374.1368
 Red. masses --      6.4357                 3.7837                 1.3536
 Frc consts  --      0.4021                 0.2813                 0.1116
 IR Inten    --     10.2152                 5.3193                 2.6663

                      7                      8                      9
                     A"                     A'                     A"
 Frequencies --    563.0571               688.7891               697.4993
 Red. masses --      2.2168                 5.1007                 1.2712
 Frc consts  --      0.4141                 1.4258                 0.3644
 IR Inten    --     11.8207                27.7381                41.8468

                     10                     11                     12
                     A'                     A"                     A'
 Frequencies --    729.7340               945.0994               951.8239
 Red. masses --      1.2064                 1.6777                 1.5765
 Frc consts  --      0.3785                 0.8829                 0.8415
 IR Inten    --      2.5542                 5.0821                 4.8304

                     13                     14                     15
                     A'                     A'                     A'
 Frequencies --   1128.8366              1233.5486              1312.1514
 Red. masses --      2.0256                 1.9021                 1.1307
 Frc consts  --      1.5208                 1.7052                 1.1470
 IR Inten    --     37.0368                48.0250               104.2498

                     16                     17                     18
                     A'                     A'                     A'
 Frequencies --   1451.2524              1695.5593              2384.2314
 Red. masses --      5.5331                10.5370                 1.0694
 Frc consts  --      6.8660                17.8482                 3.5817
 IR Inten    --    143.6998                 7.3742               470.9164

                     19                     20                     21
                     A'                     A'                     A"
 Frequencies --   2639.9190              2785.4643              2883.2108
 Red. masses --      1.0753                 1.0449                 1.1190
 Frc consts  --      4.4155                 4.7765                 5.4808
 IR Inten    --    360.5923               788.7013               284.7213

 - Thermochemistry -
 -------------------
 Temperature   298.150 Kelvin.  Pressure   1.00000 Atm.
 Atom     1 has atomic number  6 and mass  12.00000

 Molecular mass:    64.03130 amu.
 Principal axes and moments of inertia in atomic units:
                           1         2         3
     Eigenvalues --    36.05093 809.02946 831.90900
           X           -0.66361   0.74807   0.00000
           Y            0.74807   0.66361   0.00000
           Z           -0.00000   0.00000   1.00000
 This molecule is an asymmetric top.
 Rotational symmetry number  1.
 Rotational temperatures (Kelvin)      2.40254     0.10706     0.10411
 Rotational constants (GHZ):          50.06087     2.23075     2.16940
 Zero-point vibrational energy     141618.2 (Joules/Mol)
                                   33.84756 (Kcal/Mol)
 Warning -- explicit consideration of   7 degrees of freedom as
           vibrations may cause significant error
 Vibrational temperatures:    192.30   252.76   319.72   468.53   511.06
          (Kelvin)            538.30   810.11   991.01  1003.54  1049.92
                             1359.79  1369.46  1624.14  1774.80  1887.89
                             2088.03  2439.53  3430.37  3798.25  4007.66
                             4148.29

 Zero-point correction=                           0.053940 (Hartree/Particle)
 Thermal correction to Energy=                    0.060310
 Thermal correction to Enthalpy=                  0.061254
 Thermal correction to Gibbs Free Energy=         0.024040
 Sum of electronic and zero-point Energies=           -190.982770
 Sum of electronic and thermal Energies=              -190.976399
 Sum of electronic and thermal Enthalpies=            -190.975455
 Sum of electronic and thermal Free Energies=         -191.012670

                     E (Thermal)             CV                S
                      KCal/Mol        Cal/Mol-Kelvin    Cal/Mol-Kelvin
 Total                   37.845             21.431             78.324
 Electronic               0.000              0.000              2.755
 Translational            0.889              2.981             38.389
 Rotational               0.889              2.981             24.699
 Vibrational             36.068             15.470             12.482
 Vibration     1          0.613              1.920              2.893
 Vibration     2          0.628              1.872              2.374
 Vibration     3          0.648              1.807              1.941
 Vibration     4          0.710              1.624              1.282
 Vibration     5          0.731              1.565              1.143
 Vibration     6          0.745              1.525              1.063
 Vibration     7          0.919              1.111              0.518

 Optimization completed.
    -- Stationary point found.
 Normal termination of Gaussian 09 at Thu Jan 31 08:43:41 2019.
