 Gaussian 09, Revision E.01,
 Gaussian 09:  EM64L-G09RevE.01 30-Nov-2015

 ---------------------------------------------
 #p b3lyp/6-311++G(3df,2p) freq symmetry=Loose
 ---------------------------------------------

 ---------
 b3lyp opt
 ---------
 Symbolic Z-matrix:
 Charge =  1 Multiplicity = 4

                         Standard orientation:
 ---------------------------------------------------------------------
 Center     Atomic      Atomic             Coordinates (Angstroms)
 Number     Number       Type             X           Y           Z
 ---------------------------------------------------------------------
      1          6           0        1.061482   -0.484754    0.000000
      2          1           0        1.679755   -0.554559    0.894037
      3          1           0        1.679755   -0.554559   -0.894037
      4          6           0        0.000000    0.661352   -0.000000
      5          6           0        0.065016    2.026549   -0.000000
      6          6           0       -0.194387   -1.333810    0.000000
      7          1           0       -0.346157   -2.406772    0.000000
      8          6           0       -1.075898   -0.257726   -0.000000
      9          1           0       -2.150628   -0.153772   -0.000000
 ---------------------------------------------------------------------

 SCF Done:  E(UB3LYP) =  -192.404305958     A.U. after   16 cycles

 The electronic state is 4-A".
 Alpha  occ. eigenvalues --  -10.51195 -10.48237 -10.47275 -10.44475 -10.41573
 Alpha  occ. eigenvalues --   -1.14554  -1.00371  -0.91047  -0.83708  -0.75559
 Alpha  occ. eigenvalues --   -0.68466  -0.68359  -0.66114  -0.60792  -0.59098
 Alpha  occ. eigenvalues --   -0.56741  -0.51044  -0.47198
 Alpha virt. eigenvalues --   -0.30868  -0.20137  -0.14974  -0.13812  -0.12080
 Alpha virt. eigenvalues --   -0.10791  -0.10015  -0.09074  -0.08250  -0.07465
 Alpha virt. eigenvalues --   -0.06502  -0.05602  -0.03856  -0.03140  -0.02768

  Beta  occ. eigenvalues --  -10.47996 -10.47139 -10.46702 -10.44181 -10.41384
  Beta  occ. eigenvalues --   -1.13151  -0.94426  -0.90290  -0.80698  -0.75248
  Beta  occ. eigenvalues --   -0.67077  -0.65889  -0.60961  -0.59931  -0.53877
  Beta virt. eigenvalues --   -0.39929  -0.39791  -0.28485  -0.24922  -0.17157
  Beta virt. eigenvalues --   -0.14788  -0.13276  -0.11615  -0.10172  -0.09797
  Beta virt. eigenvalues --   -0.08734  -0.07734  -0.06292  -0.06264  -0.04808

 Mulliken charges and spin densities:
               1          2
     1  C   -0.589587   0.065068
     2  H    0.204687   0.004970
     3  H    0.204687   0.004970
     4  C    0.517129   0.094855
     5  C   -0.020467   2.229721
     6  C    0.266074   0.416005
     7  H    0.324619  -0.002581
     8  C   -0.194815   0.191858
     9  H    0.287673  -0.004868
 Sum of Mulliken charges =   1.00000   3.00000

 Dipole moment (field-independent basis, Debye):
    X=             -0.3749    Y=             -0.6337    Z=             -0.0000  Tot=              0.7363
 Quadrupole moment (field-independent basis, Debye-Ang):
   XX=            -20.5117   YY=            -14.9762   ZZ=            -26.5019
   XY=              0.4146   XZ=             -0.0000   YZ=              0.0000

  Exact polarizability:  47.625   1.297  74.070   0.000   0.000  31.365
 Approx polarizability:  69.647   4.386 133.429  -0.000   0.000  46.813

                      1                      2                      3
                     A"                     A'                     A"
 Frequencies --    129.7351               396.7879               487.6980
 Red. masses --      2.6161                 5.1194                 2.1855
 Frc consts  --      0.0259                 0.4749                 0.3063
 IR Inten    --      1.9586                 0.6182                11.7599

                      4                      5                      6
                     A'                     A"                     A'
 Frequencies --    702.8745               783.7737               850.7644
 Red. masses --      5.0027                 1.2506                 3.8810
 Frc consts  --      1.4562                 0.4526                 1.6551
 IR Inten    --      4.0748                19.0096                 5.2911

                      7                      8                      9
                     A'                     A"                     A"
 Frequencies --    941.3454               953.2007              1012.7176
 Red. masses --      2.3406                 1.2857                 1.7722
 Frc consts  --      1.2220                 0.6883                 1.0709
 IR Inten    --      9.8083                 8.2844                 0.2900

                     10                     11                     12
                     A'                     A'                     A"
 Frequencies --   1085.5163              1107.5200              1115.9477
 Red. masses --      1.8192                 2.4040                 1.2149
 Frc consts  --      1.2630                 1.7373                 0.8914
 IR Inten    --      2.2724                 2.9577                 0.3535

                     13                     14                     15
                     A'                     A'                     A'
 Frequencies --   1236.9906              1296.8750              1389.5111
 Red. masses --      1.3941                 2.2961                 3.0757
 Frc consts  --      1.2569                 2.2753                 3.4988
 IR Inten    --      8.5831                47.1153                31.2771

                     16                     17                     18
                     A'                     A'                     A'
 Frequencies --   1452.7370              1474.6469              3070.4353
 Red. masses --      6.0799                 1.1965                 1.0568
 Frc consts  --      7.5600                 1.5330                 5.8703
 IR Inten    --     28.2154                26.5789                 3.1681

                     19                     20                     21
                     A"                     A'                     A'
 Frequencies --   3126.5791              3195.2676              3238.0905
 Red. masses --      1.1092                 1.0943                 1.1074
 Frc consts  --      6.3882                 6.5825                 6.8413
 IR Inten    --      3.5547                25.3852                14.5247

 - Thermochemistry -
 -------------------
 Temperature   298.150 Kelvin.  Pressure   1.00000 Atm.
 Atom     1 has atomic number  6 and mass  12.00000

 Molecular mass:    64.03130 amu.
 Principal axes and moments of inertia in atomic units:
                           1         2         3
     Eigenvalues --   142.68226 312.15539 443.33089
           X            0.02506   0.99969   0.00000
           Y            0.99969  -0.02506   0.00000
           Z           -0.00000   0.00000   1.00000
 This molecule is an asymmetric top.
 Rotational symmetry number  1.
 Rotational temperatures (Kelvin)      0.60704     0.27747     0.19537
 Rotational constants (GHZ):          12.64867     5.78155     4.07087
 Zero-point vibrational energy     173751.7 (Joules/Mol)
                                   41.52765 (Kcal/Mol)
 Warning -- explicit consideration of   3 degrees of freedom as
           vibrations may cause significant error
 Vibrational temperatures:    186.66   570.89   701.69  1011.28  1127.67
          (Kelvin)           1224.06  1354.38  1371.44  1457.07  1561.81
                             1593.47  1605.60  1779.75  1865.91  1999.19
                             2090.16  2121.69  4417.67  4498.44  4597.27
                             4658.88

 Zero-point correction=                           0.066179 (Hartree/Particle)
 Thermal correction to Energy=                    0.070740
 Thermal correction to Enthalpy=                  0.071684
 Thermal correction to Gibbs Free Energy=         0.037684
 Sum of electronic and zero-point Energies=           -192.338127
 Sum of electronic and thermal Energies=              -192.333566
 Sum of electronic and thermal Enthalpies=            -192.332622
 Sum of electronic and thermal Free Energies=         -192.366622

                     E (Thermal)             CV                S
                      KCal/Mol        Cal/Mol-Kelvin    Cal/Mol-Kelvin
 Total                   44.390             15.397             71.560
 Electronic               0.000              0.000              2.755
 Translational            0.889              2.981             38.389
 Rotational               0.889              2.981             24.494
 Vibrational             42.613              9.436              5.922
 Vibration     1          0.612              1.924              2.950
 Vibration     2          0.763              1.477              0.975
 Vibration     3          0.844              1.277              0.690

 Optimization completed.
    -- Stationary point found.
 Normal termination of Gaussian 09 at Wed Jul 20 17:23:55 2016.
