 Gaussian 09, Revision E.01,
 Gaussian 09:  EM64L-G09RevE.01 30-Nov-2015

 ---------------------------------------------
 #p b3lyp/6-311++G(3df,2p) freq symmetry=Loose
 ---------------------------------------------

 ---------
 b3lyp opt
 ---------
 Symbolic Z-matrix:
 Charge =  0 Multiplicity = 1

                         Standard orientation:
 ---------------------------------------------------------------------
 Center     Atomic      Atomic             Coordinates (Angstroms)
 Number     Number       Type             X           Y           Z
 ---------------------------------------------------------------------
      1          6           0       -1.153928   -0.370673    0.000000
      2          6           0       -0.060258   -0.281836    1.009229
      3          1           0       -0.056845   -0.128083    2.076821
      4          6           0       -0.060258    0.875891    0.000000
      5          1           0       -0.068770    1.947145    0.000000
      6          6           0       -0.060258   -0.281836   -1.009229
      7          1           0       -0.056845   -0.128083   -2.076821
      8          6           0        1.017517   -0.216799   -0.000000
      9          1           0        2.085569   -0.039460   -0.000000
 ---------------------------------------------------------------------

 SCF Done:  E(RB3LYP) =  -192.763940585     A.U. after   12 cycles

 The electronic state is 1-A'.
 Alpha  occ. eigenvalues --  -10.25228 -10.23225 -10.22071 -10.22069 -10.17334
 Alpha  occ. eigenvalues --   -1.02944  -0.69996  -0.68984  -0.62382  -0.55614
 Alpha  occ. eigenvalues --   -0.50793  -0.43204  -0.42671  -0.39845  -0.30572
 Alpha  occ. eigenvalues --   -0.30180  -0.21005
 Alpha virt. eigenvalues --   -0.01363   0.00515   0.00566   0.01820   0.02934
 Alpha virt. eigenvalues --    0.04497   0.05615   0.06276   0.06925   0.07039
 Alpha virt. eigenvalues --    0.07506   0.08223   0.09076   0.09596   0.10328

 Mulliken charges:
               1
     1  C   -0.781870
     2  C    0.025427
     3  H    0.186005
     4  C    0.255157
     5  H    0.323352
     6  C    0.025427
     7  H    0.186005
     8  C   -0.410923
     9  H    0.191421
 Sum of Mulliken charges =  -0.00000

 Dipole moment (field-independent basis, Debye):
    X=              3.8492    Y=              1.6951    Z=             -0.0000  Tot=              4.2059
 Quadrupole moment (field-independent basis, Debye-Ang):
   XX=            -35.7655   YY=            -28.9642   ZZ=            -25.7468
   XY=             -1.0386   XZ=              0.0000   YZ=              0.0000

  Exact polarizability:  57.321   1.769  45.524  -0.000  -0.000  50.757
 Approx polarizability:  85.163   2.175  78.107  -0.000  -0.000  77.876

                      1                      2                      3
                     A'                     A"                     A'
 Frequencies --    386.2358               586.9225               612.9774
 Red. masses --      8.5338                 7.0593                 5.8640
 Frc consts  --      0.7501                 1.4328                 1.2982
 IR Inten    --     19.3939                 4.5685                 1.2467

                      4                      5                      6
                     A'                     A"                     A'
 Frequencies --    775.3019               819.6393               824.7805
 Red. masses --      1.1751                 1.0310                 1.5107
 Frc consts  --      0.4162                 0.4081                 0.6055
 IR Inten    --     27.7855                 0.7994                36.3619

                      7                      8                      9
                     A'                     A"                     A'
 Frequencies --    924.2801               949.9065               954.2881
 Red. masses --      1.4140                 1.4222                 2.0839
 Frc consts  --      0.7117                 0.7561                 1.1181
 IR Inten    --     10.3564                 6.1790                 1.9355

                     10                     11                     12
                     A"                     A'                     A"
 Frequencies --    979.6345              1018.1643              1069.8007
 Red. masses --      1.6814                 2.5937                 1.7033
 Frc consts  --      0.9507                 1.5842                 1.1486
 IR Inten    --      2.9603                 0.8912                 5.4537

                     13                     14                     15
                     A'                     A"                     A'
 Frequencies --   1168.7626              1174.1838              1261.0370
 Red. masses --      2.3692                 2.0598                 3.2985
 Frc consts  --      1.9068                 1.6732                 3.0905
 IR Inten    --     21.7723                 0.0002                 6.0313

                     16                     17                     18
                     A"                     A'                     A'
 Frequencies --   1296.3631              1333.6821              3159.8329
 Red. masses --      2.8747                 2.8613                 1.0958
 Frc consts  --      2.8464                 2.9986                 6.4463
 IR Inten    --      8.8652                 2.0020                30.8932

                     19                     20                     21
                     A'                     A"                     A'
 Frequencies --   3224.0478              3224.6054              3303.6738
 Red. masses --      1.1003                 1.0950                 1.1011
 Frc consts  --      6.7387                 6.7085                 7.0808
 IR Inten    --      2.0007                 4.2538                12.4199

 - Thermochemistry -
 -------------------
 Temperature   298.150 Kelvin.  Pressure   1.00000 Atm.
 Atom     1 has atomic number  6 and mass  12.00000

 Molecular mass:    64.03130 amu.
 Principal axes and moments of inertia in atomic units:
                           1         2         3
     Eigenvalues --   178.59526 178.64516 236.63254
           X            0.00000   0.99220  -0.12465
           Y            0.00000   0.12465   0.99220
           Z            1.00000  -0.00000  -0.00000
 This molecule is an asymmetric top.
 Rotational symmetry number  1.
 Rotational temperatures (Kelvin)      0.48497     0.48484     0.36603
 Rotational constants (GHZ):          10.10520    10.10238     7.62677
 Zero-point vibrational energy     173746.3 (Joules/Mol)
                                   41.52637 (Kcal/Mol)
 Warning -- explicit consideration of   3 degrees of freedom as
           vibrations may cause significant error
 Vibrational temperatures:    555.71   844.45   881.94  1115.49  1179.28
          (Kelvin)           1186.67  1329.83  1366.70  1373.01  1409.47
                             1464.91  1539.20  1681.59  1689.39  1814.35
                             1865.17  1918.87  4546.29  4638.68  4639.48
                             4753.24

 Zero-point correction=                           0.066176 (Hartree/Particle)
 Thermal correction to Energy=                    0.070195
 Thermal correction to Enthalpy=                  0.071139
 Thermal correction to Gibbs Free Energy=         0.040141
 Sum of electronic and zero-point Energies=           -192.697764
 Sum of electronic and thermal Energies=              -192.693746
 Sum of electronic and thermal Enthalpies=            -192.692802
 Sum of electronic and thermal Free Energies=         -192.723800

                     E (Thermal)             CV                S
                      KCal/Mol        Cal/Mol-Kelvin    Cal/Mol-Kelvin
 Total                   44.048             14.744             65.241
 Electronic               0.000              0.000              0.000
 Translational            0.889              2.981             38.389
 Rotational               0.889              2.981             23.539
 Vibrational             42.270              8.783              3.313
 Vibration     1          0.755              1.500              1.015
 Vibration     2          0.944              1.060              0.473
 Vibration     3          0.972              1.004              0.428

 Optimization completed.
    -- Stationary point found.
 Normal termination of Gaussian 09 at Wed Jul 20 02:42:12 2016.
