 Gaussian 09, Revision E.01,
 Gaussian 09:  EM64L-G09RevE.01 30-Nov-2015

 ---------------------------------------------
 #p b3lyp/6-311++G(3df,2p) freq symmetry=Loose
 ---------------------------------------------

 ---------
 b3lyp opt
 ---------
 Symbolic Z-matrix:
 Charge =  3 Multiplicity = 4

                         Standard orientation:
 ---------------------------------------------------------------------
 Center     Atomic      Atomic             Coordinates (Angstroms)
 Number     Number       Type             X           Y           Z
 ---------------------------------------------------------------------
      1          6           0        2.251399   -1.102481   -0.000000
      2          1           0        2.809783   -1.248843    0.958681
      3          6           0        0.826454   -0.912034   -0.000000
      4          1           0        0.367144   -1.958766   -0.000000
      5          6           0        0.000000    0.173268    0.000000
      6          1           0        2.809783   -1.248843   -0.958681
      7          6           0       -1.209221    0.777130    0.000000
      8          6           0       -2.325781    1.459362    0.000000
      9          1           0       -3.243815    2.084979    0.000000
 ---------------------------------------------------------------------

 SCF Done:  E(UB3LYP) =  -191.110699602     A.U. after   16 cycles

 The electronic state is 4-A".
 Alpha  occ. eigenvalues --  -10.98089 -10.96793 -10.96584 -10.96074 -10.95156
 Alpha  occ. eigenvalues --   -1.54373  -1.49766  -1.41409  -1.31727  -1.19424
 Alpha  occ. eigenvalues --   -1.17121  -1.13877  -1.12142  -1.05874  -1.05024
 Alpha  occ. eigenvalues --   -0.95300  -0.91767
 Alpha virt. eigenvalues --   -0.79674  -0.75771  -0.66691  -0.59127  -0.53672
 Alpha virt. eigenvalues --   -0.48144  -0.47342  -0.45888  -0.44410  -0.42124
 Alpha virt. eigenvalues --   -0.39344  -0.38295  -0.37577  -0.36875  -0.36075

  Beta  occ. eigenvalues --  -10.97187 -10.96678 -10.94868 -10.94572 -10.94459
  Beta  occ. eigenvalues --   -1.50384  -1.45662  -1.37616  -1.29505  -1.17711
  Beta  occ. eigenvalues --   -1.15358  -1.11503  -1.10633  -1.00744
  Beta virt. eigenvalues --   -0.89813  -0.84893  -0.79228  -0.74992  -0.70328
  Beta virt. eigenvalues --   -0.57584  -0.54722  -0.49437  -0.47306  -0.46183
  Beta virt. eigenvalues --   -0.44964  -0.42992  -0.41755  -0.38237  -0.37716

 Mulliken charges and spin densities:
               1          2
     1  C   -0.026104   0.097753
     2  H    0.355717   0.025560
     3  C    0.138417   0.116983
     4  H    0.304586   0.032723
     5  C    0.628194   1.095644
     6  H    0.355717   0.025560
     7  C    0.316794   0.761284
     8  C    0.439746   0.874059
     9  H    0.486933  -0.029566
 Sum of Mulliken charges =   3.00000   3.00000

 Dipole moment (field-independent basis, Debye):
    X=              0.7068    Y=             -0.7987    Z=              0.0000  Tot=              1.0666
 Quadrupole moment (field-independent basis, Debye-Ang):
   XX=             43.8176   YY=              4.5995   ZZ=            -20.8079
   XY=            -37.2513   XZ=              0.0000   YZ=             -0.0000

  Exact polarizability:  91.871 -39.172  51.538  -0.000   0.000  25.339
 Approx polarizability: 156.124 -69.279  84.360  -0.000   0.000  34.954

                      1                      2                      3
                     A'                     A"                     A"
 Frequencies --    126.0480               163.8728               285.8560
 Red. masses --      4.2871                 3.5585                 1.2634
 Frc consts  --      0.0401                 0.0563                 0.0608
 IR Inten    --     26.0186                33.8428                 0.9028

                      4                      5                      6
                     A'                     A'                     A"
 Frequencies --    313.7356               404.5229               406.9161
 Red. masses --      3.8377                 4.9205                 4.4575
 Frc consts  --      0.2226                 0.4744                 0.4349
 IR Inten    --      2.9641                 1.6194                 0.0915

                      7                      8                      9
                     A'                     A"                     A'
 Frequencies --    467.3023               672.1432               689.1432
 Red. masses --      1.3249                 1.3091                 5.1445
 Frc consts  --      0.1705                 0.3485                 1.4395
 IR Inten    --     31.8826                25.8732                 9.5745

                     10                     11                     12
                     A"                     A"                     A'
 Frequencies --    729.7701               936.8716               939.5212
 Red. masses --      1.2986                 1.6241                 1.5383
 Frc consts  --      0.4075                 0.8399                 0.8000
 IR Inten    --     26.0648                 3.8329                10.2955

                     13                     14                     15
                     A'                     A'                     A'
 Frequencies --   1128.0171              1236.6031              1318.9521
 Red. masses --      2.1219                 1.7645                 1.1308
 Frc consts  --      1.5907                 1.5898                 1.1590
 IR Inten    --     57.0637                71.7234               113.5075

                     16                     17                     18
                     A'                     A'                     A'
 Frequencies --   1466.5472              1832.3867              2597.8621
 Red. masses --      5.5666                 9.3888                 1.0737
 Frc consts  --      7.0540                18.5735                 4.2695
 IR Inten    --    199.5525                 3.9413               378.6236

                     19                     20                     21
                     A'                     A"                     A'
 Frequencies --   2794.2151              2896.8784              2975.3789
 Red. masses --      1.0453                 1.1203                 1.1360
 Frc consts  --      4.8086                 5.5390                 5.9253
 IR Inten    --    845.1379               274.3034               751.4201

 - Thermochemistry -
 -------------------
 Temperature   298.150 Kelvin.  Pressure   1.00000 Atm.
 Atom     1 has atomic number  6 and mass  12.00000

 Molecular mass:    64.03130 amu.
 Principal axes and moments of inertia in atomic units:
                           1         2         3
     Eigenvalues --    24.17943 871.29864 882.24712
           X            0.85423   0.51990   0.00000
           Y           -0.51990   0.85423   0.00000
           Z            0.00000  -0.00000   1.00000
 This molecule is an asymmetric top.
 Rotational symmetry number  1.
 Rotational temperatures (Kelvin)      3.58213     0.09941     0.09817
 Rotational constants (GHZ):          74.63953     2.07132     2.04562
 Zero-point vibrational energy     145840.0 (Joules/Mol)
                                   34.85660 (Kcal/Mol)
 Warning -- explicit consideration of   7 degrees of freedom as
           vibrations may cause significant error
 Vibrational temperatures:    181.35   235.78   411.28   451.39   582.02
          (Kelvin)            585.46   672.34   967.06   991.52  1049.98
                             1347.95  1351.76  1622.96  1779.19  1897.68
                             2110.03  2636.39  3737.74  4020.25  4167.96
                             4280.90

 Zero-point correction=                           0.055548 (Hartree/Particle)
 Thermal correction to Energy=                    0.061874
 Thermal correction to Enthalpy=                  0.062819
 Thermal correction to Gibbs Free Energy=         0.025823
 Sum of electronic and zero-point Energies=           -191.055152
 Sum of electronic and thermal Energies=              -191.048825
 Sum of electronic and thermal Enthalpies=            -191.047881
 Sum of electronic and thermal Free Energies=         -191.084876

                     E (Thermal)             CV                S
                      KCal/Mol        Cal/Mol-Kelvin    Cal/Mol-Kelvin
 Total                   38.827             21.455             77.863
 Electronic               0.000              0.000              2.755
 Translational            0.889              2.981             38.389
 Rotational               0.889              2.981             24.434
 Vibrational             37.049             15.493             12.285
 Vibration     1          0.611              1.927              3.005
 Vibration     2          0.623              1.887              2.505
 Vibration     3          0.684              1.700              1.498
 Vibration     4          0.702              1.647              1.343
 Vibration     5          0.770              1.460              0.946
 Vibration     6          0.772              1.455              0.938
 Vibration     7          0.825              1.323              0.745

 Optimization completed.
    -- Stationary point found.
 Normal termination of Gaussian 09 at Wed Jul 20 17:08:06 2016.
