 Gaussian 09, Revision E.01,
 Gaussian 09:  EM64L-G09RevE.01 30-Nov-2015

 ---------------------------------------------
 #p b3lyp/6-311++G(3df,2p) freq symmetry=Loose
 ---------------------------------------------

 ---------
 b3lyp opt
 ---------
 Symbolic Z-matrix:
 Charge =  1 Multiplicity = 4

                         Standard orientation:
 ---------------------------------------------------------------------
 Center     Atomic      Atomic             Coordinates (Angstroms)
 Number     Number       Type             X           Y           Z
 ---------------------------------------------------------------------
      1          6           0       -1.932535   -0.427728    0.000152
      2          6           0       -0.540861   -0.161712    0.000083
      3          6           0       -1.530035    0.854571   -0.000159
      4          6           0        1.933773    0.327979    0.000083
      5          1           0        2.567125    0.104431    0.868663
      6          1           0        2.568562    0.104185   -0.867534
      7          1           0        1.665944    1.380185   -0.000402
      8          6           0        0.779101   -0.581925   -0.000225
      9          1           0        0.941711   -1.655914   -0.000336
 ---------------------------------------------------------------------

 SCF Done:  E(UB3LYP) =  -192.402359052     A.U. after   15 cycles

 The electronic state is 4-A.
 Alpha  occ. eigenvalues --  -10.53449 -10.53356 -10.50952 -10.46337 -10.37765
 Alpha  occ. eigenvalues --   -1.21701  -1.03849  -0.90413  -0.79329  -0.76066
 Alpha  occ. eigenvalues --   -0.70561  -0.67766  -0.65014  -0.62364  -0.60557
 Alpha  occ. eigenvalues --   -0.59227  -0.52304  -0.48411
 Alpha virt. eigenvalues --   -0.28713  -0.22972  -0.15481  -0.12924  -0.11881
 Alpha virt. eigenvalues --   -0.10692  -0.09755  -0.08816  -0.08285  -0.08268
 Alpha virt. eigenvalues --   -0.07852  -0.05748  -0.05430  -0.04161  -0.03476

  Beta  occ. eigenvalues --  -10.51442 -10.51362 -10.50393 -10.45447 -10.37730
  Beta  occ. eigenvalues --   -1.18701  -1.01306  -0.88824  -0.75156  -0.71111
  Beta  occ. eigenvalues --   -0.66596  -0.64263  -0.62494  -0.60442  -0.58969
  Beta virt. eigenvalues --   -0.42657  -0.37582  -0.37014  -0.23746  -0.18497
  Beta virt. eigenvalues --   -0.14905  -0.12537  -0.10768  -0.10380  -0.08747
  Beta virt. eigenvalues --   -0.08428  -0.08006  -0.07593  -0.05620  -0.05338

 Mulliken charges and spin densities:
               1          2
     1  C    0.198616   1.011111
     2  C    0.519813   0.090010
     3  C    0.273484   1.105175
     4  C   -0.465860   0.013733
     5  H    0.210384   0.046588
     6  H    0.210245   0.046511
     7  H    0.172412   0.004280
     8  C   -0.352030   0.681129
     9  H    0.232936   0.001463
 Sum of Mulliken charges =   1.00000   3.00000

 Dipole moment (field-independent basis, Debye):
    X=              0.0713    Y=             -0.5194    Z=              0.0002  Tot=              0.5243
 Quadrupole moment (field-independent basis, Debye-Ang):
   XX=            -12.9144   YY=            -22.8992   ZZ=            -26.5790
   XY=             -0.5286   XZ=              0.0003   YZ=             -0.0003

  Exact polarizability:  77.116  -2.098  44.655  -0.001  -0.000  32.944
 Approx polarizability: 109.100  -3.237  78.693  -0.002  -0.003  49.001

                      1                      2                      3
                      A                      A                      A
 Frequencies --    125.3143               207.1579               222.8660
 Red. masses --      1.0997                 4.0969                 4.4704
 Frc consts  --      0.0102                 0.1036                 0.1308
 IR Inten    --      1.9638                 0.0413                 0.0438

                      4                      5                      6
                      A                      A                      A
 Frequencies --    423.3581               510.0539               775.4671
 Red. masses --      4.6580                 4.8879                 3.1396
 Frc consts  --      0.4919                 0.7492                 1.1124
 IR Inten    --      0.5316                 0.8754                 1.7241

                      7                      8                      9
                      A                      A                      A
 Frequencies --    777.6110               965.0472               966.3397
 Red. masses --      1.1827                 3.3024                 1.5877
 Frc consts  --      0.4214                 1.8121                 0.8736
 IR Inten    --     13.1999                58.8185                 2.0254

                     10                     11                     12
                      A                      A                      A
 Frequencies --   1036.4668              1145.3837              1332.7933
 Red. masses --      3.1331                 2.4182                 1.3116
 Frc consts  --      1.9830                 1.8692                 1.3728
 IR Inten    --     62.6775                14.8355                70.1885

                     13                     14                     15
                      A                      A                      A
 Frequencies --   1359.7487              1429.0013              1467.5961
 Red. masses --      1.2157                 1.0464                 1.6555
 Frc consts  --      1.3243                 1.2589                 2.1008
 IR Inten    --      9.3116                14.7191                 6.4857

                     16                     17                     18
                      A                      A                      A
 Frequencies --   1493.7691              1652.8786              2980.9280
 Red. masses --      2.4131                11.1766                 1.0418
 Frc consts  --      3.1724                17.9905                 5.4543
 IR Inten    --     26.2607                30.4556                60.2213

                     19                     20                     21
                      A                      A                      A
 Frequencies --   3009.6123              3139.6914              3153.5685
 Red. masses --      1.0924                 1.0952                 1.0901
 Frc consts  --      5.8297                 6.3606                 6.3874
 IR Inten    --      9.4726                 4.9049                21.8917

 - Thermochemistry -
 -------------------
 Temperature   298.150 Kelvin.  Pressure   1.00000 Atm.
 Atom     1 has atomic number  6 and mass  12.00000

 Molecular mass:    64.03130 amu.
 Principal axes and moments of inertia in atomic units:
                           1         2         3
     Eigenvalues --    81.55795 521.97595 592.68511
           X            0.99995   0.01020   0.00001
           Y           -0.01020   0.99995   0.00002
           Z           -0.00000  -0.00002   1.00000
 This molecule is an asymmetric top.
 Rotational symmetry number  1.
 Rotational temperatures (Kelvin)      1.06199     0.16593     0.14614
 Rotational constants (GHZ):          22.12833     3.45752     3.04503
 Zero-point vibrational energy     168521.8 (Joules/Mol)
                                   40.27769 (Kcal/Mol)
 Warning -- explicit consideration of   5 degrees of freedom as
           vibrations may cause significant error
 Vibrational temperatures:    180.30   298.05   320.65   609.12   733.85
          (Kelvin)           1115.72  1118.81  1388.49  1390.35  1491.24
                             1647.95  1917.59  1956.37  2056.01  2111.54
                             2149.20  2378.12  4288.89  4330.16  4517.31
                             4537.28

 Zero-point correction=                           0.064187 (Hartree/Particle)
 Thermal correction to Energy=                    0.069632
 Thermal correction to Enthalpy=                  0.070576
 Thermal correction to Gibbs Free Energy=         0.034794
 Sum of electronic and zero-point Energies=           -192.338172
 Sum of electronic and thermal Energies=              -192.332727
 Sum of electronic and thermal Enthalpies=            -192.331783
 Sum of electronic and thermal Free Energies=         -192.367566

                     E (Thermal)             CV                S
                      KCal/Mol        Cal/Mol-Kelvin    Cal/Mol-Kelvin
 Total                   43.695             17.522             75.311
 Electronic               0.000              0.000              2.755
 Translational            0.889              2.981             38.389
 Rotational               0.889              2.981             24.737
 Vibrational             41.917             11.561              9.430
 Vibration     1          0.610              1.928              3.017
 Vibration     2          0.641              1.830              2.069
 Vibration     3          0.649              1.806              1.936
 Vibration     4          0.786              1.419              0.881
 Vibration     5          0.865              1.228              0.633

 Optimization completed.
    -- Stationary point found.
 Normal termination of Gaussian 09 at Mon Jun 20 05:50:38 2016.
