 Gaussian 09, Revision E.01,
 Gaussian 09:  EM64L-G09RevE.01 30-Nov-2015

 ------------------------------------------------------
 #p b3lyp/6-311++G(3df,2p) freq IOp(2/17=3) IOp(2/18=3)
 ------------------------------------------------------

 ---------
 b3lyp opt
 ---------
 Symbolic Z-matrix:
 Charge =  3 Multiplicity = 2

                         Standard orientation:
 ---------------------------------------------------------------------
 Center     Atomic      Atomic             Coordinates (Angstroms)
 Number     Number       Type             X           Y           Z
 ---------------------------------------------------------------------
      1          6           0        1.008728   -0.614902    0.000000
      2          1           0        3.139714   -1.024751    0.000000
      3          6           0        2.092621   -1.432531    0.000000
      4          1           0        1.995578   -2.551684    0.000000
      5          6           0        0.000000    0.155875    0.000000
      6          6           0       -2.520669    0.805674    0.000000
      7          6           0       -1.082327    1.085011    0.000000
      8          1           0       -1.062674    1.790989   -0.919707
      9          1           0       -1.062674    1.790989    0.919707
 ---------------------------------------------------------------------

 SCF Done:  E(UB3LYP) =  -191.085638048     A.U. after   23 cycles

 The electronic state is 2-A'.
 Alpha  occ. eigenvalues --  -11.07273 -10.99760 -10.95204 -10.94227 -10.92244
 Alpha  occ. eigenvalues --   -1.55148  -1.49880  -1.41116  -1.30871  -1.17311
 Alpha  occ. eigenvalues --   -1.15924  -1.14156  -1.11502  -1.03383  -1.02200
 Alpha  occ. eigenvalues --   -0.98400
 Alpha virt. eigenvalues --   -0.82386  -0.80915  -0.78342  -0.70058  -0.60964
 Alpha virt. eigenvalues --   -0.52380  -0.50428  -0.48278  -0.46456  -0.42508
 Alpha virt. eigenvalues --   -0.41575  -0.40479  -0.39735  -0.38804  -0.36590

  Beta  occ. eigenvalues --  -11.06958 -10.98916 -10.94764 -10.94248 -10.92258
  Beta  occ. eigenvalues --   -1.53525  -1.48556  -1.39958  -1.29943  -1.16590
  Beta  occ. eigenvalues --   -1.15295  -1.13767  -1.09497  -1.01569  -0.99760
  Beta virt. eigenvalues --   -0.88508  -0.82056  -0.80327  -0.77960  -0.65790
  Beta virt. eigenvalues --   -0.60528  -0.51659  -0.49173  -0.47770  -0.46240
  Beta virt. eigenvalues --   -0.42227  -0.40965  -0.40032  -0.39494  -0.38252

 Mulliken charges and spin densities:
               1          2
     1  C    0.906197   0.249509
     2  H    0.368570   0.036800
     3  C   -0.116265   0.003463
     4  H    0.366388   0.038028
     5  C    0.469668   0.558011
     6  C    0.438797   0.169463
     7  C   -0.171704  -0.097860
     8  H    0.369174   0.021293
     9  H    0.369174   0.021293
 Sum of Mulliken charges =   3.00000   1.00000

 Dipole moment (field-independent basis, Debye):
    X=              0.7965    Y=              0.0770    Z=             -0.0000  Tot=              0.8003
 Quadrupole moment (field-independent basis, Debye-Ang):
   XX=             30.0015   YY=              5.1843   ZZ=            -20.0470
   XY=            -30.9876   XZ=              0.0000   YZ=              0.0000

  Exact polarizability: 102.363 -39.300  55.361   0.000   0.000  27.282
 Approx polarizability: 188.073 -68.505  91.027  -0.000   0.000  41.750

                      1                      2                      3
                     A"                     A'                     A"
 Frequencies --    114.8432               157.8105               202.1091
 Red. masses --      1.1793                 4.7909                 2.7793
 Frc consts  --      0.0092                 0.0703                 0.0669
 IR Inten    --      0.7009                 9.6133                32.4877

                      4                      5                      6
                     A'                     A"                     A'
 Frequencies --    325.0483               408.9766               472.9299
 Red. masses --      3.5272                 2.9239                 4.4744
 Frc consts  --      0.2196                 0.2881                 0.5896
 IR Inten    --     12.2674                 0.0151                 0.3404

                      7                      8                      9
                     A"                     A'                     A'
 Frequencies --    595.1661               678.6954               812.1494
 Red. masses --      2.0918                 5.3639                 1.7324
 Frc consts  --      0.4366                 1.4557                 0.6732
 IR Inten    --     11.5373                 6.8053                66.9531

                     10                     11                     12
                     A'                     A"                     A"
 Frequencies --    851.8308              1007.9789              1067.4317
 Red. masses --      1.6757                 1.1763                 1.3724
 Frc consts  --      0.7164                 0.7041                 0.9213
 IR Inten    --     15.2944                 2.4699                24.0581

                     13                     14                     15
                     A'                     A'                     A'
 Frequencies --   1109.8567              1170.5052              1253.4071
 Red. masses --      1.4165                 2.0378                 1.1272
 Frc consts  --      1.0280                 1.6450                 1.0433
 IR Inten    --    300.2882               147.0777               156.1417

                     16                     17                     18
                     A'                     A'                     A"
 Frequencies --   1314.9439              1965.9338              2469.0283
 Red. masses --      4.0677                11.4561                 1.0893
 Frc consts  --      4.1440                26.0870                 3.9123
 IR Inten    --    151.6837                96.7243               400.4847

                     19                     20                     21
                     A'                     A'                     A'
 Frequencies --   2472.9562              2739.1799              2819.2858
 Red. masses --      1.0544                 1.0445                 1.1135
 Frc consts  --      3.7993                 4.6172                 5.2148
 IR Inten    --    680.1721              1160.4411               364.3976

 - Thermochemistry -
 -------------------
 Temperature   298.150 Kelvin.  Pressure   1.00000 Atm.
 Atom     1 has atomic number  6 and mass  12.00000

 Molecular mass:    64.03130 amu.
 Principal axes and moments of inertia in atomic units:
                           1         2         3
     Eigenvalues --    43.18477 813.91936 844.92708
           X            0.86305   0.50513   0.00000
           Y           -0.50513   0.86305   0.00000
           Z           -0.00000   0.00000   1.00000
 This molecule is an asymmetric top.
 Rotational symmetry number  1.
 Rotational temperatures (Kelvin)      2.00566     0.10642     0.10251
 Rotational constants (GHZ):          41.79115     2.21735     2.13597
 Zero-point vibrational energy     143612.1 (Joules/Mol)
                                   34.32411 (Kcal/Mol)
 Warning -- explicit consideration of   7 degrees of freedom as
           vibrations may cause significant error
 Vibrational temperatures:    165.23   227.05   290.79   467.67   588.43
          (Kelvin)            680.44   856.31   976.49  1168.50  1225.59
                             1450.25  1535.79  1596.83  1684.09  1803.37
                             1891.91  2828.54  3552.38  3558.03  3941.06
                             4056.32

 Zero-point correction=                           0.054699 (Hartree/Particle)
 Thermal correction to Energy=                    0.060916
 Thermal correction to Enthalpy=                  0.061861
 Thermal correction to Gibbs Free Energy=         0.025289
 Sum of electronic and zero-point Energies=           -191.030939
 Sum of electronic and thermal Energies=              -191.024722
 Sum of electronic and thermal Enthalpies=            -191.023777
 Sum of electronic and thermal Free Energies=         -191.060349

                     E (Thermal)             CV                S
                      KCal/Mol        Cal/Mol-Kelvin    Cal/Mol-Kelvin
 Total                   38.226             20.634             76.972
 Electronic               0.000              0.000              1.377
 Translational            0.889              2.981             38.389
 Rotational               0.889              2.981             24.899
 Vibrational             36.448             14.673             12.306
 Vibration     1          0.608              1.937              3.185
 Vibration     2          0.621              1.894              2.576
 Vibration     3          0.639              1.837              2.114
 Vibration     4          0.709              1.625              1.285
 Vibration     5          0.773              1.451              0.930
 Vibration     6          0.830              1.310              0.729
 Vibration     7          0.953              1.042              0.458

 Optimization completed.
    -- Stationary point found.
 Normal termination of Gaussian 09 at Thu Jan 31 08:23:18 2019.
