 Gaussian 09, Revision E.01,
 Gaussian 09:  EM64L-G09RevE.01 30-Nov-2015

 ---------------------------------------------
 #p b3lyp/6-311++G(3df,2p) freq symmetry=Loose
 ---------------------------------------------

 ---------
 b3lyp opt
 ---------
 Symbolic Z-matrix:
 Charge =  1 Multiplicity = 2

                         Standard orientation:
 ---------------------------------------------------------------------
 Center     Atomic      Atomic             Coordinates (Angstroms)
 Number     Number       Type             X           Y           Z
 ---------------------------------------------------------------------
      1          6           0       -2.225048    0.031322    0.000046
      2          1           0       -2.595241    0.571917   -0.880703
      3          1           0       -2.628462   -0.990120   -0.023460
      4          1           0       -2.597017    0.531636    0.903625
      5          6           0       -0.811327   -0.023617   -0.000002
      6          6           0        1.805392   -0.766924   -0.000020
      7          6           0        0.457828   -0.085603    0.000053
      8          6           0        1.733383    0.560769    0.000019
      9          1           0        2.059355    1.590882   -0.000048
 ---------------------------------------------------------------------

 SCF Done:  E(UB3LYP) =  -192.470985760     A.U. after   17 cycles

 The electronic state is 2-A.
 Alpha  occ. eigenvalues --  -10.50656 -10.48667 -10.47974 -10.46467 -10.41780
 Alpha  occ. eigenvalues --   -1.16832  -1.05318  -0.95525  -0.81695  -0.73186
 Alpha  occ. eigenvalues --   -0.69456  -0.68533  -0.66573  -0.63041  -0.60552
 Alpha  occ. eigenvalues --   -0.49921  -0.49163
 Alpha virt. eigenvalues --   -0.33119  -0.24241  -0.20451  -0.16490  -0.13214
 Alpha virt. eigenvalues --   -0.11798  -0.11021  -0.10016  -0.09728  -0.07319
 Alpha virt. eigenvalues --   -0.07051  -0.06456  -0.06369  -0.05738  -0.03641

  Beta  occ. eigenvalues --  -10.49611 -10.48711 -10.47590 -10.46350 -10.41809
  Beta  occ. eigenvalues --   -1.16056  -1.03246  -0.94396  -0.81253  -0.72290
  Beta  occ. eigenvalues --   -0.69106  -0.66100  -0.66036  -0.60783  -0.60355
  Beta  occ. eigenvalues --   -0.48944
  Beta virt. eigenvalues --   -0.39643  -0.32100  -0.22282  -0.17389  -0.16329
  Beta virt. eigenvalues --   -0.13085  -0.11550  -0.10883  -0.09966  -0.09665
  Beta virt. eigenvalues --   -0.07097  -0.06499  -0.06250  -0.06077  -0.05691

 Mulliken charges and spin densities:
               1          2
     1  C   -0.202528   0.000527
     2  H    0.213712   0.041925
     3  H    0.216874   0.004213
     4  H    0.213815   0.043961
     5  C    0.285702   0.534219
     6  C   -0.259877   0.082458
     7  C    0.067661   0.003805
     8  C    0.157178   0.295729
     9  H    0.307464  -0.006837
 Sum of Mulliken charges =   1.00000   1.00000

 Dipole moment (field-independent basis, Debye):
    X=             -2.0635    Y=              2.5365    Z=             -0.0007  Tot=              3.2698
 Quadrupole moment (field-independent basis, Debye-Ang):
   XX=             -7.1164   YY=            -24.7009   ZZ=            -26.2363
   XY=              5.4654   XZ=              0.0015   YZ=              0.0002

  Exact polarizability:  99.848  -4.257  41.466   0.007  -0.002  32.816
 Approx polarizability: 204.685 -17.620  67.716   0.065  -0.017  49.044

                      1                      2                      3
                      A                      A                      A
 Frequencies --     38.5964               141.2201               184.1542
 Red. masses --      1.1724                 3.6904                 3.7250
 Frc consts  --      0.0010                 0.0434                 0.0744
 IR Inten    --      4.6348                 3.5749                 1.8129

                      4                      5                      6
                      A                      A                      A
 Frequencies --    424.2642               443.6067               595.9142
 Red. masses --      3.5429                 6.0794                 7.8830
 Frc consts  --      0.3757                 0.7049                 1.6493
 IR Inten    --      0.7433                 0.0463                 2.6055

                      7                      8                      9
                      A                      A                      A
 Frequencies --    705.6772               781.8243               939.8901
 Red. masses --      5.7116                 1.3640                 1.4239
 Frc consts  --      1.6758                 0.4912                 0.7411
 IR Inten    --     54.0131                30.2717                 7.2331

                     10                     11                     12
                      A                      A                      A
 Frequencies --    957.6815               989.5904              1115.4589
 Red. masses --      1.3844                 1.3653                 5.7516
 Frc consts  --      0.7481                 0.7878                 4.2165
 IR Inten    --     19.6669                 2.6520                 5.4716

                     13                     14                     15
                      A                      A                      A
 Frequencies --   1368.3687              1373.4470              1387.7413
 Red. masses --      1.2324                 1.0351                 1.0507
 Frc consts  --      1.3596                 1.1505                 1.1922
 IR Inten    --     25.7999                18.7897                16.7890

                     16                     17                     18
                      A                      A                      A
 Frequencies --   1514.4436              1890.4921              2965.0198
 Red. masses --      6.7003                10.5997                 1.0318
 Frc consts  --      9.0542                22.3199                 5.3447
 IR Inten    --      8.3927               308.5477               144.8140

                     19                     20                     21
                      A                      A                      A
 Frequencies --   3028.5794              3030.4220              3244.7922
 Red. masses --      1.0975                 1.0979                 1.1166
 Frc consts  --      5.9313                 5.9404                 6.9266
 IR Inten    --     21.9530                24.8600               103.5046

 - Thermochemistry -
 -------------------
 Temperature   298.150 Kelvin.  Pressure   1.00000 Atm.
 Atom     1 has atomic number  6 and mass  12.00000

 Molecular mass:    64.03130 amu.
 Principal axes and moments of inertia in atomic units:
                           1         2         3
     Eigenvalues --    59.27798 610.51807 658.33158
           X            0.99983   0.01840   0.00000
           Y           -0.01840   0.99983  -0.00001
           Z           -0.00000   0.00001   1.00000
 This molecule is an asymmetric top.
 Rotational symmetry number  1.
 Rotational temperatures (Kelvin)      1.46115     0.14187     0.13157
 Rotational constants (GHZ):          30.44539     2.95608     2.74139
 Zero-point vibrational energy     162220.7 (Joules/Mol)
                                   38.77168 (Kcal/Mol)
 Warning -- explicit consideration of   6 degrees of freedom as
           vibrations may cause significant error
 Vibrational temperatures:     55.53   203.18   264.96   610.42   638.25
          (Kelvin)            857.39  1015.31  1124.87  1352.29  1377.89
                             1423.80  1604.89  1968.77  1976.08  1996.65
                             2178.94  2719.99  4266.00  4357.44  4360.10
                             4668.53

 Zero-point correction=                           0.061787 (Hartree/Particle)
 Thermal correction to Energy=                    0.067817
 Thermal correction to Enthalpy=                  0.068761
 Thermal correction to Gibbs Free Energy=         0.031710
 Sum of electronic and zero-point Energies=           -192.409199
 Sum of electronic and thermal Energies=              -192.403169
 Sum of electronic and thermal Enthalpies=            -192.402225
 Sum of electronic and thermal Free Energies=         -192.439276

                     E (Thermal)             CV                S
                      KCal/Mol        Cal/Mol-Kelvin    Cal/Mol-Kelvin
 Total                   42.556             19.012             77.981
 Electronic               0.000              0.000              1.377
 Translational            0.889              2.981             38.389
 Rotational               0.889              2.981             24.681
 Vibrational             40.778             13.051             13.534
 Vibration     1          0.594              1.981              5.330
 Vibration     2          0.615              1.912              2.787
 Vibration     3          0.631              1.861              2.286
 Vibration     4          0.786              1.417              0.878
 Vibration     5          0.803              1.375              0.815
 Vibration     6          0.954              1.040              0.457

 Normal termination of Gaussian 09 at Mon Jun 20 04:01:15 2016.
