 Gaussian 09, Revision E.01,
 Gaussian 09:  EM64L-G09RevE.01 30-Nov-2015

 ---------------------------------------------
 #p b3lyp/6-311++G(3df,2p) freq symmetry=Loose
 ---------------------------------------------

 ---------
 b3lyp opt
 ---------
 Symbolic Z-matrix:
 Charge =  0 Multiplicity = 3

                         Standard orientation:
 ---------------------------------------------------------------------
 Center     Atomic      Atomic             Coordinates (Angstroms)
 Number     Number       Type             X           Y           Z
 ---------------------------------------------------------------------
      1          6           0        1.233328    0.055940   -0.000000
      2          1           0        2.306925    0.146082   -0.000000
      3          6           0       -0.000000    0.672364   -0.000000
      4          6           0       -0.797367    1.751556   -0.000000
      5          1           0       -1.872597    1.654662   -0.000000
      6          1           0       -0.375592    2.747593   -0.000000
      7          6           0        0.147804   -0.807173    0.000000
      8          6           0       -0.369756   -2.018172    0.000000
      9          1           0       -1.342793   -2.475431    0.000000
 ---------------------------------------------------------------------

 SCF Done:  E(UB3LYP) =  -192.774432579     A.U. after   16 cycles

 The electronic state is 3-A".
 Alpha  occ. eigenvalues --  -10.22590 -10.21788 -10.21439 -10.20425 -10.17891
 Alpha  occ. eigenvalues --   -0.92154  -0.75201  -0.72892  -0.58719  -0.53186
 Alpha  occ. eigenvalues --   -0.49675  -0.45622  -0.41157  -0.39290  -0.35776
 Alpha  occ. eigenvalues --   -0.27725  -0.23543  -0.21774
 Alpha virt. eigenvalues --   -0.00434  -0.00235   0.01025   0.01490   0.03493
 Alpha virt. eigenvalues --    0.04659   0.05238   0.05691   0.06582   0.08330
 Alpha virt. eigenvalues --    0.09399   0.09807   0.09962   0.10746   0.11793

  Beta  occ. eigenvalues --  -10.21781 -10.21728 -10.21686 -10.18458 -10.17380
  Beta  occ. eigenvalues --   -0.91030  -0.73432  -0.69826  -0.57192  -0.51829
  Beta  occ. eigenvalues --   -0.48660  -0.44968  -0.39261  -0.37767  -0.33712
  Beta  occ. eigenvalues --   -0.24052
  Beta virt. eigenvalues --   -0.11876  -0.09231  -0.00294   0.01177   0.01473
  Beta virt. eigenvalues --    0.01650   0.03538   0.05008   0.05642   0.05826
  Beta virt. eigenvalues --    0.08223   0.08654   0.09940   0.10280   0.11053

 Mulliken charges and spin densities:
               1          2
     1  C   -0.031321   0.579814
     2  H    0.248221   0.003292
     3  C    0.060046  -0.032169
     4  C   -0.555678   0.405139
     5  H    0.168910  -0.011650
     6  H    0.166068   0.000141
     7  C    0.144066  -0.283761
     8  C   -0.409476   1.327066
     9  H    0.209164   0.012128
 Sum of Mulliken charges =  -0.00000   2.00000

 Dipole moment (field-independent basis, Debye):
    X=              0.3812    Y=              0.6498    Z=             -0.0000  Tot=              0.7533
 Quadrupole moment (field-independent basis, Debye-Ang):
   XX=            -24.9746   YY=            -30.3933   ZZ=            -32.6603
   XY=              2.0061   XZ=             -0.0000   YZ=              0.0000

  Exact polarizability:  61.840  -4.977 111.248   0.000  -0.000  39.549
 Approx polarizability:  94.205  -7.356 180.395  -0.000  -0.000  55.803

                      1                      2                      3
                     A'                     A"                     A'
 Frequencies --    226.2608               297.4639               438.2408
 Red. masses --      2.7604                 2.8156                 2.4398
 Frc consts  --      0.0833                 0.1468                 0.2761
 IR Inten    --      0.4800                 6.2405                 6.5359

                      4                      5                      6
                     A"                     A"                     A"
 Frequencies --    464.0409               549.2131               630.2620
 Red. masses --      1.9815                 1.7746                 1.0687
 Frc consts  --      0.2514                 0.3154                 0.2501
 IR Inten    --      2.0427                24.1931                27.4284

                      7                      8                      9
                     A"                     A'                     A'
 Frequencies --    689.4205               696.7886               782.6897
 Red. masses --      1.7175                 3.9125                 1.6083
 Frc consts  --      0.4810                 1.1192                 0.5805
 IR Inten    --      7.0043                 5.7022                13.5689

                     10                     11                     12
                     A"                     A'                     A'
 Frequencies --    805.9990               892.8364              1063.5001
 Red. masses --      1.3442                 1.8379                 1.6922
 Frc consts  --      0.5145                 0.8632                 1.1276
 IR Inten    --     60.2811                61.8959                 0.8497

                     13                     14                     15
                     A'                     A'                     A'
 Frequencies --   1101.0302              1145.8091              1393.9408
 Red. masses --      2.2909                 3.8455                 2.9088
 Frc consts  --      1.6363                 2.9746                 3.3301
 IR Inten    --     15.8686                 5.1385               200.6695

                     16                     17                     18
                     A'                     A'                     A'
 Frequencies --   1489.2806              1736.9659              3140.2794
 Red. masses --      1.5540                 8.6270                 1.0545
 Frc consts  --      2.0307                15.3354                 6.1266
 IR Inten    --     39.9647                50.6163                 6.9197

                     19                     20                     21
                     A'                     A'                     A'
 Frequencies --   3230.7699              3232.5692              3264.7284
 Red. masses --      1.1109                 1.1102                 1.0984
 Frc consts  --      6.8321                 6.8353                 6.8979
 IR Inten    --      1.2498                 2.8875                 4.8909

 - Thermochemistry -
 -------------------
 Temperature   298.150 Kelvin.  Pressure   1.00000 Atm.
 Atom     1 has atomic number  6 and mass  12.00000

 Molecular mass:    64.03130 amu.
 Principal axes and moments of inertia in atomic units:
                           1         2         3
     Eigenvalues --   134.31940 415.93993 550.25933
           X           -0.11283   0.99361   0.00000
           Y            0.99361   0.11283   0.00000
           Z           -0.00000  -0.00000   1.00000
 This molecule is an asymmetric top.
 Rotational symmetry number  1.
 Rotational temperatures (Kelvin)      0.64483     0.20824     0.15741
 Rotational constants (GHZ):          13.43619     4.33895     3.27980
 Zero-point vibrational energy     163123.3 (Joules/Mol)
                                   38.98741 (Kcal/Mol)
 Warning -- explicit consideration of   5 degrees of freedom as
           vibrations may cause significant error
 Vibrational temperatures:    325.54   427.98   630.53   667.65   790.19
          (Kelvin)            906.81   991.92  1002.52  1126.11  1159.65
                             1284.59  1530.14  1584.13  1648.56  2005.57
                             2142.74  2499.10  4518.16  4648.35  4650.94
                             4697.21

 Zero-point correction=                           0.062130 (Hartree/Particle)
 Thermal correction to Energy=                    0.067303
 Thermal correction to Enthalpy=                  0.068247
 Thermal correction to Gibbs Free Energy=         0.033659
 Sum of electronic and zero-point Energies=           -192.712302
 Sum of electronic and thermal Energies=              -192.707130
 Sum of electronic and thermal Enthalpies=            -192.706185
 Sum of electronic and thermal Free Energies=         -192.740773

                     E (Thermal)             CV                S
                      KCal/Mol        Cal/Mol-Kelvin    Cal/Mol-Kelvin
 Total                   42.233             18.836             72.796
 Electronic               0.000              0.000              2.183
 Translational            0.889              2.981             38.389
 Rotational               0.889              2.981             24.934
 Vibrational             40.456             12.874              7.290
 Vibration     1          0.650              1.801              1.908
 Vibration     2          0.691              1.678              1.431
 Vibration     3          0.798              1.387              0.832
 Vibration     4          0.822              1.330              0.754
 Vibration     5          0.904              1.141              0.546

 Optimization completed.
    -- Stationary point found.
 Normal termination of Gaussian 09 at Wed Jul 20 05:34:21 2016.
