 Gaussian 09, Revision E.01,
 Gaussian 09:  EM64L-G09RevE.01 30-Nov-2015

 ---------------------------------------------
 #p b3lyp/6-311++G(3df,2p) freq symmetry=Loose
 ---------------------------------------------

 ---------
 b3lyp opt
 ---------
 Symbolic Z-matrix:
 Charge =  2 Multiplicity = 3

                         Standard orientation:
 ---------------------------------------------------------------------
 Center     Atomic      Atomic             Coordinates (Angstroms)
 Number     Number       Type             X           Y           Z
 ---------------------------------------------------------------------
      1          6           0        1.751698   -0.144828    0.671265
      2          6           0        0.559362    0.140445   -0.001709
      3          6           0        1.751190   -0.162588   -0.667780
      4          6           0       -1.910425   -0.372535    0.004233
      5          1           0       -2.620774   -0.024208    0.810081
      6          1           0       -2.621719   -0.041829   -0.808190
      7          1           0       -1.730174   -1.441915    0.016063
      8          6           0       -0.824766    0.522612   -0.005927
      9          1           0       -0.989690    1.609315   -0.018441
 ---------------------------------------------------------------------

 SCF Done:  E(UB3LYP) =  -191.857359172     A.U. after   16 cycles

 The electronic state is 3-A.
 Alpha  occ. eigenvalues --  -10.78989 -10.78905 -10.77263 -10.75401 -10.62418
 Alpha  occ. eigenvalues --   -1.46635  -1.29076  -1.14905  -1.02478  -1.00519
 Alpha  occ. eigenvalues --   -0.95197  -0.91822  -0.87160  -0.85335  -0.84464
 Alpha  occ. eigenvalues --   -0.82577  -0.77393
 Alpha virt. eigenvalues --   -0.58385  -0.52967  -0.50652  -0.33726  -0.30961
 Alpha virt. eigenvalues --   -0.29623  -0.28708  -0.28036  -0.27138  -0.25929
 Alpha virt. eigenvalues --   -0.23606  -0.23403  -0.22581  -0.20473  -0.20104

  Beta  occ. eigenvalues --  -10.77058 -10.76987 -10.76961 -10.75331 -10.62373
  Beta  occ. eigenvalues --   -1.44719  -1.28526  -1.14080  -0.99723  -0.96290
  Beta  occ. eigenvalues --   -0.93239  -0.90261  -0.85872  -0.83771  -0.83111
  Beta virt. eigenvalues --   -0.64680  -0.63732  -0.54791  -0.51846  -0.46482
  Beta virt. eigenvalues --   -0.33183  -0.30277  -0.29573  -0.27941  -0.26594
  Beta virt. eigenvalues --   -0.26239  -0.23467  -0.23251  -0.23119  -0.22267

 Mulliken charges and spin densities:
               1          2
     1  C    0.309876   1.002009
     2  C    0.509345  -0.154649
     3  C    0.310115   1.001913
     4  C   -0.298217   0.047464
     5  H    0.295093   0.027050
     6  H    0.295013   0.026984
     7  H    0.250412  -0.000120
     8  C    0.050142   0.052041
     9  H    0.278222  -0.002692
 Sum of Mulliken charges =   2.00000   2.00000

 Dipole moment (field-independent basis, Debye):
    X=             -1.3673    Y=              0.7933    Z=             -0.0082  Tot=              1.5808
 Quadrupole moment (field-independent basis, Debye-Ang):
   XX=              6.8662   YY=            -19.4505   ZZ=            -20.7716
   XY=             -1.2127   XZ=              0.0122   YZ=             -0.0112

  Exact polarizability:  77.108  -0.637  32.956   0.007   0.030  34.630
 Approx polarizability: 124.819  -2.437  50.131   0.030   0.178  62.655

                      1                      2                      3
                      A                      A                      A
 Frequencies --    140.6888               176.9295               218.9251
 Red. masses --      2.5412                 1.2821                 3.7278
 Frc consts  --      0.0296                 0.0236                 0.1053
 IR Inten    --      6.0098                24.7825                 0.6337

                      4                      5                      6
                      A                      A                      A
 Frequencies --    311.5594               568.1942               737.0036
 Red. masses --      4.0200                 5.5110                 2.6473
 Frc consts  --      0.2299                 1.0483                 0.8472
 IR Inten    --      0.8510                 0.6453                 8.1063

                      7                      8                      9
                      A                      A                      A
 Frequencies --    745.0358               939.1574               944.6082
 Red. masses --      1.1329                 2.2871                 1.5917
 Frc consts  --      0.3705                 1.1885                 0.8368
 IR Inten    --     11.5833                 3.6009               425.2857

                     10                     11                     12
                      A                      A                      A
 Frequencies --   1067.4528              1092.5283              1239.2084
 Red. masses --      1.1615                 5.7196                 1.9065
 Frc consts  --      0.7798                 4.0223                 1.7250
 IR Inten    --    186.1491                69.5327                20.4422

                     13                     14                     15
                      A                      A                      A
 Frequencies --   1272.2762              1281.8463              1349.5494
 Red. masses --      8.0386                 1.0690                 1.4056
 Frc consts  --      7.6664                 1.0349                 1.5083
 IR Inten    --     30.5539                29.4302                17.1145

                     16                     17                     18
                      A                      A                      A
 Frequencies --   1488.1245              1694.6066              2690.7010
 Red. masses --      1.5244                11.9623                 1.0686
 Frc consts  --      1.9890                20.2396                 4.5581
 IR Inten    --     25.6203                21.4845               165.0990

                     19                     20                     21
                      A                      A                      A
 Frequencies --   2762.9561              3040.5374              3172.6493
 Red. masses --      1.0597                 1.0901                 1.0979
 Frc consts  --      4.7665                 5.9376                 6.5114
 IR Inten    --    637.1042               114.9392                40.2150

 - Thermochemistry -
 -------------------
 Temperature   298.150 Kelvin.  Pressure   1.00000 Atm.
 Atom     1 has atomic number  6 and mass  12.00000

 Molecular mass:    64.03130 amu.
 Principal axes and moments of inertia in atomic units:
                           1         2         3
     Eigenvalues --    80.44640 559.47744 565.30903
           X            0.99997   0.00008   0.00777
           Y           -0.00777   0.02355   0.99969
           Z            0.00010   0.99972  -0.02355
 This molecule is an asymmetric top.
 Rotational symmetry number  1.
 Rotational temperatures (Kelvin)      1.07666     0.15481     0.15321
 Rotational constants (GHZ):          22.43408     3.22576     3.19249
 Zero-point vibrational energy     161104.3 (Joules/Mol)
                                   38.50486 (Kcal/Mol)
 Warning -- explicit consideration of   5 degrees of freedom as
           vibrations may cause significant error
 Vibrational temperatures:    202.42   254.56   314.98   448.26   817.50
          (Kelvin)           1060.38  1071.94  1351.24  1359.08  1535.82
                             1571.90  1782.94  1830.52  1844.29  1941.70
                             2141.08  2438.16  3871.31  3975.27  4374.65
                             4564.73

 Zero-point correction=                           0.061361 (Hartree/Particle)
 Thermal correction to Energy=                    0.066963
 Thermal correction to Enthalpy=                  0.067908
 Thermal correction to Gibbs Free Energy=         0.032115
 Sum of electronic and zero-point Energies=           -191.795998
 Sum of electronic and thermal Energies=              -191.790396
 Sum of electronic and thermal Enthalpies=            -191.789452
 Sum of electronic and thermal Free Energies=         -191.825244

                     E (Thermal)             CV                S
                      KCal/Mol        Cal/Mol-Kelvin    Cal/Mol-Kelvin
 Total                   42.020             18.043             75.332
 Electronic               0.000              0.000              2.183
 Translational            0.889              2.981             38.389
 Rotational               0.889              2.981             24.746
 Vibrational             40.243             12.082             10.014
 Vibration     1          0.615              1.913              2.794
 Vibration     2          0.628              1.871              2.361
 Vibration     3          0.647              1.812              1.968
 Vibration     4          0.700              1.652              1.354
 Vibration     5          0.924              1.100              0.508

 Normal termination of Gaussian 09 at Mon Jun 20 08:58:27 2016.
