 Gaussian 09, Revision E.01,
 Gaussian 09:  EM64L-G09RevE.01 30-Nov-2015

 ---------------------------------------------
 #p b3lyp/6-311++G(3df,2p) freq symmetry=Loose
 ---------------------------------------------

 ---------
 b3lyp opt
 ---------
 Symbolic Z-matrix:
 Charge =  2 Multiplicity = 3

                         Standard orientation:
 ---------------------------------------------------------------------
 Center     Atomic      Atomic             Coordinates (Angstroms)
 Number     Number       Type             X           Y           Z
 ---------------------------------------------------------------------
      1          1           0        0.081342    1.743936    1.369376
      2          6           0        0.263094   -1.044786   -0.000000
      3          6           0       -0.062338    0.860955   -0.742601
      4          1           0        0.081342    1.743936   -1.369376
      5          6           0       -0.062338    0.860955    0.742601
      6          6           0       -0.062338   -0.481414   -1.228527
      7          1           0       -0.122566   -0.886828   -2.237886
      8          6           0       -0.062338   -0.481414    1.228527
      9          1           0       -0.122566   -0.886828    2.237886
 ---------------------------------------------------------------------

 SCF Done:  E(UB3LYP) =  -191.949485457     A.U. after   15 cycles

 The electronic state is 3-A".
 Alpha  occ. eigenvalues --  -10.80521 -10.73920 -10.73892 -10.73088 -10.73084
 Alpha  occ. eigenvalues --   -1.43588  -1.26135  -1.20592  -1.05637  -1.04112
 Alpha  occ. eigenvalues --   -0.99040  -0.94178  -0.92361  -0.88664  -0.88613
 Alpha  occ. eigenvalues --   -0.77228  -0.75416
 Alpha virt. eigenvalues --   -0.63090  -0.48231  -0.48060  -0.32577  -0.31148
 Alpha virt. eigenvalues --   -0.30447  -0.28807  -0.28260  -0.28123  -0.26494
 Alpha virt. eigenvalues --   -0.23956  -0.23666  -0.22267  -0.20853  -0.20160

  Beta  occ. eigenvalues --  -10.79475 -10.73342 -10.73314 -10.72449 -10.72447
  Beta  occ. eigenvalues --   -1.41421  -1.23718  -1.18205  -1.04099  -1.02863
  Beta  occ. eigenvalues --   -0.97066  -0.93473  -0.89375  -0.87713  -0.85377
  Beta virt. eigenvalues --   -0.64491  -0.64245  -0.59762  -0.43312  -0.42482
  Beta virt. eigenvalues --   -0.31923  -0.30233  -0.29441  -0.28214  -0.27998
  Beta virt. eigenvalues --   -0.27520  -0.26004  -0.23500  -0.23035  -0.21828

 Mulliken charges and spin densities:
               1          2
     1  H    0.288610  -0.002178
     2  C    0.552836   0.524983
     3  C    0.051983   0.367964
     4  H    0.288610  -0.002178
     5  C    0.051983   0.367964
     6  C    0.040674   0.377697
     7  H    0.342316  -0.005975
     8  C    0.040674   0.377697
     9  H    0.342316  -0.005975
 Sum of Mulliken charges =   2.00000   2.00000

 Dipole moment (field-independent basis, Debye):
    X=             -0.0362    Y=              0.1675    Z=              0.0000  Tot=              0.1714
 Quadrupole moment (field-independent basis, Debye-Ang):
   XX=            -24.9135   YY=            -10.3452   ZZ=             -4.1696
   XY=             -0.0101   XZ=             -0.0000   YZ=             -0.0000

  Exact polarizability:  24.772  -2.248  49.267   0.000  -0.000  51.520
 Approx polarizability:  39.094  -8.513 101.663  -0.000  -0.000  88.570

                      1                      2                      3
                     A"                     A'                     A'
 Frequencies --    242.2943               437.0240               510.3438
 Red. masses --      2.0277                 3.4456                 4.7737
 Frc consts  --      0.0701                 0.3877                 0.7325
 IR Inten    --      2.7130                18.4173                10.1569

                      4                      5                      6
                     A"                     A'                     A"
 Frequencies --    562.4879               717.6891               810.3705
 Red. masses --      2.9564                 1.3492                 1.5653
 Frc consts  --      0.5511                 0.4094                 0.6057
 IR Inten    --      2.7023                82.2542                 5.4913

                      7                      8                      9
                     A'                     A'                     A"
 Frequencies --    881.9322               907.8006               928.0895
 Red. masses --      1.9595                 1.6594                 1.7619
 Frc consts  --      0.8980                 0.8057                 0.8942
 IR Inten    --      3.7277                 5.3494                 1.3319

                     10                     11                     12
                     A'                     A"                     A'
 Frequencies --   1012.3703              1039.7074              1086.3283
 Red. masses --      5.1086                 1.3920                 1.0606
 Frc consts  --      3.0849                 0.8866                 0.7374
 IR Inten    --      9.3200                 0.0211                 5.9570

                     13                     14                     15
                     A'                     A"                     A"
 Frequencies --   1199.7765              1214.9336              1332.2194
 Red. masses --      3.1690                 1.4073                 3.7109
 Frc consts  --      2.6876                 1.2239                 3.8804
 IR Inten    --     14.2005                 7.9526                55.2559

                     16                     17                     18
                     A'                     A"                     A"
 Frequencies --   1332.8289              1390.2981              3105.9318
 Red. masses --      2.1168                 3.4386                 1.0952
 Frc consts  --      2.2155                 3.9161                 6.2248
 IR Inten    --     93.3076                81.6686                49.5758

                     19                     20                     21
                     A'                     A"                     A'
 Frequencies --   3114.4812              3142.4783              3153.3857
 Red. masses --      1.0940                 1.1008                 1.1072
 Frc consts  --      6.2525                 6.4047                 6.4868
 IR Inten    --    234.5330               388.9985                14.9798

 - Thermochemistry -
 -------------------
 Temperature   298.150 Kelvin.  Pressure   1.00000 Atm.
 Atom     1 has atomic number  1 and mass   1.00783

 Molecular mass:    64.03130 amu.
 Principal axes and moments of inertia in atomic units:
                           1         2         3
     Eigenvalues --   161.34768 229.02029 384.65291
           X            0.00000  -0.07731   0.99701
           Y            0.00000   0.99701   0.07731
           Z            1.00000  -0.00000  -0.00000
 This molecule is an asymmetric top.
 Rotational symmetry number  1.
 Rotational temperatures (Kelvin)      0.53681     0.37819     0.22517
 Rotational constants (GHZ):          11.18542     7.88027     4.69187
 Zero-point vibrational energy     168211.5 (Joules/Mol)
                                   40.20352 (Kcal/Mol)
 Warning -- explicit consideration of   4 degrees of freedom as
           vibrations may cause significant error
 Vibrational temperatures:    348.61   628.78   734.27   809.29  1032.59
          (Kelvin)           1165.94  1268.90  1306.12  1335.31  1456.57
                             1495.91  1562.98  1726.21  1748.02  1916.76
                             1917.64  2000.33  4468.74  4481.04  4521.32
                             4537.01

 Zero-point correction=                           0.064068 (Hartree/Particle)
 Thermal correction to Energy=                    0.068565
 Thermal correction to Enthalpy=                  0.069509
 Thermal correction to Gibbs Free Energy=         0.036350
 Sum of electronic and zero-point Energies=           -191.885417
 Sum of electronic and thermal Energies=              -191.880921
 Sum of electronic and thermal Enthalpies=            -191.879977
 Sum of electronic and thermal Free Energies=         -191.913136

                     E (Thermal)             CV                S
                      KCal/Mol        Cal/Mol-Kelvin    Cal/Mol-Kelvin
 Total                   43.025             16.141             69.790
 Electronic               0.000              0.000              2.183
 Translational            0.889              2.981             38.389
 Rotational               0.889              2.981             24.167
 Vibrational             41.248             10.179              5.050
 Vibration     1          0.658              1.775              1.786
 Vibration     2          0.797              1.389              0.836
 Vibration     3          0.865              1.227              0.633
 Vibration     4          0.918              1.112              0.519

 Optimization completed.
    -- Stationary point found.
 Normal termination of Gaussian 09 at Wed Jul 20 06:22:08 2016.
