 Gaussian 09, Revision E.01,
 Gaussian 09:  EM64L-G09RevE.01 30-Nov-2015

 ---------------------------------------------
 #p b3lyp/6-311++G(3df,2p) freq symmetry=Loose
 ---------------------------------------------

 ---------
 b3lyp opt
 ---------
 Symbolic Z-matrix:
 Charge =  0 Multiplicity = 3

                         Standard orientation:
 ---------------------------------------------------------------------
 Center     Atomic      Atomic             Coordinates (Angstroms)
 Number     Number       Type             X           Y           Z
 ---------------------------------------------------------------------
      1          6           0        0.208924   -1.450626    0.000000
      2          6           0       -1.055312   -0.616866    0.000000
      3          1           0       -1.670726   -0.671860    0.896005
      4          1           0        2.178665   -0.375826   -0.000000
      5          6           0        1.104954   -0.462382   -0.000000
      6          1           0       -1.670726   -0.671860   -0.896005
      7          6           0       -0.000000    0.533860   -0.000000
      8          6           0       -0.138197    1.827085   -0.000000
      9          1           0        0.440571    2.733126   -0.000000
 ---------------------------------------------------------------------

 SCF Done:  E(UB3LYP) =  -192.747370075     A.U. after   17 cycles

 The electronic state is 3-A'.
 Alpha  occ. eigenvalues --  -10.22246 -10.21335 -10.20526 -10.19805 -10.19608
 Alpha  occ. eigenvalues --   -0.90218  -0.74911  -0.69040  -0.56370  -0.54179
 Alpha  occ. eigenvalues --   -0.48482  -0.46299  -0.42265  -0.38965  -0.32461
 Alpha  occ. eigenvalues --   -0.26619  -0.25763  -0.24135
 Alpha virt. eigenvalues --   -0.03720  -0.00270   0.01380   0.01388   0.01732
 Alpha virt. eigenvalues --    0.04405   0.04595   0.05678   0.06049   0.08446
 Alpha virt. eigenvalues --    0.08711   0.09422   0.10593   0.11350   0.12351

  Beta  occ. eigenvalues --  -10.21289 -10.20783 -10.20180 -10.19568 -10.18083
  Beta  occ. eigenvalues --   -0.88620  -0.72113  -0.68215  -0.53759  -0.53341
  Beta  occ. eigenvalues --   -0.45975  -0.45652  -0.39797  -0.37539  -0.32118
  Beta  occ. eigenvalues --   -0.24359
  Beta virt. eigenvalues --   -0.11210  -0.09288  -0.01926  -0.00032   0.01470
  Beta virt. eigenvalues --    0.01594   0.01979   0.04689   0.04855   0.06059
  Beta virt. eigenvalues --    0.06296   0.08471   0.09309   0.09814   0.10983

 Mulliken charges and spin densities:
               1          2
     1  C    0.007146   0.993143
     2  C   -0.580240   0.079475
     3  H    0.163066  -0.000224
     4  H    0.237947   0.004068
     5  C   -0.142514  -0.069065
     6  H    0.163066  -0.000224
     7  C    0.421760   0.008899
     8  C   -0.483449   0.957802
     9  H    0.213219   0.026126
 Sum of Mulliken charges =  -0.00000   2.00000

 Dipole moment (field-independent basis, Debye):
    X=              0.3149    Y=              0.3191    Z=              0.0000  Tot=              0.4483
 Quadrupole moment (field-independent basis, Debye-Ang):
   XX=            -26.7841   YY=            -31.0214   ZZ=            -31.5472
   XY=              2.5194   XZ=             -0.0000   YZ=             -0.0000

  Exact polarizability:  56.703  -0.113  79.302   0.000  -0.000  41.331
 Approx polarizability:  81.915   2.700 130.851  -0.000   0.000  59.639

                      1                      2                      3
                     A"                     A'                     A"
 Frequencies --    189.2803               355.6039               453.1208
 Red. masses --      4.3711                 2.4404                 1.9438
 Frc consts  --      0.0923                 0.1818                 0.2351
 IR Inten    --      3.6983                 2.4722                25.6197

                      4                      5                      6
                     A"                     A'                     A'
 Frequencies --    611.8372               661.3128               763.4174
 Red. masses --      1.2168                 2.7260                 2.3641
 Frc consts  --      0.2684                 0.7024                 0.8118
 IR Inten    --     47.6203                 4.3335                17.9065

                      7                      8                      9
                     A"                     A'                     A'
 Frequencies --    828.5239               833.7439               954.4757
 Red. masses --      1.5202                 3.0234                 4.7907
 Frc consts  --      0.6149                 1.2383                 2.5714
 IR Inten    --     21.7258                10.2317                 6.7799

                     10                     11                     12
                     A"                     A'                     A"
 Frequencies --    984.3483              1024.8024              1048.1381
 Red. masses --      1.5521                 4.7178                 1.0885
 Frc consts  --      0.8861                 2.9192                 0.7046
 IR Inten    --     12.1895                 0.8095                 0.1947

                     13                     14                     15
                     A'                     A'                     A'
 Frequencies --   1149.9733              1201.4056              1465.2266
 Red. masses --      1.2831                 1.6121                 1.1362
 Frc consts  --      0.9997                 1.3709                 1.4372
 IR Inten    --      0.5712                 9.0206                 3.0231

                     16                     17                     18
                     A'                     A'                     A'
 Frequencies --   1559.2459              1684.8470              3066.7600
 Red. masses --      6.2680                 8.1997                 1.0548
 Frc consts  --      8.9785                13.7142                 5.8449
 IR Inten    --      3.5364                11.8287                16.4384

                     19                     20                     21
                     A"                     A'                     A'
 Frequencies --   3120.5770              3239.5137              3267.9228
 Red. masses --      1.1092                 1.1012                 1.1052
 Frc consts  --      6.3640                 6.8090                 6.9539
 IR Inten    --      7.1893                 0.7501                 2.7469

 - Thermochemistry -
 -------------------
 Temperature   298.150 Kelvin.  Pressure   1.00000 Atm.
 Atom     1 has atomic number  6 and mass  12.00000

 Molecular mass:    64.03130 amu.
 Principal axes and moments of inertia in atomic units:
                           1         2         3
     Eigenvalues --   145.93021 307.70144 442.07414
           X           -0.05136   0.99868   0.00000
           Y            0.99868   0.05136   0.00000
           Z           -0.00000   0.00000   1.00000
 This molecule is an asymmetric top.
 Rotational symmetry number  1.
 Rotational temperatures (Kelvin)      0.59353     0.28149     0.19593
 Rotational constants (GHZ):          12.36715     5.86523     4.08244
 Zero-point vibrational energy     170253.0 (Joules/Mol)
                                   40.69144 (Kcal/Mol)
 Warning -- explicit consideration of   4 degrees of freedom as
           vibrations may cause significant error
 Vibrational temperatures:    272.33   511.63   651.94   880.30   951.48
          (Kelvin)           1098.39  1192.06  1199.57  1373.28  1416.26
                             1474.46  1508.04  1654.55  1728.55  2108.13
                             2243.40  2424.12  4412.38  4489.81  4660.93
                             4701.81

 Zero-point correction=                           0.064846 (Hartree/Particle)
 Thermal correction to Energy=                    0.069581
 Thermal correction to Enthalpy=                  0.070525
 Thermal correction to Gibbs Free Energy=         0.036734
 Sum of electronic and zero-point Energies=           -192.682524
 Sum of electronic and thermal Energies=              -192.677789
 Sum of electronic and thermal Enthalpies=            -192.676845
 Sum of electronic and thermal Free Energies=         -192.710636

                     E (Thermal)             CV                S
                      KCal/Mol        Cal/Mol-Kelvin    Cal/Mol-Kelvin
 Total                   43.663             16.691             71.119
 Electronic               0.000              0.000              2.183
 Translational            0.889              2.981             38.389
 Rotational               0.889              2.981             24.499
 Vibrational             41.885             10.730              6.047
 Vibration     1          0.633              1.855              2.235
 Vibration     2          0.731              1.564              1.141
 Vibration     3          0.812              1.354              0.786
 Vibration     4          0.971              1.007              0.430

 Optimization completed.
    -- Stationary point found.
 Normal termination of Gaussian 09 at Wed Jul 20 10:00:27 2016.
