 Gaussian 09, Revision E.01,
 Gaussian 09:  EM64L-G09RevE.01 30-Nov-2015

 ---------------------------------------------
 #p b3lyp/6-311++G(3df,2p) freq symmetry=Loose
 ---------------------------------------------

 ---------
 b3lyp opt
 ---------
 Symbolic Z-matrix:
 Charge =  2 Multiplicity = 3

                         Standard orientation:
 ---------------------------------------------------------------------
 Center     Atomic      Atomic             Coordinates (Angstroms)
 Number     Number       Type             X           Y           Z
 ---------------------------------------------------------------------
      1          6           0       -0.098606    0.319711   -0.000000
      2          6           0       -0.579572   -1.030013    0.000000
      3          1           0       -1.674579   -1.160782    0.000000
      4          1           0        0.412155    1.944713    1.640828
      5          6           0        0.264081   -2.140206    0.000000
      6          1           0        0.165877   -3.228021    0.000000
      7          6           0        0.264081    1.466869    0.672997
      8          6           0        0.264081    1.466869   -0.672997
      9          1           0        0.412155    1.944713   -1.640828
 ---------------------------------------------------------------------

 SCF Done:  E(UB3LYP) =  -191.956845350     A.U. after   13 cycles

 The electronic state is 3-A".
 Alpha  occ. eigenvalues --  -10.73309 -10.72656 -10.72480 -10.70553 -10.70478
 Alpha  occ. eigenvalues --   -1.42222  -1.29155  -1.11975  -1.04250  -1.00049
 Alpha  occ. eigenvalues --   -0.97010  -0.94405  -0.86060  -0.84929  -0.84547
 Alpha  occ. eigenvalues --   -0.76815  -0.72317
 Alpha virt. eigenvalues --   -0.51683  -0.49550  -0.47069  -0.32492  -0.29086
 Alpha virt. eigenvalues --   -0.29003  -0.28251  -0.27604  -0.25827  -0.25232
 Alpha virt. eigenvalues --   -0.25156  -0.22716  -0.22295  -0.19715  -0.19614

  Beta  occ. eigenvalues --  -10.72624 -10.72397 -10.70456 -10.70381 -10.70305
  Beta  occ. eigenvalues --   -1.41702  -1.25249  -1.08608  -1.03734  -0.99189
  Beta  occ. eigenvalues --   -0.95131  -0.92507  -0.84262  -0.84142  -0.83719
  Beta virt. eigenvalues --   -0.64629  -0.53428  -0.49257  -0.47054  -0.44555
  Beta virt. eigenvalues --   -0.31888  -0.28938  -0.27936  -0.27838  -0.27108
  Beta virt. eigenvalues --   -0.25478  -0.24664  -0.24470  -0.21919  -0.21883

 Mulliken charges and spin densities:
               1          2
     1  C    0.162986   0.022181
     2  C    0.139588   0.429547
     3  H    0.274814   0.040307
     4  H    0.367887   0.011265
     5  C   -0.033236   1.424801
     6  H    0.318955   0.007927
     7  C    0.200559   0.026353
     8  C    0.200559   0.026353
     9  H    0.367887   0.011265
 Sum of Mulliken charges =   2.00000   2.00000

 Dipole moment (field-independent basis, Debye):
    X=             -0.4972    Y=             -1.1503    Z=              0.0000  Tot=              1.2531
 Quadrupole moment (field-independent basis, Debye-Ang):
   XX=            -20.5996   YY=             10.6167   ZZ=            -16.6232
   XY=              4.0582   XZ=             -0.0000   YZ=             -0.0000

  Exact polarizability:  31.125   2.740  68.535  -0.000  -0.000  33.881
 Approx polarizability:  47.509   4.326  94.863   0.000   0.000  52.710

                      1                      2                      3
                     A"                     A'                     A"
 Frequencies --    123.7643               222.1431               293.6707
 Red. masses --      3.0774                 3.7276                 2.1846
 Frc consts  --      0.0278                 0.1084                 0.1110
 IR Inten    --      0.0272                 7.9902                22.9181

                      4                      5                      6
                     A'                     A"                     A'
 Frequencies --    543.4948               635.7965               703.8736
 Red. masses --      3.1139                 1.3302                 1.7940
 Frc consts  --      0.5419                 0.3168                 0.5237
 IR Inten    --      8.4243                21.3451                21.7841

                      7                      8                      9
                     A'                     A'                     A"
 Frequencies --    843.2274               920.2797               925.0314
 Red. masses --      1.3032                 1.4895                 1.4943
 Frc consts  --      0.5459                 0.7432                 0.7534
 IR Inten    --     59.4855                 4.0559                 5.6364

                     10                     11                     12
                     A"                     A'                     A"
 Frequencies --    975.4637               991.3964              1029.1846
 Red. masses --      1.3968                 1.5054                 1.3586
 Frc consts  --      0.7831                 0.8718                 0.8479
 IR Inten    --      1.6461                 8.9584                12.7158

                     13                     14                     15
                     A"                     A'                     A'
 Frequencies --   1149.2477              1211.2956              1238.8580
 Red. masses --      7.0033                 1.4214                 6.7085
 Frc consts  --      5.4498                 1.2287                 6.0662
 IR Inten    --     54.0571                 2.9215                91.8299

                     16                     17                     18
                     A'                     A'                     A'
 Frequencies --   1447.5291              1727.2304              2984.5207
 Red. masses --      4.4915                 5.8120                 1.0849
 Frc consts  --      5.5449                10.2159                 5.6937
 IR Inten    --     15.3848                92.9803               123.4648

                     19                     20                     21
                     A'                     A"                     A'
 Frequencies --   3132.3203              3144.6435              3184.5844
 Red. masses --      1.1009                 1.0983                 1.1543
 Frc consts  --      6.3638                 6.3991                 6.8973
 IR Inten    --    215.9525               234.5884               161.8085

 - Thermochemistry -
 -------------------
 Temperature   298.150 Kelvin.  Pressure   1.00000 Atm.
 Atom     1 has atomic number  6 and mass  12.00000

 Molecular mass:    64.03130 amu.
 Principal axes and moments of inertia in atomic units:
                           1         2         3
     Eigenvalues --    89.22953 535.26812 562.43353
           X            0.09346  -0.00000   0.99562
           Y            0.99562   0.00000  -0.09346
           Z           -0.00000   1.00000   0.00000
 This molecule is an asymmetric top.
 Rotational symmetry number  1.
 Rotational temperatures (Kelvin)      0.97069     0.16181     0.15400
 Rotational constants (GHZ):          20.22583     3.37166     3.20881
 Zero-point vibrational energy     164053.2 (Joules/Mol)
                                   39.20966 (Kcal/Mol)
 Warning -- explicit consideration of   4 degrees of freedom as
           vibrations may cause significant error
 Vibrational temperatures:    178.07   319.61   422.53   781.97   914.77
          (Kelvin)           1012.72  1213.21  1324.08  1330.91  1403.47
                             1426.40  1480.77  1653.51  1742.78  1782.44
                             2082.67  2485.10  4294.05  4506.70  4524.43
                             4581.90

 Zero-point correction=                           0.062485 (Hartree/Particle)
 Thermal correction to Energy=                    0.067745
 Thermal correction to Enthalpy=                  0.068689
 Thermal correction to Gibbs Free Energy=         0.033569
 Sum of electronic and zero-point Energies=           -191.894361
 Sum of electronic and thermal Energies=              -191.889101
 Sum of electronic and thermal Enthalpies=            -191.888156
 Sum of electronic and thermal Free Energies=         -191.923277

                     E (Thermal)             CV                S
                      KCal/Mol        Cal/Mol-Kelvin    Cal/Mol-Kelvin
 Total                   42.511             17.719             73.917
 Electronic               0.000              0.000              2.183
 Translational            0.889              2.981             38.389
 Rotational               0.889              2.981             24.800
 Vibrational             40.733             11.757              8.545
 Vibration     1          0.610              1.929              3.041
 Vibration     2          0.648              1.807              1.942
 Vibration     3          0.688              1.686              1.453
 Vibration     4          0.899              1.154              0.558

 Optimization completed.
    -- Stationary point found.
 Normal termination of Gaussian 09 at Wed Jul 20 00:41:06 2016.
