 Gaussian 09, Revision E.01,
 Gaussian 09:  EM64L-G09RevE.01 30-Nov-2015

 ---------------------------------------------
 #p b3lyp/6-311++G(3df,2p) freq symmetry=Loose
 ---------------------------------------------

 ---------
 b3lyp opt
 ---------
 Symbolic Z-matrix:
 Charge =  1 Multiplicity = 2

                         Standard orientation:
 ---------------------------------------------------------------------
 Center     Atomic      Atomic             Coordinates (Angstroms)
 Number     Number       Type             X           Y           Z
 ---------------------------------------------------------------------
      1          6           0        0.888952   -0.799716    0.000000
      2          1           0        0.496933   -1.817257    0.000000
      3          6           0       -2.048608    1.324270   -0.000000
      4          6           0        2.205970   -0.574813    0.000000
      5          1           0        3.142248   -1.115943    0.000000
      6          6           0       -0.000000    0.295147   -0.000000
      7          1           0        0.426011    1.293478    0.000000
      8          6           0       -1.402712    0.160801   -0.000000
      9          1           0       -1.926802   -0.794413   -0.000000
 ---------------------------------------------------------------------

 SCF Done:  E(UB3LYP) =  -192.434064904     A.U. after   20 cycles

 The electronic state is 2-A'.
 Alpha  occ. eigenvalues --  -10.50370 -10.48954 -10.46983 -10.42935 -10.42212
 Alpha  occ. eigenvalues --   -1.09420  -1.03036  -0.91383  -0.80423  -0.78325
 Alpha  occ. eigenvalues --   -0.72187  -0.68638  -0.64575  -0.60075  -0.52878
 Alpha  occ. eigenvalues --   -0.52453  -0.48790
 Alpha virt. eigenvalues --   -0.36483  -0.33593  -0.22194  -0.17980  -0.14658
 Alpha virt. eigenvalues --   -0.13777  -0.12359  -0.10417  -0.09780  -0.08454
 Alpha virt. eigenvalues --   -0.07039  -0.05894  -0.05498  -0.04385  -0.03471

  Beta  occ. eigenvalues --  -10.50430 -10.48880 -10.45287 -10.43032 -10.42215
  Beta  occ. eigenvalues --   -1.09206  -1.01994  -0.89929  -0.79737  -0.77320
  Beta  occ. eigenvalues --   -0.71347  -0.67719  -0.63896  -0.60114  -0.52946
  Beta  occ. eigenvalues --   -0.51914
  Beta virt. eigenvalues --   -0.35587  -0.33991  -0.31259  -0.21659  -0.17853
  Beta virt. eigenvalues --   -0.14547  -0.13531  -0.12169  -0.10194  -0.09766
  Beta virt. eigenvalues --   -0.08380  -0.06676  -0.05599  -0.05362  -0.03774

 Mulliken charges and spin densities:
               1          2
     1  C    0.222526  -0.079429
     2  H    0.191037   0.061685
     3  C   -0.289374  -0.039282
     4  C   -0.171630   1.068988
     5  H    0.299276   0.015667
     6  C    0.128456  -0.043144
     7  H    0.226166  -0.003913
     8  C    0.186510   0.018927
     9  H    0.207033   0.000500
 Sum of Mulliken charges =   1.00000   1.00000

 Dipole moment (field-independent basis, Debye):
    X=              1.4475    Y=             -2.0154    Z=              0.0000  Tot=              2.4814
 Quadrupole moment (field-independent basis, Debye-Ang):
   XX=             -9.5524   YY=            -23.0869   ZZ=            -28.8980
   XY=             -2.5751   XZ=              0.0000   YZ=             -0.0000

  Exact polarizability:  97.407 -22.121  52.740   0.000  -0.000  32.593
 Approx polarizability: 185.885 -48.002  87.176   0.000  -0.000  48.311

                      1                      2                      3
                     A'                     A"                     A"
 Frequencies --    133.6629               155.9068               234.7585
 Red. masses --      7.1950                 3.0735                 3.5301
 Frc consts  --      0.0757                 0.0440                 0.1146
 IR Inten    --     11.1051                 1.0865                 4.7851

                      4                      5                      6
                     A'                     A'                     A"
 Frequencies --    315.2583               484.1943               674.0023
 Red. masses --      3.1241                 3.5535                 1.1762
 Frc consts  --      0.1829                 0.4908                 0.3148
 IR Inten    --      8.1979                 8.4425                15.7503

                      7                      8                      9
                     A'                     A"                     A"
 Frequencies --    774.7421               828.7752               935.0621
 Red. masses --      1.3606                 1.4060                 1.5159
 Frc consts  --      0.4812                 0.5690                 0.7809
 IR Inten    --     22.9718                56.9019                10.9173

                     10                     11                     12
                     A"                     A'                     A'
 Frequencies --    997.6340              1016.4089              1179.9588
 Red. masses --      1.3013                 1.3284                 3.4441
 Frc consts  --      0.7631                 0.8086                 2.8252
 IR Inten    --     16.7506                 1.4254                 6.7333

                     13                     14                     15
                     A'                     A'                     A'
 Frequencies --   1263.6161              1281.1407              1411.5845
 Red. masses --      1.2524                 1.5997                 3.2692
 Frc consts  --      1.1782                 1.5470                 3.8380
 IR Inten    --     12.7559               129.4465                40.2627

                     16                     17                     18
                     A'                     A'                     A'
 Frequencies --   1571.9192              1616.9272              3083.2423
 Red. masses --      4.2196                 6.1505                 1.0867
 Frc consts  --      6.1430                 9.4742                 6.0864
 IR Inten    --    366.2308               521.6544                 7.8598

                     19                     20                     21
                     A'                     A'                     A'
 Frequencies --   3116.1217              3162.8911              3231.6394
 Red. masses --      1.0898                 1.0908                 1.1040
 Frc consts  --      6.2348                 6.4293                 6.7933
 IR Inten    --     56.7111                17.0224                48.9095

 - Thermochemistry -
 -------------------
 Temperature   298.150 Kelvin.  Pressure   1.00000 Atm.
 Atom     1 has atomic number  6 and mass  12.00000

 Molecular mass:    64.03130 amu.
 Principal axes and moments of inertia in atomic units:
                           1         2         3
     Eigenvalues --    51.18425 651.45525 702.63951
           X            0.91773   0.39721   0.00000
           Y           -0.39721   0.91773   0.00000
           Z           -0.00000   0.00000   1.00000
 This molecule is an asymmetric top.
 Rotational symmetry number  1.
 Rotational temperatures (Kelvin)      1.69220     0.13295     0.12327
 Rotational constants (GHZ):          35.25969     2.77032     2.56852
 Zero-point vibrational energy     164303.8 (Joules/Mol)
                                   39.26954 (Kcal/Mol)
 Warning -- explicit consideration of   5 degrees of freedom as
           vibrations may cause significant error
 Vibrational temperatures:    192.31   224.31   337.76   453.59   696.65
          (Kelvin)            969.74  1114.68  1192.42  1345.34  1435.37
                             1462.38  1697.70  1818.06  1843.27  2030.95
                             2261.64  2326.39  4436.09  4483.40  4550.69
                             4649.60

 Zero-point correction=                           0.062580 (Hartree/Particle)
 Thermal correction to Energy=                    0.068320
 Thermal correction to Enthalpy=                  0.069264
 Thermal correction to Gibbs Free Energy=         0.033632
 Sum of electronic and zero-point Energies=           -192.371485
 Sum of electronic and thermal Energies=              -192.365745
 Sum of electronic and thermal Enthalpies=            -192.364801
 Sum of electronic and thermal Free Energies=         -192.400433

                     E (Thermal)             CV                S
                      KCal/Mol        Cal/Mol-Kelvin    Cal/Mol-Kelvin
 Total                   42.871             18.618             74.993
 Electronic               0.000              0.000              1.377
 Translational            0.889              2.981             38.389
 Rotational               0.889              2.981             24.664
 Vibrational             41.094             12.656             10.562
 Vibration     1          0.613              1.920              2.893
 Vibration     2          0.620              1.896              2.599
 Vibration     3          0.655              1.788              1.842
 Vibration     4          0.703              1.645              1.335
 Vibration     5          0.840              1.285              0.699

 Optimization completed.
    -- Stationary point found.
 Normal termination of Gaussian 09 at Mon Jun 20 05:30:39 2016.
