 Gaussian 09, Revision E.01,
 Gaussian 09:  EM64L-G09RevE.01 30-Nov-2015

 ---------------------------------------------
 #p b3lyp/6-311++G(3df,2p) freq symmetry=Loose
 ---------------------------------------------

 ---------
 b3lyp opt
 ---------
 Symbolic Z-matrix:
 Charge =  3 Multiplicity = 4

                         Standard orientation:
 ---------------------------------------------------------------------
 Center     Atomic      Atomic             Coordinates (Angstroms)
 Number     Number       Type             X           Y           Z
 ---------------------------------------------------------------------
      1          6           0        2.251042   -0.307538    0.000402
      2          6           0        0.980837    0.070808    0.000117
      3          6           0       -0.285854    0.591885    0.000094
      4          1           0        2.612077   -0.847307   -0.940219
      5          1           0        2.615057   -0.837917    0.944910
      6          1           0        2.853322    0.699433   -0.007937
      7          1           0       -0.333086    1.729603    0.000495
      8          6           0       -1.507692   -0.014978   -0.000102
      9          6           0       -2.729561   -0.464145   -0.000052
 ---------------------------------------------------------------------

 SCF Done:  E(UB3LYP) =  -191.056097129     A.U. after   18 cycles

 The electronic state is 4-A.
 Alpha  occ. eigenvalues --  -11.06145 -11.02659 -11.00945 -10.95359 -10.85555
 Alpha  occ. eigenvalues --   -1.57259  -1.52092  -1.44908  -1.32331  -1.19199
 Alpha  occ. eigenvalues --   -1.15233  -1.11305  -1.11208  -1.07251  -1.06594
 Alpha  occ. eigenvalues --   -1.04440  -0.97123
 Alpha virt. eigenvalues --   -0.79762  -0.77562  -0.73725  -0.62144  -0.53866
 Alpha virt. eigenvalues --   -0.47608  -0.46355  -0.45969  -0.43522  -0.42944
 Alpha virt. eigenvalues --   -0.40627  -0.39913  -0.39349  -0.37315  -0.36646

  Beta  occ. eigenvalues --  -11.02239 -11.02103 -11.00053 -10.94949 -10.85500
  Beta  occ. eigenvalues --   -1.54553  -1.47974  -1.42029  -1.30430  -1.17515
  Beta  occ. eigenvalues --   -1.14272  -1.08682  -1.06691  -1.02669
  Beta virt. eigenvalues --   -0.88716  -0.86579  -0.84532  -0.78988  -0.71521
  Beta virt. eigenvalues --   -0.63631  -0.56932  -0.52739  -0.47115  -0.45548
  Beta virt. eigenvalues --   -0.45229  -0.42496  -0.42385  -0.40199  -0.39236

 Mulliken charges and spin densities:
               1          2
     1  C   -0.185289   0.014120
     2  C    0.615219   0.178470
     3  C   -0.088784   0.329888
     4  H    0.347803   0.051783
     5  H    0.347643   0.052400
     6  H    0.370404  -0.002910
     7  H    0.312490   0.023978
     8  C    0.744390   0.545986
     9  C    0.536125   1.806284
 Sum of Mulliken charges =   3.00000   3.00000

 Dipole moment (field-independent basis, Debye):
    X=              0.1639    Y=             -0.0474    Z=             -0.0057  Tot=              0.1707
 Quadrupole moment (field-independent basis, Debye-Ang):
   XX=             48.0551   YY=            -13.0911   ZZ=            -20.9711
   XY=              1.1559   XZ=             -0.0167   YZ=              0.0004

  Exact polarizability: 109.394   0.731  33.452   0.004   0.001  26.178
 Approx polarizability: 195.175   4.217  54.671   0.008   0.007  37.456

                      1                      2                      3
                      A                      A                      A
 Frequencies --     80.6630               159.3097               313.2655
 Red. masses --      1.1531                 4.5330                 2.0656
 Frc consts  --      0.0044                 0.0678                 0.1194
 IR Inten    --     13.8474                 8.1903                22.9779

                      4                      5                      6
                      A                      A                      A
 Frequencies --    317.4886               359.4110               456.2800
 Red. masses --      1.5772                 3.7745                 4.1906
 Frc consts  --      0.0937                 0.2873                 0.5140
 IR Inten    --     16.2328                 0.8370                12.4835

                      7                      8                      9
                      A                      A                      A
 Frequencies --    651.0794               675.0746               795.9485
 Red. masses --      1.8204                 4.0695                 1.8967
 Frc consts  --      0.4546                 1.0927                 0.7080
 IR Inten    --      0.9112                 7.2632                96.6500

                     10                     11                     12
                      A                      A                      A
 Frequencies --    854.7179               921.5840              1002.8035
 Red. masses --      4.9863                 1.0735                 1.0967
 Frc consts  --      2.1462                 0.5372                 0.6498
 IR Inten    --     10.7677                54.7418                72.4590

                     13                     14                     15
                      A                      A                      A
 Frequencies --   1030.7583              1160.2463              1296.2160
 Red. masses --      1.4044                 1.1860                 3.4546
 Frc consts  --      0.8791                 0.9407                 3.4199
 IR Inten    --     34.4183               264.6842                 8.8999

                     16                     17                     18
                      A                      A                      A
 Frequencies --   1699.8560              1820.6731              2374.2687
 Red. masses --     11.6227                11.0741                 1.0695
 Frc consts  --     19.7871                21.6284                 3.5521
 IR Inten    --    875.6812               122.8718               607.0399

                     19                     20                     21
                      A                      A                      A
 Frequencies --   2568.1722              2582.1374              2629.3630
 Red. masses --      1.0470                 1.0926                 1.0728
 Frc consts  --      4.0686                 4.2919                 4.3698
 IR Inten    --   1780.6304               427.3399               477.6982

 - Thermochemistry -
 -------------------
 Temperature   298.150 Kelvin.  Pressure   1.00000 Atm.
 Atom     1 has atomic number  6 and mass  12.00000

 Molecular mass:    64.03130 amu.
 Principal axes and moments of inertia in atomic units:
                           1         2         3
     Eigenvalues --    52.37588 760.67259 800.25808
           X            0.99990  -0.01449  -0.00004
           Y            0.01449   0.99990   0.00003
           Z            0.00004  -0.00003   1.00000
 This molecule is an asymmetric top.
 Rotational symmetry number  1.
 Rotational temperatures (Kelvin)      1.65370     0.11386     0.10823
 Rotational constants (GHZ):          34.45749     2.37256     2.25520
 Zero-point vibrational energy     142052.5 (Joules/Mol)
                                   33.95135 (Kcal/Mol)
 Warning -- explicit consideration of   6 degrees of freedom as
           vibrations may cause significant error
 Vibrational temperatures:    116.06   229.21   450.72   456.79   517.11
          (Kelvin)            656.48   936.76   971.28  1145.19  1229.75
                             1325.95  1442.81  1483.03  1669.33  1864.96
                             2445.71  2619.54  3416.04  3695.02  3715.12
                             3783.06

 Zero-point correction=                           0.054105 (Hartree/Particle)
 Thermal correction to Energy=                    0.060303
 Thermal correction to Enthalpy=                  0.061248
 Thermal correction to Gibbs Free Energy=         0.023907
 Sum of electronic and zero-point Energies=           -191.001992
 Sum of electronic and thermal Energies=              -190.995794
 Sum of electronic and thermal Enthalpies=            -190.994850
 Sum of electronic and thermal Free Energies=         -191.032190

                     E (Thermal)             CV                S
                      KCal/Mol        Cal/Mol-Kelvin    Cal/Mol-Kelvin
 Total                   37.841             20.672             78.589
 Electronic               0.000              0.000              2.755
 Translational            0.889              2.981             38.389
 Rotational               0.889              2.981             24.970
 Vibrational             36.063             14.710             12.475
 Vibration     1          0.600              1.962              3.875
 Vibration     2          0.621              1.892              2.558
 Vibration     3          0.701              1.648              1.345
 Vibration     4          0.704              1.640              1.323
 Vibration     5          0.734              1.556              1.125
 Vibration     6          0.815              1.347              0.777

 Normal termination of Gaussian 09 at Mon Jun 20 12:02:41 2016.
