 Gaussian 09, Revision E.01,
 Gaussian 09:  EM64L-G09RevE.01 30-Nov-2015

 ---------------------------------------------
 #p b3lyp/6-311++G(3df,2p) freq symmetry=Loose
 ---------------------------------------------

 ---------
 b3lyp opt
 ---------
 Symbolic Z-matrix:
 Charge =  0 Multiplicity = 3

                         Standard orientation:
 ---------------------------------------------------------------------
 Center     Atomic      Atomic             Coordinates (Angstroms)
 Number     Number       Type             X           Y           Z
 ---------------------------------------------------------------------
      1          6           0        0.692851   -0.075598    0.208866
      2          6           0       -0.482394    0.979391    0.018041
      3          1           0        1.167612   -0.049468    1.238057
      4          1           0       -0.364309    1.578217   -0.884775
      5          1           0       -0.662321    1.610328    0.888865
      6          6           0        2.008137   -0.052398   -0.309149
      7          6           0       -1.413033   -0.235160   -0.125819
      8          6           0       -0.417446   -1.088089    0.055083
      9          1           0       -2.469667   -0.307955   -0.324283
 ---------------------------------------------------------------------

 SCF Done:  E(UB3LYP) =  -192.663185630     A.U. after   18 cycles

 The electronic state is 3-A.
 Alpha  occ. eigenvalues --  -10.23996 -10.22889 -10.22649 -10.22078 -10.20576
 Alpha  occ. eigenvalues --   -0.91060  -0.77281  -0.68293  -0.60195  -0.51412
 Alpha  occ. eigenvalues --   -0.47118  -0.45321  -0.43356  -0.40298  -0.31651
 Alpha  occ. eigenvalues --   -0.28567  -0.27815  -0.21230
 Alpha virt. eigenvalues --   -0.09525  -0.02523  -0.00786   0.00406   0.01617
 Alpha virt. eigenvalues --    0.02677   0.05453   0.06236   0.06376   0.07139
 Alpha virt. eigenvalues --    0.07350   0.08318   0.11116   0.11357   0.11548

  Beta  occ. eigenvalues --  -10.22840 -10.22645 -10.21676 -10.20968 -10.20565
  Beta  occ. eigenvalues --   -0.89464  -0.75472  -0.66639  -0.58812  -0.50726
  Beta  occ. eigenvalues --   -0.44459  -0.42878  -0.41613  -0.39473  -0.29816
  Beta  occ. eigenvalues --   -0.27411
  Beta virt. eigenvalues --   -0.12361  -0.08133  -0.07230  -0.01757  -0.00316
  Beta virt. eigenvalues --    0.00591   0.01946   0.02902   0.05817   0.06445
  Beta virt. eigenvalues --    0.06914   0.07317   0.07614   0.08570   0.11209

 Mulliken charges and spin densities:
               1          2
     1  C    0.434833  -0.016627
     2  C   -0.395213   0.151541
     3  H    0.163252  -0.010954
     4  H    0.162798   0.013767
     5  H    0.149895   0.009327
     6  C   -0.593405   0.910045
     7  C    0.053311  -0.162610
     8  C   -0.194560   1.099378
     9  H    0.219090   0.006134
 Sum of Mulliken charges =  -0.00000   2.00000

 Dipole moment (field-independent basis, Debye):
    X=             -2.7814    Y=              1.3541    Z=              0.9627  Tot=              3.2399
 Quadrupole moment (field-independent basis, Debye-Ang):
   XX=            -36.2809   YY=            -31.8947   ZZ=            -29.3156
   XY=             -0.6914   XZ=              3.0186   YZ=              0.0512

  Exact polarizability:  72.919  -1.787  59.289   0.128  -0.275  45.842
 Approx polarizability: 104.567  -8.349  87.228   1.251  -1.415  71.647

                      1                      2                      3
                      A                      A                      A
 Frequencies --    133.2169               333.4122               359.7714
 Red. masses --      4.9402                 3.2846                 2.9871
 Frc consts  --      0.0517                 0.2151                 0.2278
 IR Inten    --     23.6922                10.9297                14.5471

                      4                      5                      6
                      A                      A                      A
 Frequencies --    656.3071               725.1793               785.3496
 Red. masses --      3.8312                 1.3900                 4.4598
 Frc consts  --      0.9723                 0.4307                 1.6207
 IR Inten    --     13.4753                23.7572                15.8484

                      7                      8                      9
                      A                      A                      A
 Frequencies --    850.4196               892.4884               907.1986
 Red. masses --      1.6104                 1.5176                 1.9105
 Frc consts  --      0.6862                 0.7122                 0.9264
 IR Inten    --      9.4251                10.7791                 1.9592

                     10                     11                     12
                      A                      A                      A
 Frequencies --    954.9159               991.6184              1094.1015
 Red. masses --      1.8623                 1.8565                 1.1486
 Frc consts  --      1.0005                 1.0755                 0.8101
 IR Inten    --      2.3306                 0.2720                 2.4321

                     13                     14                     15
                      A                      A                      A
 Frequencies --   1166.6735              1185.3665              1333.1507
 Red. masses --      1.5941                 1.3225                 7.0137
 Frc consts  --      1.2784                 1.0949                 7.3444
 IR Inten    --     19.8173                 2.8386                20.9101

                     16                     17                     18
                      A                      A                      A
 Frequencies --   1457.9875              1600.1151              2724.9458
 Red. masses --      1.1147                 6.8061                 1.0738
 Frc consts  --      1.3961                10.2672                 4.6976
 IR Inten    --      0.7382                 1.3075                52.5657

                     19                     20                     21
                      A                      A                      A
 Frequencies --   3036.9465              3105.7930              3236.1770
 Red. masses --      1.0528                 1.1118                 1.1005
 Frc consts  --      5.7209                 6.3189                 6.7903
 IR Inten    --     22.6555                 7.4121                 0.1380

 - Thermochemistry -
 -------------------
 Temperature   298.150 Kelvin.  Pressure   1.00000 Atm.
 Atom     1 has atomic number  6 and mass  12.00000

 Molecular mass:    64.03130 amu.
 Principal axes and moments of inertia in atomic units:
                           1         2         3
     Eigenvalues --   130.85681 343.35880 437.93392
           X            0.99960  -0.01747   0.02243
           Y            0.01740   0.99984   0.00339
           Z           -0.02249  -0.00300   0.99974
 This molecule is an asymmetric top.
 Rotational symmetry number  1.
 Rotational temperatures (Kelvin)      0.66190     0.25225     0.19778
 Rotational constants (GHZ):          13.79173     5.25614     4.12104
 Zero-point vibrational energy     164672.8 (Joules/Mol)
                                   39.35773 (Kcal/Mol)
 Warning -- explicit consideration of   3 degrees of freedom as
           vibrations may cause significant error
 Vibrational temperatures:    191.67   479.71   517.63   944.28  1043.37
          (Kelvin)           1129.94  1223.56  1284.09  1305.25  1373.91
                             1426.72  1574.17  1678.58  1705.48  1918.10
                             2097.72  2302.21  3920.58  4369.48  4468.54
                             4656.13

 Zero-point correction=                           0.062721 (Hartree/Particle)
 Thermal correction to Energy=                    0.067610
 Thermal correction to Enthalpy=                  0.068554
 Thermal correction to Gibbs Free Energy=         0.034322
 Sum of electronic and zero-point Energies=           -192.600465
 Sum of electronic and thermal Energies=              -192.595575
 Sum of electronic and thermal Enthalpies=            -192.594631
 Sum of electronic and thermal Free Energies=         -192.628863

                     E (Thermal)             CV                S
                      KCal/Mol        Cal/Mol-Kelvin    Cal/Mol-Kelvin
 Total                   42.426             16.806             72.047
 Electronic               0.000              0.000              2.183
 Translational            0.889              2.981             38.389
 Rotational               0.889              2.981             24.490
 Vibrational             40.649             10.844              6.984
 Vibration     1          0.613              1.920              2.899
 Vibration     2          0.715              1.609              1.244
 Vibration     3          0.734              1.555              1.123

 Normal termination of Gaussian 09 at Mon Jun 20 03:06:29 2016.
