 Gaussian 09, Revision E.01,
 Gaussian 09:  EM64L-G09RevE.01 30-Nov-2015

 ---------------------------------------------
 #p b3lyp/6-311++G(3df,2p) freq symmetry=Loose
 ---------------------------------------------

 ---------
 b3lyp opt
 ---------
 Symbolic Z-matrix:
 Charge =  2 Multiplicity = 1

                         Standard orientation:
 ---------------------------------------------------------------------
 Center     Atomic      Atomic             Coordinates (Angstroms)
 Number     Number       Type             X           Y           Z
 ---------------------------------------------------------------------
      1          6           0        0.000000    0.000000    1.597467
      2          6           0        0.000000    0.771917    0.539476
      3          6           0       -0.000000   -0.771917    0.539476
      4          6           0        0.000000   -0.903292   -0.888840
      5          1           0        0.926903   -1.275332   -1.348109
      6          1           0       -0.926903   -1.275332   -1.348109
      7          6           0        0.000000    0.903292   -0.888840
      8          1           0        0.926903    1.275332   -1.348109
      9          1           0       -0.926903    1.275332   -1.348109
 ---------------------------------------------------------------------

 SCF Done:  E(RB3LYP) =  -191.901229991     A.U. after   11 cycles

 The electronic state is 1-A1.
 Alpha  occ. eigenvalues --  -10.82875 -10.82858 -10.77563 -10.72668 -10.72663
 Alpha  occ. eigenvalues --   -1.51566  -1.29975  -1.21182  -1.04418  -1.03344
 Alpha  occ. eigenvalues --   -0.99161  -0.93452  -0.92822  -0.89267  -0.86971
 Alpha  occ. eigenvalues --   -0.81388
 Alpha virt. eigenvalues --   -0.63232  -0.58168  -0.50893  -0.48772  -0.38002
 Alpha virt. eigenvalues --   -0.37787  -0.32186  -0.29775  -0.28416  -0.27499
 Alpha virt. eigenvalues --   -0.25203  -0.25123  -0.24779  -0.24274  -0.20073

 Mulliken charges:
               1
     1  C    0.429071
     2  C    0.479841
     3  C    0.479841
     4  C   -0.303531
     5  H    0.304578
     6  H    0.304578
     7  C   -0.303531
     8  H    0.304578
     9  H    0.304578
 Sum of Mulliken charges =   2.00000

 Dipole moment (field-independent basis, Debye):
    X=             -0.0000    Y=              0.0000    Z=             -1.9306  Tot=              1.9306
 Quadrupole moment (field-independent basis, Debye-Ang):
   XX=            -20.5851   YY=            -13.1353   ZZ=            -10.9898
   XY=             -0.0000   XZ=              0.0000   YZ=             -0.0000

  Exact polarizability:  27.591   0.000  41.150   0.000   0.000  57.713
 Approx polarizability:  41.943   0.000  78.666  -0.000   0.000 143.676

                      1                      2                      3
                     A1                     A2                     B1
 Frequencies --    324.3512               344.7122               398.5214
 Red. masses --      9.1447                 1.9944                 3.1219
 Frc consts  --      0.5668                 0.1396                 0.2921
 IR Inten    --     97.0353                 0.0000                 2.2314

                      4                      5                      6
                     B2                     B1                     A1
 Frequencies --    537.5782               790.5510               829.7893
 Red. masses --      7.2953                 1.2151                 4.7695
 Frc consts  --      1.2422                 0.4474                 1.9349
 IR Inten    --      0.1332                 1.7980                 5.5001

                      7                      8                      9
                     A2                     B2                     B1
 Frequencies --    874.1127               880.8685              1019.0701
 Red. masses --      1.4076                 4.1498                 1.2436
 Frc consts  --      0.6337                 1.8971                 0.7610
 IR Inten    --      0.0000                 1.3810                 1.3053

                     10                     11                     12
                     A1                     A2                     A1
 Frequencies --   1020.9014              1024.0794              1046.1453
 Red. masses --      4.5217                 1.3402                 1.2743
 Frc consts  --      2.7766                 0.8281                 0.8217
 IR Inten    --     34.2249                 0.0000               122.4788

                     13                     14                     15
                     B2                     B2                     A1
 Frequencies --   1150.1533              1344.4926              1379.0003
 Red. masses --      1.3666                 1.1866                 1.1413
 Frc consts  --      1.0652                 1.2638                 1.2788
 IR Inten    --     44.3719                13.0418                66.5197

                     16                     17                     18
                     B2                     A1                     B2
 Frequencies --   1561.5111              1771.9840              2972.0861
 Red. masses --      7.3041                10.0506                 1.0521
 Frc consts  --     10.4931                18.5935                 5.4758
 IR Inten    --      5.6669                83.1311               179.2255

                     19                     20                     21
                     A1                     A2                     B1
 Frequencies --   2983.3034              3057.3612              3065.2948
 Red. masses --      1.0502                 1.1178                 1.1159
 Frc consts  --      5.5069                 6.1563                 6.1776
 IR Inten    --    288.8798                 0.0000               258.7807

 - Thermochemistry -
 -------------------
 Temperature   298.150 Kelvin.  Pressure   1.00000 Atm.
 Atom     1 has atomic number  6 and mass  12.00000

 Molecular mass:    64.03130 amu.
 Principal axes and moments of inertia in atomic units:
                           1         2         3
     Eigenvalues --   156.78155 238.94502 370.98989
           X            0.00000  -0.00000   1.00000
           Y            0.00000   1.00000   0.00000
           Z            1.00000  -0.00000   0.00000
 This molecule is an asymmetric top.
 Rotational symmetry number  2.
 Rotational temperatures (Kelvin)      0.55245     0.36248     0.23347
 Rotational constants (GHZ):          11.51118     7.55296     4.86466
 Zero-point vibrational energy     169725.4 (Joules/Mol)
                                   40.56534 (Kcal/Mol)
 Warning -- explicit consideration of   4 degrees of freedom as
           vibrations may cause significant error
 Vibrational temperatures:    466.67   495.96   573.38   773.45  1137.43
          (Kelvin)           1193.88  1257.65  1267.37  1466.21  1468.85
                             1473.42  1505.17  1654.81  1934.42  1984.07
                             2246.66  2549.49  4276.16  4292.30  4398.86
                             4410.27

 Zero-point correction=                           0.064645 (Hartree/Particle)
 Thermal correction to Energy=                    0.069189
 Thermal correction to Enthalpy=                  0.070133
 Thermal correction to Gibbs Free Energy=         0.038622
 Sum of electronic and zero-point Energies=           -191.836585
 Sum of electronic and thermal Energies=              -191.832041
 Sum of electronic and thermal Enthalpies=            -191.831097
 Sum of electronic and thermal Free Energies=         -191.862608

                     E (Thermal)             CV                S
                      KCal/Mol        Cal/Mol-Kelvin    Cal/Mol-Kelvin
 Total                   43.417             16.110             66.320
 Electronic               0.000              0.000              0.000
 Translational            0.889              2.981             38.389
 Rotational               0.889              2.981             22.768
 Vibrational             41.639             10.148              5.163
 Vibration     1          0.709              1.627              1.288
 Vibration     2          0.723              1.586              1.190
 Vibration     3          0.765              1.473              0.968
 Vibration     4          0.893              1.167              0.571

 Optimization completed.
    -- Stationary point found.
 Normal termination of Gaussian 09 at Wed Jul 20 00:09:31 2016.
