 Gaussian 09, Revision E.01,
 Gaussian 09:  EM64L-G09RevE.01 30-Nov-2015

 ---------------------------------------------
 #p b3lyp/6-311++G(3df,2p) freq symmetry=Loose
 ---------------------------------------------

 ---------
 b3lyp opt
 ---------
 Symbolic Z-matrix:
 Charge =  1 Multiplicity = 2

                         Standard orientation:
 ---------------------------------------------------------------------
 Center     Atomic      Atomic             Coordinates (Angstroms)
 Number     Number       Type             X           Y           Z
 ---------------------------------------------------------------------
      1          1           0       -1.098514    1.757772    0.443625
      2          1           0        1.577396    1.591893   -0.073116
      3          6           0       -0.611503    0.882159    0.020463
      4          6           0       -0.192638   -1.036808    0.151140
      5          6           0        1.170847   -0.560007   -0.014235
      6          1           0        2.079954   -1.135190   -0.032459
      7          6           0        0.901660    0.749295   -0.051710
      8          6           0       -1.302604   -0.317364   -0.156669
      9          1           0       -2.353407   -0.518126   -0.031994
 ---------------------------------------------------------------------

 SCF Done:  E(UB3LYP) =  -192.515931575     A.U. after   21 cycles

 The electronic state is 2-A.
 Alpha  occ. eigenvalues --  -10.53166 -10.48985 -10.43852 -10.43828 -10.43192
 Alpha  occ. eigenvalues --   -1.16819  -0.99920  -0.93496  -0.80007  -0.78929
 Alpha  occ. eigenvalues --   -0.73981  -0.69098  -0.65837  -0.63390  -0.62238
 Alpha  occ. eigenvalues --   -0.51060  -0.48898
 Alpha virt. eigenvalues --   -0.36866  -0.22746  -0.19465  -0.14851  -0.12323
 Alpha virt. eigenvalues --   -0.11824  -0.10923  -0.10578  -0.10143  -0.08988
 Alpha virt. eigenvalues --   -0.06137  -0.05491  -0.04760  -0.03718  -0.03253

  Beta  occ. eigenvalues --  -10.51850 -10.48558 -10.43973 -10.43684 -10.43156
  Beta  occ. eigenvalues --   -1.15701  -0.99604  -0.91684  -0.79366  -0.78621
  Beta  occ. eigenvalues --   -0.71948  -0.68827  -0.64530  -0.62757  -0.61394
  Beta  occ. eigenvalues --   -0.48654
  Beta virt. eigenvalues --   -0.38335  -0.33805  -0.21264  -0.18179  -0.14735
  Beta virt. eigenvalues --   -0.12224  -0.11718  -0.10552  -0.10231  -0.09978
  Beta virt. eigenvalues --   -0.08776  -0.06030  -0.05380  -0.04392  -0.03498

 Mulliken charges and spin densities:
               1          2
     1  H    0.215370   0.004490
     2  H    0.237791   0.009115
     3  C   -0.073190   0.249742
     4  C    0.370287   0.770122
     5  C   -0.066043  -0.026359
     6  H    0.269695   0.001148
     7  C   -0.044794   0.101905
     8  C   -0.152521  -0.121120
     9  H    0.243406   0.010958
 Sum of Mulliken charges =   1.00000   1.00000

 Dipole moment (field-independent basis, Debye):
    X=             -0.4716    Y=              0.4765    Z=              0.3023  Tot=              0.7354
 Quadrupole moment (field-independent basis, Debye-Ang):
   XX=            -15.5035   YY=            -18.1902   ZZ=            -28.4870
   XY=             -0.7654   XZ=             -0.6237   YZ=              0.6740

  Exact polarizability:  53.702  -0.000  54.230   0.434  -0.311  29.491
 Approx polarizability:  82.166  -1.949 111.867   2.758  -2.368  45.081

                      1                      2                      3
                      A                      A                      A
 Frequencies --    296.6600               450.7130               548.5910
 Red. masses --      2.3817                 5.4200                 3.1319
 Frc consts  --      0.1235                 0.6487                 0.5553
 IR Inten    --      8.6659                18.1405                18.0205

                      4                      5                      6
                      A                      A                      A
 Frequencies --    568.4268               640.3196               774.5986
 Red. masses --      2.5475                 1.7345                 1.4637
 Frc consts  --      0.4850                 0.4190                 0.5174
 IR Inten    --     17.2776                 4.6553               107.3748

                      7                      8                      9
                      A                      A                      A
 Frequencies --    870.5011               921.0157               936.4887
 Red. masses --      2.3315                 3.1750                 1.3970
 Frc consts  --      1.0409                 1.5868                 0.7219
 IR Inten    --      4.1837                 5.9122                 0.1999

                     10                     11                     12
                      A                      A                      A
 Frequencies --    964.7766              1052.2619              1092.3977
 Red. masses --      2.0648                 1.6668                 1.0564
 Frc consts  --      1.1324                 1.0874                 0.7427
 IR Inten    --      2.3829                 1.6957                 0.9108

                     13                     14                     15
                      A                      A                      A
 Frequencies --   1159.6498              1235.2008              1303.6082
 Red. masses --      2.0647                 1.3177                 1.5533
 Frc consts  --      1.6359                 1.1845                 1.5552
 IR Inten    --     25.1204                10.0234                50.8991

                     16                     17                     18
                      A                      A                      A
 Frequencies --   1464.4063              1582.1011              3147.0947
 Red. masses --      6.2924                 5.1025                 1.0906
 Frc consts  --      7.9504                 7.5250                 6.3639
 IR Inten    --     25.7138                10.2510                30.7087

                     19                     20                     21
                      A                      A                      A
 Frequencies --   3217.0768              3257.0814              3272.3799
 Red. masses --      1.0948                 1.1017                 1.1061
 Frc consts  --      6.6757                 6.8863                 6.9786
 IR Inten    --     29.3831                80.8718                31.0848

 - Thermochemistry -
 -------------------
 Temperature   298.150 Kelvin.  Pressure   1.00000 Atm.
 Atom     1 has atomic number  1 and mass   1.00783

 Molecular mass:    64.03130 amu.
 Principal axes and moments of inertia in atomic units:
                           1         2         3
     Eigenvalues --   149.75301 235.60926 379.69078
           X            0.99970  -0.02252  -0.00931
           Y            0.02268   0.99958   0.01802
           Z            0.00890  -0.01822   0.99979
 This molecule is an asymmetric top.
 Rotational symmetry number  1.
 Rotational temperatures (Kelvin)      0.57838     0.36762     0.22812
 Rotational constants (GHZ):          12.05145     7.65989     4.75319
 Zero-point vibrational energy     171995.2 (Joules/Mol)
                                   41.10784 (Kcal/Mol)
 Warning -- explicit consideration of   4 degrees of freedom as
           vibrations may cause significant error
 Vibrational temperatures:    426.83   648.47   789.30   817.84   921.28
          (Kelvin)           1114.47  1252.46  1325.13  1347.40  1388.10
                             1513.97  1571.71  1668.48  1777.18  1875.60
                             2106.95  2276.29  4527.96  4628.65  4686.21
                             4708.22

 Zero-point correction=                           0.065510 (Hartree/Particle)
 Thermal correction to Energy=                    0.069933
 Thermal correction to Enthalpy=                  0.070877
 Thermal correction to Gibbs Free Energy=         0.038302
 Sum of electronic and zero-point Energies=           -192.450422
 Sum of electronic and thermal Energies=              -192.445998
 Sum of electronic and thermal Enthalpies=            -192.445054
 Sum of electronic and thermal Free Energies=         -192.477630

                     E (Thermal)             CV                S
                      KCal/Mol        Cal/Mol-Kelvin    Cal/Mol-Kelvin
 Total                   43.884             16.081             68.560
 Electronic               0.000              0.000              1.377
 Translational            0.889              2.981             38.389
 Rotational               0.889              2.981             24.108
 Vibrational             42.106             10.119              4.685
 Vibration     1          0.690              1.680              1.436
 Vibration     2          0.809              1.359              0.794
 Vibration     3          0.904              1.143              0.547
 Vibration     4          0.924              1.100              0.507

 Normal termination of Gaussian 09 at Mon Jun 20 04:58:04 2016.
