 Gaussian 09, Revision E.01,
 Gaussian 09:  EM64L-G09RevE.01 30-Nov-2015

 ------------------------------------------------------
 #p b3lyp/6-311++G(3df,2p) freq IOp(2/17=3) IOp(2/18=3)
 ------------------------------------------------------

 ---------
 b3lyp opt
 ---------
 Symbolic Z-matrix:
 Charge =  0 Multiplicity = 3

                         Standard orientation:
 ---------------------------------------------------------------------
 Center     Atomic      Atomic             Coordinates (Angstroms)
 Number     Number       Type             X           Y           Z
 ---------------------------------------------------------------------
      1          6           0        0.000000    1.421373    0.000000
      2          1           0        0.885427    2.065591    0.000000
      3          1           0       -0.884817    2.066643    0.000000
      4          6           0       -0.000468    0.298542    1.021618
      5          6           0       -0.000468    0.298542   -1.021618
      6          1           0       -0.000255    0.244504   -2.097536
      7          6           0       -0.000308   -0.718919   -0.000000
      8          6           0        0.001183   -2.069746   -0.000000
      9          1           0       -0.000255    0.244504    2.097536
 ---------------------------------------------------------------------

 SCF Done:  E(UB3LYP) =  -192.719399676     A.U. after   13 cycles

 The electronic state is 3-A".
 Alpha  occ. eigenvalues --  -10.24498 -10.21911 -10.21908 -10.20272 -10.19765
 Alpha  occ. eigenvalues --   -0.90466  -0.75153  -0.67413  -0.62773  -0.54141
 Alpha  occ. eigenvalues --   -0.47161  -0.42918  -0.41364  -0.37769  -0.35347
 Alpha  occ. eigenvalues --   -0.30544  -0.22722  -0.22147
 Alpha virt. eigenvalues --   -0.12493  -0.00870   0.01146   0.01561   0.01887
 Alpha virt. eigenvalues --    0.04239   0.04654   0.05897   0.06789   0.08304
 Alpha virt. eigenvalues --    0.08648   0.09173   0.10103   0.10530   0.11379

  Beta  occ. eigenvalues --  -10.23549 -10.20680 -10.20679 -10.20407 -10.20127
  Beta  occ. eigenvalues --   -0.88932  -0.73965  -0.64207  -0.61501  -0.52741
  Beta  occ. eigenvalues --   -0.44949  -0.42345  -0.40306  -0.37081  -0.32260
  Beta  occ. eigenvalues --   -0.29175
  Beta virt. eigenvalues --   -0.11203  -0.09364  -0.08391  -0.00799   0.01256
  Beta virt. eigenvalues --    0.01675   0.02004   0.04850   0.05183   0.05962
  Beta virt. eigenvalues --    0.06888   0.08340   0.09950   0.10245   0.10754

 Mulliken charges and spin densities:
               1          2
     1  C   -0.689355  -0.189860
     2  H    0.125555   0.048745
     3  H    0.125508   0.048746
     4  C    0.148233   0.951176
     5  C    0.148233   0.951176
     6  H    0.261136  -0.029414
     7  C    0.502958  -0.321180
     8  C   -0.883405   0.570025
     9  H    0.261136  -0.029414
 Sum of Mulliken charges =  -0.00000   2.00000

 Dipole moment (field-independent basis, Debye):
    X=             -0.0008    Y=              3.0447    Z=              0.0000  Tot=              3.0447
 Quadrupole moment (field-independent basis, Debye-Ang):
   XX=            -31.8838   YY=            -36.7180   ZZ=            -26.3619
   XY=              0.0059   XZ=              0.0000   YZ=             -0.0000

  Exact polarizability:  42.195  -0.015  76.132  -0.000   0.000  56.032
 Approx polarizability:  60.084  -0.027 111.906   0.000  -0.000  83.669

                      1                      2                      3
                     A'                     A"                     A"
 Frequencies --    183.9034               208.8314               348.9101
 Red. masses --      3.1699                 6.2405                 1.3007
 Frc consts  --      0.0632                 0.1603                 0.0933
 IR Inten    --      1.1927                18.0543                 0.0001

                      4                      5                      6
                     A'                     A'                     A'
 Frequencies --    363.6192               531.3773               718.9067
 Red. masses --      1.1250                 3.6059                 6.7724
 Frc consts  --      0.0876                 0.5999                 2.0622
 IR Inten    --     36.1454                28.1071                 0.0048

                      7                      8                      9
                     A"                     A'                     A'
 Frequencies --    902.7050               926.6070               931.2916
 Red. masses --      2.1766                 1.8961                 1.6904
 Frc consts  --      1.0450                 0.9592                 0.8638
 IR Inten    --      7.4489                 5.7273                 0.3216

                     10                     11                     12
                     A"                     A"                     A'
 Frequencies --   1009.1662              1018.3601              1035.4502
 Red. masses --      4.5719                 1.0547                 5.9474
 Frc consts  --      2.7433                 0.6444                 3.7569
 IR Inten    --      0.4772                 0.0000                 0.3724

                     13                     14                     15
                     A"                     A"                     A'
 Frequencies --   1198.1378              1246.1590              1284.5302
 Red. masses --      1.6279                 1.4950                 1.8811
 Frc consts  --      1.3769                 1.3678                 1.8288
 IR Inten    --      0.1624                 6.6266                 1.0100

                     16                     17                     18
                     A'                     A'                     A'
 Frequencies --   1410.3044              1474.9526              2994.5069
 Red. masses --      4.3943                 1.2784                 1.0554
 Frc consts  --      5.1495                 1.6386                 5.5758
 IR Inten    --     88.5743                 5.2037                35.1874

                     19                     20                     21
                     A'                     A"                     A'
 Frequencies --   3017.0125              3234.4875              3235.2712
 Red. masses --      1.1030                 1.0913                 1.0954
 Frc consts  --      5.9155                 6.7265                 6.7554
 IR Inten    --     14.8558                 3.1896                 0.3074

 - Thermochemistry -
 -------------------
 Temperature   298.150 Kelvin.  Pressure   1.00000 Atm.
 Atom     1 has atomic number  6 and mass  12.00000

 Molecular mass:    64.03130 amu.
 Principal axes and moments of inertia in atomic units:
                           1         2         3
     Eigenvalues --   126.75920 335.56159 451.04225
           X           -0.00033   0.00000   1.00000
           Y            1.00000   0.00000   0.00033
           Z           -0.00000   1.00000  -0.00000
 This molecule is an asymmetric top.
 Rotational symmetry number  1.
 Rotational temperatures (Kelvin)      0.68329     0.25812     0.19203
 Rotational constants (GHZ):          14.23756     5.37827     4.00127
 Zero-point vibrational energy     163137.7 (Joules/Mol)
                                   38.99084 (Kcal/Mol)
 Warning -- explicit consideration of   5 degrees of freedom as
           vibrations may cause significant error
 Vibrational temperatures:    264.60   300.46   502.00   523.17   764.53
          (Kelvin)           1034.35  1298.79  1333.18  1339.92  1451.96
                             1465.19  1489.78  1723.85  1792.94  1848.15
                             2029.11  2122.13  4308.42  4340.80  4653.70
                             4654.83

 Zero-point correction=                           0.062136 (Hartree/Particle)
 Thermal correction to Energy=                    0.067426
 Thermal correction to Enthalpy=                  0.068370
 Thermal correction to Gibbs Free Energy=         0.033539
 Sum of electronic and zero-point Energies=           -192.657264
 Sum of electronic and thermal Energies=              -192.651974
 Sum of electronic and thermal Enthalpies=            -192.651030
 Sum of electronic and thermal Free Energies=         -192.685860

                     E (Thermal)             CV                S
                      KCal/Mol        Cal/Mol-Kelvin    Cal/Mol-Kelvin
 Total                   42.310             17.957             73.307
 Electronic               0.000              0.000              2.183
 Translational            0.889              2.981             38.389
 Rotational               0.889              2.981             24.465
 Vibrational             40.533             11.995              8.269
 Vibration     1          0.631              1.862              2.288
 Vibration     2          0.642              1.827              2.054
 Vibration     3          0.726              1.577              1.171
 Vibration     4          0.737              1.547              1.107
 Vibration     5          0.886              1.181              0.584

 Normal termination of Gaussian 09 at Thu Jan 31 06:57:46 2019.
