 Gaussian 09, Revision E.01,
 Gaussian 09:  EM64L-G09RevE.01 30-Nov-2015

 ---------------------------------------------
 #p b3lyp/6-311++G(3df,2p) freq symmetry=Loose
 ---------------------------------------------

 ---------
 b3lyp opt
 ---------
 Symbolic Z-matrix:
 Charge =  2 Multiplicity = 3

                         Standard orientation:
 ---------------------------------------------------------------------
 Center     Atomic      Atomic             Coordinates (Angstroms)
 Number     Number       Type             X           Y           Z
 ---------------------------------------------------------------------
      1          6           0       -2.134154   -0.426548   -0.000119
      2          1           0       -2.811298   -0.135922   -0.841484
      3          1           0       -2.810304   -0.136635    0.842435
      4          1           0       -1.886130   -1.482150   -0.000466
      5          6           0        0.289000    0.214513    0.000142
      6          6           0        1.545149   -0.022730    0.000091
      7          6           0        2.788109   -0.243913   -0.000128
      8          6           0       -1.029525    0.505766   -0.000002
      9          1           0       -1.243745    1.592180   -0.000387
 ---------------------------------------------------------------------

 SCF Done:  E(UB3LYP) =  -191.874580464     A.U. after   20 cycles

 The electronic state is 3-A.
 Alpha  occ. eigenvalues --  -10.81961 -10.76278 -10.72317 -10.71438 -10.60046
 Alpha  occ. eigenvalues --   -1.33150  -1.28200  -1.19059  -1.11000  -0.96389
 Alpha  occ. eigenvalues --   -0.90064  -0.88773  -0.87812  -0.82810  -0.82775
 Alpha  occ. eigenvalues --   -0.80759  -0.74820
 Alpha virt. eigenvalues --   -0.62719  -0.54475  -0.38938  -0.35305  -0.32550
 Alpha virt. eigenvalues --   -0.28628  -0.27614  -0.26531  -0.25892  -0.24542
 Alpha virt. eigenvalues --   -0.23568  -0.21905  -0.20588  -0.20033  -0.18538

  Beta  occ. eigenvalues --  -10.78495 -10.75946 -10.72118 -10.71411 -10.59978
  Beta  occ. eigenvalues --   -1.31961  -1.25684  -1.16994  -1.10095  -0.96302
  Beta  occ. eigenvalues --   -0.88627  -0.84789  -0.81603  -0.80367  -0.79793
  Beta virt. eigenvalues --   -0.64867  -0.64225  -0.59729  -0.49432  -0.36744
  Beta virt. eigenvalues --   -0.32351  -0.31174  -0.28477  -0.27347  -0.26095
  Beta virt. eigenvalues --   -0.25603  -0.24174  -0.23165  -0.21748  -0.20087

 Mulliken charges and spin densities:
               1          2
     1  C   -0.393292   0.039220
     2  H    0.279269   0.047829
     3  H    0.279398   0.047966
     4  H    0.240085  -0.001716
     5  C    0.053707   0.184276
     6  C    0.786249   0.069294
     7  C    0.392288   1.567882
     8  C    0.079405   0.058222
     9  H    0.282891  -0.012971
 Sum of Mulliken charges =   2.00000   2.00000

 Dipole moment (field-independent basis, Debye):
    X=              1.3655    Y=              0.5388    Z=              0.0005  Tot=              1.4679
 Quadrupole moment (field-independent basis, Debye-Ang):
   XX=             23.6236   YY=            -19.3077   ZZ=            -23.9695
   XY=             -2.5255   XZ=             -0.0029   YZ=             -0.0009

  Exact polarizability: 114.118  -2.187  33.914  -0.006  -0.001  28.384
 Approx polarizability: 233.685 -14.787  50.824  -0.019  -0.002  40.708

                      1                      2                      3
                      A                      A                      A
 Frequencies --    132.7921               144.1042               222.1679
 Red. masses --      4.3316                 1.2715                 3.1579
 Frc consts  --      0.0450                 0.0156                 0.0918
 IR Inten    --      3.9592                22.0302                 0.0047

                      4                      5                      6
                      A                      A                      A
 Frequencies --    285.8729               459.5536               598.5823
 Red. masses --      6.7026                 9.0249                 6.0707
 Frc consts  --      0.3227                 1.1230                 1.2815
 IR Inten    --      3.4609                 1.5391                 2.8339

                      7                      8                      9
                      A                      A                      A
 Frequencies --    748.9862               783.1649               914.1671
 Red. masses --      1.0709                 2.9188                 2.0223
 Frc consts  --      0.3540                 1.0548                 0.9958
 IR Inten    --     19.0037                28.7542                 3.0169

                     10                     11                     12
                      A                      A                      A
 Frequencies --    959.2171              1088.8503              1163.7704
 Red. masses --      1.7683                 1.3615                 1.6351
 Frc consts  --      0.9586                 0.9511                 1.3048
 IR Inten    --    192.0834               240.9206                47.8618

                     13                     14                     15
                      A                      A                      A
 Frequencies --   1278.2732              1297.5950              1445.3054
 Red. masses --      1.5013                 1.0571                 1.1604
 Frc consts  --      1.4453                 1.0486                 1.4282
 IR Inten    --     45.7013                32.4908                50.5902

                     16                     17                     18
                      A                      A                      A
 Frequencies --   1578.6841              2007.7577              2783.8344
 Red. masses --     10.0764                11.9570                 1.0769
 Frc consts  --     14.7961                28.3984                 4.9170
 IR Inten    --     65.2345               345.4555               126.4224

                     19                     20                     21
                      A                      A                      A
 Frequencies --   2818.0379              2942.9110              3174.0962
 Red. masses --      1.0499                 1.0811                 1.0973
 Frc consts  --      4.9124                 5.5167                 6.5138
 IR Inten    --    729.9661               251.1816                36.7425

 - Thermochemistry -
 -------------------
 Temperature   298.150 Kelvin.  Pressure   1.00000 Atm.
 Atom     1 has atomic number  6 and mass  12.00000

 Molecular mass:    64.03130 amu.
 Principal axes and moments of inertia in atomic units:
                           1         2         3
     Eigenvalues --    45.52124 755.78899 791.10493
           X            0.99997   0.00800  -0.00000
           Y           -0.00800   0.99997  -0.00007
           Z            0.00000   0.00007   1.00000
 This molecule is an asymmetric top.
 Rotational symmetry number  1.
 Rotational temperatures (Kelvin)      1.90271     0.11460     0.10948
 Rotational constants (GHZ):          39.64613     2.38789     2.28129
 Zero-point vibrational energy     160465.4 (Joules/Mol)
                                   38.35216 (Kcal/Mol)
 Warning -- explicit consideration of   6 degrees of freedom as
           vibrations may cause significant error
 Vibrational temperatures:    191.06   207.33   319.65   411.31   661.19
          (Kelvin)            861.23  1077.62  1126.80  1315.28  1380.10
                             1566.61  1674.40  1839.15  1866.95  2079.47
                             2271.37  2888.71  4005.31  4054.52  4234.19
                             4566.81

 Zero-point correction=                           0.061118 (Hartree/Particle)
 Thermal correction to Energy=                    0.067011
 Thermal correction to Enthalpy=                  0.067955
 Thermal correction to Gibbs Free Energy=         0.031555
 Sum of electronic and zero-point Energies=           -191.813462
 Sum of electronic and thermal Energies=              -191.807570
 Sum of electronic and thermal Enthalpies=            -191.806625
 Sum of electronic and thermal Free Energies=         -191.843025

                     E (Thermal)             CV                S
                      KCal/Mol        Cal/Mol-Kelvin    Cal/Mol-Kelvin
 Total                   42.050             18.983             76.610
 Electronic               0.000              0.000              2.183
 Translational            0.889              2.981             38.389
 Rotational               0.889              2.981             24.813
 Vibrational             40.272             13.022             11.225
 Vibration     1          0.613              1.921              2.905
 Vibration     2          0.616              1.909              2.749
 Vibration     3          0.648              1.807              1.941
 Vibration     4          0.684              1.700              1.498
 Vibration     5          0.817              1.340              0.767
 Vibration     6          0.957              1.035              0.452

 Optimization completed.
    -- Stationary point found.
 Normal termination of Gaussian 09 at Mon Jun 20 09:16:14 2016.
