 Gaussian 09, Revision E.01,
 Gaussian 09:  EM64L-G09RevE.01 30-Nov-2015

 ---------------------------------------------
 #p b3lyp/6-311++G(3df,2p) freq symmetry=Loose
 ---------------------------------------------

 ---------
 b3lyp opt
 ---------
 Symbolic Z-matrix:
 Charge =  2 Multiplicity = 1

                         Standard orientation:
 ---------------------------------------------------------------------
 Center     Atomic      Atomic             Coordinates (Angstroms)
 Number     Number       Type             X           Y           Z
 ---------------------------------------------------------------------
      1          6           0       -0.743253   -2.071678    0.000000
      2          1           0       -1.776607   -0.483579    0.842684
      3          1           0       -1.577032   -2.779915    0.000000
      4          6           0       -1.054780   -0.664781   -0.000000
      5          1           0       -1.776607   -0.483579   -0.842684
      6          6           0       -0.000000    0.331110   -0.000000
      7          1           0        0.271643   -2.478247    0.000000
      8          6           0        0.851194    1.214939    0.000000
      9          6           0        1.756606    2.227962    0.000000
 ---------------------------------------------------------------------

 SCF Done:  E(RB3LYP) =  -191.899983161     A.U. after   13 cycles

 The electronic state is 1-A'.
 Alpha  occ. eigenvalues --  -10.75465 -10.74723 -10.72685 -10.69169 -10.64092
 Alpha  occ. eigenvalues --   -1.31217  -1.25028  -1.15631  -1.10221  -0.99367
 Alpha  occ. eigenvalues --   -0.93031  -0.91242  -0.87713  -0.78210  -0.77762
 Alpha  occ. eigenvalues --   -0.73507
 Alpha virt. eigenvalues --   -0.59926  -0.57466  -0.56580  -0.36174  -0.35277
 Alpha virt. eigenvalues --   -0.33052  -0.31092  -0.28645  -0.28079  -0.28020
 Alpha virt. eigenvalues --   -0.26043  -0.23187  -0.22589  -0.21588  -0.20571

 Mulliken charges:
               1
     1  C   -0.234309
     2  H    0.299337
     3  H    0.316235
     4  C   -0.078426
     5  H    0.299337
     6  C    0.039596
     7  H    0.286734
     8  C    1.174932
     9  C   -0.103435
 Sum of Mulliken charges =   2.00000

 Dipole moment (field-independent basis, Debye):
    X=             -2.9390    Y=             -4.5651    Z=             -0.0000  Tot=              5.4293
 Quadrupole moment (field-independent basis, Debye-Ang):
   XX=             -9.0373   YY=              5.5120   ZZ=            -22.8555
   XY=             14.6045   XZ=              0.0000   YZ=             -0.0000

  Exact polarizability:  53.634  22.679  67.809   0.000   0.000  29.990
 Approx polarizability: 104.425  57.037 124.601   0.000  -0.000  45.774

                      1                      2                      3
                     A'                     A"                     A"
 Frequencies --    111.9802               123.0564               203.8717
 Red. masses --      6.5058                 5.6095                 1.0489
 Frc consts  --      0.0481                 0.0500                 0.0257
 IR Inten    --      0.4120                 0.3397                31.0975

                      4                      5                      6
                     A'                     A"                     A'
 Frequencies --    254.0209               346.1711               555.7825
 Red. masses --      4.7455                 2.8289                 4.8801
 Frc consts  --      0.1804                 0.1997                 0.8882
 IR Inten    --      1.7333                10.9503                 2.7711

                      7                      8                      9
                     A"                     A'                     A'
 Frequencies --    679.0159               734.2242               995.7715
 Red. masses --      1.9517                 3.3430                 1.5102
 Frc consts  --      0.5302                 1.0618                 0.8823
 IR Inten    --      7.7226                10.1963                64.2341

                     10                     11                     12
                     A'                     A"                     A'
 Frequencies --   1071.0746              1096.3585              1179.3837
 Red. masses --      1.9135                 1.1636                 1.0992
 Frc consts  --      1.2933                 0.8240                 0.9009
 IR Inten    --    149.5956                 0.3547                70.7494

                     13                     14                     15
                     A"                     A'                     A'
 Frequencies --   1292.1568              1293.2024              1396.2124
 Red. masses --      1.3206                 2.9635                 2.8164
 Frc consts  --      1.2991                 2.9201                 3.2348
 IR Inten    --      5.5714               252.5136                36.3378

                     16                     17                     18
                     A'                     A'                     A"
 Frequencies --   1495.9952              2254.1213              2759.7387
 Red. masses --      1.2491                11.9108                 1.0804
 Frc consts  --      1.6471                35.6571                 4.8483
 IR Inten    --      2.4027              1020.6958               153.3504

                     19                     20                     21
                     A'                     A'                     A'
 Frequencies --   2790.8159              3058.2799              3170.0505
 Red. masses --      1.0677                 1.0564                 1.1260
 Frc consts  --      4.8997                 5.8214                 6.6669
 IR Inten    --    239.2913                69.3454                87.4696

 - Thermochemistry -
 -------------------
 Temperature   298.150 Kelvin.  Pressure   1.00000 Atm.
 Atom     1 has atomic number  6 and mass  12.00000

 Molecular mass:    64.03130 amu.
 Principal axes and moments of inertia in atomic units:
                           1         2         3
     Eigenvalues --    51.88521 756.59788 798.26023
           X            0.55682   0.83064   0.00000
           Y            0.83064  -0.55682   0.00000
           Z           -0.00000   0.00000   1.00000
 This molecule is an asymmetric top.
 Rotational symmetry number  1.
 Rotational temperatures (Kelvin)      1.66934     0.11448     0.10850
 Rotational constants (GHZ):          34.78334     2.38534     2.26084
 Zero-point vibrational energy     160666.2 (Joules/Mol)
                                   38.40013 (Kcal/Mol)
 Warning -- explicit consideration of   6 degrees of freedom as
           vibrations may cause significant error
 Vibrational temperatures:    161.11   177.05   293.33   365.48   498.06
          (Kelvin)            799.65   976.95  1056.38  1432.69  1541.04
                             1577.41  1696.87  1859.12  1860.63  2008.84
                             2152.40  3243.17  3970.64  4015.36  4400.18
                             4560.99

 Zero-point correction=                           0.061195 (Hartree/Particle)
 Thermal correction to Energy=                    0.067383
 Thermal correction to Enthalpy=                  0.068327
 Thermal correction to Gibbs Free Energy=         0.032167
 Sum of electronic and zero-point Energies=           -191.838789
 Sum of electronic and thermal Energies=              -191.832600
 Sum of electronic and thermal Enthalpies=            -191.831656
 Sum of electronic and thermal Free Energies=         -191.867816

                     E (Thermal)             CV                S
                      KCal/Mol        Cal/Mol-Kelvin    Cal/Mol-Kelvin
 Total                   42.284             19.448             76.105
 Electronic               0.000              0.000              0.000
 Translational            0.889              2.981             38.389
 Rotational               0.889              2.981             24.953
 Vibrational             40.506             13.487             12.763
 Vibration     1          0.607              1.940              3.234
 Vibration     2          0.610              1.930              3.052
 Vibration     3          0.640              1.834              2.098
 Vibration     4          0.665              1.756              1.703
 Vibration     5          0.724              1.583              1.184
 Vibration     6          0.911              1.127              0.532

 Optimization completed.
    -- Stationary point found.
 Normal termination of Gaussian 09 at Tue Jul 19 19:52:17 2016.
