 Gaussian 09, Revision E.01,
 Gaussian 09:  EM64L-G09RevE.01 30-Nov-2015

 ---------------------------------------------
 #p b3lyp/6-311++G(3df,2p) freq symmetry=Loose
 ---------------------------------------------

 ---------
 b3lyp opt
 ---------
 Symbolic Z-matrix:
 Charge =  2 Multiplicity = 3

                         Standard orientation:
 ---------------------------------------------------------------------
 Center     Atomic      Atomic             Coordinates (Angstroms)
 Number     Number       Type             X           Y           Z
 ---------------------------------------------------------------------
      1          6           0        0.546545   -0.961134    0.245223
      2          6           0       -0.537254   -0.037728    0.031981
      3          6           0       -1.930353   -0.015847   -0.096840
      4          1           0       -2.457597    0.924674   -0.250145
      5          1           0       -2.495188   -0.947374   -0.064443
      6          6           0        0.608379    0.870201    0.079574
      7          1           0        0.719260    1.886106    0.480936
      8          6           0        1.579621   -0.133758   -0.207167
      9          1           0        2.631894   -0.193810   -0.482975
 ---------------------------------------------------------------------

 SCF Done:  E(UB3LYP) =  -191.939588756     A.U. after   15 cycles

 The electronic state is 3-A.
 Alpha  occ. eigenvalues --  -10.77482 -10.75125 -10.74551 -10.73647 -10.70142
 Alpha  occ. eigenvalues --   -1.45451  -1.25340  -1.12699  -1.12202  -0.97996
 Alpha  occ. eigenvalues --   -0.96589  -0.94277  -0.90965  -0.89120  -0.85926
 Alpha  occ. eigenvalues --   -0.76106  -0.75327
 Alpha virt. eigenvalues --   -0.56135  -0.55312  -0.42915  -0.32834  -0.32429
 Alpha virt. eigenvalues --   -0.29761  -0.29088  -0.27661  -0.26573  -0.25969
 Alpha virt. eigenvalues --   -0.24295  -0.22537  -0.21916  -0.21264  -0.20350

  Beta  occ. eigenvalues --  -10.75904 -10.74874 -10.73981 -10.73169 -10.69432
  Beta  occ. eigenvalues --   -1.43717  -1.22601  -1.10716  -1.10601  -0.96999
  Beta  occ. eigenvalues --   -0.93889  -0.92260  -0.90163  -0.86185  -0.84820
  Beta virt. eigenvalues --   -0.64630  -0.60581  -0.53545  -0.50386  -0.38639
  Beta virt. eigenvalues --   -0.32046  -0.31767  -0.29074  -0.28551  -0.27139
  Beta virt. eigenvalues --   -0.26096  -0.24878  -0.23874  -0.22333  -0.21124

 Mulliken charges and spin densities:
               1          2
     1  C    0.361044   0.835434
     2  C    0.479149   0.345246
     3  C   -0.275596   0.429284
     4  H    0.292826  -0.012266
     5  H    0.293343  -0.008203
     6  C    0.125728   0.124725
     7  H    0.323118   0.033058
     8  C    0.031606   0.250202
     9  H    0.368783   0.002521
 Sum of Mulliken charges =   2.00000   2.00000

 Dipole moment (field-independent basis, Debye):
    X=             -0.0868    Y=              0.9786    Z=             -0.2173  Tot=              1.0062
 Quadrupole moment (field-independent basis, Debye-Ang):
   XX=              4.9121   YY=            -15.5910   ZZ=            -23.7749
   XY=              0.5737   XZ=             -0.4425   YZ=              0.8844

  Exact polarizability:  69.981  -0.561  40.492  -0.684  -0.174  25.297
 Approx polarizability: 109.379  -1.367  74.680  -3.545  -2.228  38.848

                      1                      2                      3
                      A                      A                      A
 Frequencies --    242.1682               310.9534               355.8924
 Red. masses --      3.1276                 1.0901                 2.4414
 Frc consts  --      0.1081                 0.0621                 0.1822
 IR Inten    --     10.3592                 0.8425                 5.4184

                      4                      5                      6
                      A                      A                      A
 Frequencies --    484.9230               658.6278               846.1207
 Red. masses --      3.4866                 3.6544                 2.0359
 Frc consts  --      0.4831                 0.9340                 0.8588
 IR Inten    --      6.0671                19.1189                19.8009

                      7                      8                      9
                      A                      A                      A
 Frequencies --    882.0092               927.0571               994.6231
 Red. masses --      1.9960                 1.6385                 1.7962
 Frc consts  --      0.9149                 0.8297                 1.0469
 IR Inten    --      0.4659                18.0384                10.3011

                     10                     11                     12
                      A                      A                      A
 Frequencies --   1030.7605              1049.3782              1083.0514
 Red. masses --      1.5599                 1.4315                 2.6785
 Frc consts  --      0.9765                 0.9288                 1.8512
 IR Inten    --     24.7731                10.5975                 8.5170

                     13                     14                     15
                      A                      A                      A
 Frequencies --   1147.5198              1243.1471              1359.8874
 Red. masses --      1.4487                 2.9778                 5.2097
 Frc consts  --      1.1239                 2.7114                 5.6763
 IR Inten    --     13.7635                56.7616                98.3441

                     16                     17                     18
                      A                      A                      A
 Frequencies --   1450.5423              1588.8931              3058.1258
 Red. masses --      1.1386                 8.5645                 1.0982
 Frc consts  --      1.4115                12.7392                 6.0511
 IR Inten    --     20.5786                 0.9177               171.5944

                     19                     20                     21
                      A                      A                      A
 Frequencies --   3084.1726              3162.0373              3199.1791
 Red. masses --      1.0541                 1.1122                 1.1256
 Frc consts  --      5.9075                 6.5516                 6.7876
 IR Inten    --    142.8988               223.4799                79.9615

 - Thermochemistry -
 -------------------
 Temperature   298.150 Kelvin.  Pressure   1.00000 Atm.
 Atom     1 has atomic number  6 and mass  12.00000

 Molecular mass:    64.03130 amu.
 Principal axes and moments of inertia in atomic units:
                           1         2         3
     Eigenvalues --    98.97159 385.40859 470.50117
           X            0.99994   0.01114  -0.00106
           Y           -0.01110   0.99935   0.03420
           Z            0.00144  -0.03419   0.99941
 This molecule is an asymmetric top.
 Rotational symmetry number  1.
 Rotational temperatures (Kelvin)      0.87514     0.22473     0.18409
 Rotational constants (GHZ):          18.23494     4.68267     3.83578
 Zero-point vibrational energy     168428.6 (Joules/Mol)
                                   40.25541 (Kcal/Mol)
 Warning -- explicit consideration of   4 degrees of freedom as
           vibrations may cause significant error
 Vibrational temperatures:    348.43   447.39   512.05   697.70   947.62
          (Kelvin)           1217.38  1269.01  1333.83  1431.04  1483.03
                             1509.82  1558.27  1651.02  1788.61  1956.57
                             2087.00  2286.06  4399.96  4437.43  4549.46
                             4602.90

 Zero-point correction=                           0.064151 (Hartree/Particle)
 Thermal correction to Energy=                    0.068962
 Thermal correction to Enthalpy=                  0.069906
 Thermal correction to Gibbs Free Energy=         0.036071
 Sum of electronic and zero-point Energies=           -191.875438
 Sum of electronic and thermal Energies=              -191.870627
 Sum of electronic and thermal Enthalpies=            -191.869683
 Sum of electronic and thermal Free Energies=         -191.903518

                     E (Thermal)             CV                S
                      KCal/Mol        Cal/Mol-Kelvin    Cal/Mol-Kelvin
 Total                   43.274             16.749             71.211
 Electronic               0.000              0.000              2.183
 Translational            0.889              2.981             38.389
 Rotational               0.889              2.981             24.399
 Vibrational             41.497             10.787              6.240
 Vibration     1          0.658              1.776              1.787
 Vibration     2          0.700              1.653              1.357
 Vibration     3          0.731              1.563              1.140
 Vibration     4          0.841              1.283              0.697

 Optimization completed.
    -- Stationary point found.
 Normal termination of Gaussian 09 at Mon Jun 20 09:35:51 2016.
