 Gaussian 09, Revision E.01,
 Gaussian 09:  EM64L-G09RevE.01 30-Nov-2015

 ---------------------------------------------
 #p b3lyp/6-311++G(3df,2p) freq symmetry=Loose
 ---------------------------------------------

 ---------
 b3lyp opt
 ---------
 Symbolic Z-matrix:
 Charge =  3 Multiplicity = 4

                         Standard orientation:
 ---------------------------------------------------------------------
 Center     Atomic      Atomic             Coordinates (Angstroms)
 Number     Number       Type             X           Y           Z
 ---------------------------------------------------------------------
      1          6           0        1.629465   -0.484823    0.000327
      2          6           0        0.286262   -0.262047   -0.000381
      3          1           0        2.386682   -1.338744    0.001216
      4          6           0        1.512983    0.847773   -0.000013
      5          1           0        1.546704    1.966582   -0.000751
      6          6           0       -1.135129   -0.513349   -0.000523
      7          1           0       -1.396289   -1.608412   -0.000179
      8          6           0       -2.169638    0.486183    0.000406
      9          1           0       -3.280752    0.538149    0.000821
 ---------------------------------------------------------------------

 SCF Done:  E(UB3LYP) =  -191.072252768     A.U. after   15 cycles

 The electronic state is 4-A.
 Alpha  occ. eigenvalues --  -11.03565 -11.02891 -10.97601 -10.97510 -10.96934
 Alpha  occ. eigenvalues --   -1.66324  -1.51960  -1.36755  -1.29949  -1.24405
 Alpha  occ. eigenvalues --   -1.18875  -1.17317  -1.14041  -1.11577  -1.03719
 Alpha  occ. eigenvalues --   -1.01280  -0.94378
 Alpha virt. eigenvalues --   -0.81759  -0.72719  -0.66883  -0.66267  -0.56936
 Alpha virt. eigenvalues --   -0.52718  -0.50338  -0.47276  -0.46436  -0.42983
 Alpha virt. eigenvalues --   -0.41876  -0.41334  -0.40454  -0.38287  -0.37257

  Beta  occ. eigenvalues --  -11.02842 -11.02003 -10.96784 -10.96551 -10.95457
  Beta  occ. eigenvalues --   -1.63938  -1.47648  -1.32505  -1.27264  -1.20813
  Beta  occ. eigenvalues --   -1.16492  -1.14403  -1.12056  -1.09138
  Beta virt. eigenvalues --   -0.91587  -0.89455  -0.77587  -0.75055  -0.69616
  Beta virt. eigenvalues --   -0.61864  -0.61456  -0.54439  -0.51301  -0.48882
  Beta virt. eigenvalues --   -0.46076  -0.44912  -0.41532  -0.41461  -0.40316

 Mulliken charges and spin densities:
               1          2
     1  C    0.426229   0.017717
     2  C    0.367359   0.408469
     3  H    0.430739   0.123352
     4  C    0.238549   0.503336
     5  H    0.455968   0.002317
     6  C    0.217392   0.655875
     7  H    0.326941   0.068672
     8  C    0.133578   1.210394
     9  H    0.403245   0.009869
 Sum of Mulliken charges =   3.00000   3.00000

 Dipole moment (field-independent basis, Debye):
    X=             -0.3649    Y=              0.6082    Z=              0.0011  Tot=              0.7093
 Quadrupole moment (field-independent basis, Debye-Ang):
   XX=             31.6350   YY=             -5.9354   ZZ=            -22.6050
   XY=              0.1657   XZ=             -0.0003   YZ=             -0.0036

  Exact polarizability:  74.348  -0.082  39.681   0.002  -0.000  22.748
 Approx polarizability: 116.874   5.447  66.341   0.009   0.004  33.840

                      1                      2                      3
                      A                      A                      A
 Frequencies --    164.9631               193.7051               356.9820
 Red. masses --      3.1103                 3.5677                 2.3569
 Frc consts  --      0.0499                 0.0789                 0.1770
 IR Inten    --      0.1085                 2.4531                56.4433

                      4                      5                      6
                      A                      A                      A
 Frequencies --    402.3510               501.9082               609.5411
 Red. masses --      4.0086                 3.3251                 1.4966
 Frc consts  --      0.3823                 0.4935                 0.3276
 IR Inten    --     41.8925                 9.7112                23.3047

                      7                      8                      9
                      A                      A                      A
 Frequencies --    669.6567               676.6226               765.9530
 Red. masses --      2.2262                 1.3337                 1.2926
 Frc consts  --      0.5882                 0.3597                 0.4468
 IR Inten    --     18.0119                31.1453                74.1263

                     10                     11                     12
                      A                      A                      A
 Frequencies --    806.7032               845.2285               861.2218
 Red. masses --      1.2673                 1.7216                 1.4091
 Frc consts  --      0.4859                 0.7247                 0.6158
 IR Inten    --     38.7525                77.8832                11.6869

                     13                     14                     15
                      A                      A                      A
 Frequencies --    914.3891              1125.1601              1243.2697
 Red. masses --      1.4834                 2.2020                 3.9163
 Frc consts  --      0.7308                 1.6425                 3.5666
 IR Inten    --     47.0522               126.5070               203.6674

                     16                     17                     18
                      A                      A                      A
 Frequencies --   1269.6536              1531.1422              2591.0969
 Red. masses --      2.2199                 5.5956                 1.1142
 Frc consts  --      2.1084                 7.7291                 4.4073
 IR Inten    --     27.3264                41.5993               874.8263

                     19                     20                     21
                      A                      A                      A
 Frequencies --   2737.4640              2885.3513              2943.4589
 Red. masses --      1.0834                 1.1319                 1.1031
 Frc consts  --      4.7832                 5.5523                 5.6309
 IR Inten    --    555.9247               407.4714               393.2091

 - Thermochemistry -
 -------------------
 Temperature   298.150 Kelvin.  Pressure   1.00000 Atm.
 Atom     1 has atomic number  6 and mass  12.00000

 Molecular mass:    64.03130 amu.
 Principal axes and moments of inertia in atomic units:
                           1         2         3
     Eigenvalues --    95.94493 547.16374 643.10860
           X            1.00000   0.00261  -0.00000
           Y           -0.00261   1.00000  -0.00009
           Z            0.00000   0.00009   1.00000
 This molecule is an asymmetric top.
 Rotational symmetry number  1.
 Rotational temperatures (Kelvin)      0.90275     0.15830     0.13468
 Rotational constants (GHZ):          18.81018     3.29836     2.80628
 Zero-point vibrational energy     144125.0 (Joules/Mol)
                                   34.44671 (Kcal/Mol)
 Warning -- explicit consideration of   6 degrees of freedom as
           vibrations may cause significant error
 Vibrational temperatures:    237.34   278.70   513.62   578.89   722.13
          (Kelvin)            876.99   963.49   973.51  1102.03  1160.66
                             1216.09  1239.10  1315.60  1618.85  1788.79
                             1826.75  2202.97  3728.01  3938.60  4151.37
                             4234.98

 Zero-point correction=                           0.054894 (Hartree/Particle)
 Thermal correction to Energy=                    0.060600
 Thermal correction to Enthalpy=                  0.061544
 Thermal correction to Gibbs Free Energy=         0.025553
 Sum of electronic and zero-point Energies=           -191.017358
 Sum of electronic and thermal Energies=              -191.011653
 Sum of electronic and thermal Enthalpies=            -191.010708
 Sum of electronic and thermal Free Energies=         -191.046699

                     E (Thermal)             CV                S
                      KCal/Mol        Cal/Mol-Kelvin    Cal/Mol-Kelvin
 Total                   38.027             20.376             75.750
 Electronic               0.000              0.000              2.755
 Translational            0.889              2.981             38.389
 Rotational               0.889              2.981             25.027
 Vibrational             36.250             14.414              9.579
 Vibration     1          0.623              1.886              2.492
 Vibration     2          0.635              1.849              2.192
 Vibration     3          0.732              1.561              1.135
 Vibration     4          0.768              1.465              0.954
 Vibration     5          0.857              1.246              0.653
 Vibration     6          0.969              1.012              0.434

 Optimization completed.
    -- Stationary point found.
 Normal termination of Gaussian 09 at Mon Jun 20 11:45:34 2016.
