 Gaussian 09, Revision E.01,
 Gaussian 09:  EM64L-G09RevE.01 30-Nov-2015

 ---------------------------------------------
 #p b3lyp/6-311++G(3df,2p) freq symmetry=Loose
 ---------------------------------------------

 ---------
 b3lyp opt
 ---------
 Symbolic Z-matrix:
 Charge =  3 Multiplicity = 4

                         Standard orientation:
 ---------------------------------------------------------------------
 Center     Atomic      Atomic             Coordinates (Angstroms)
 Number     Number       Type             X           Y           Z
 ---------------------------------------------------------------------
      1          6           0        1.215014    1.117184   -0.000000
      2          6           0       -0.884497    1.608616   -0.000000
      3          1           0       -1.173490    2.098102    0.959405
      4          6           0       -0.000000    0.433058   -0.000000
      5          1           0       -1.173490    2.098102   -0.959405
      6          6           0       -0.241171   -0.985855    0.000000
      7          1           0       -1.322129   -1.395496    0.000000
      8          6           0        0.391591   -2.112949    0.000000
      9          1           0        0.783485   -3.161029    0.000000
 ---------------------------------------------------------------------

 SCF Done:  E(UB3LYP) =  -191.016766546     A.U. after   18 cycles

 The electronic state is 4-A".
 Alpha  occ. eigenvalues --  -11.04686 -11.02123 -11.00317 -10.95946 -10.93331
 Alpha  occ. eigenvalues --   -1.59171  -1.51564  -1.36641  -1.33771  -1.21933
 Alpha  occ. eigenvalues --   -1.17269  -1.14642  -1.13961  -1.08089  -1.04967
 Alpha  occ. eigenvalues --   -0.99007  -0.97382
 Alpha virt. eigenvalues --   -0.80667  -0.78675  -0.78279  -0.63671  -0.54154
 Alpha virt. eigenvalues --   -0.51826  -0.49166  -0.45470  -0.42896  -0.42544
 Alpha virt. eigenvalues --   -0.42297  -0.40191  -0.39824  -0.38610  -0.37398

  Beta  occ. eigenvalues --  -11.01519 -11.00620 -10.99819 -10.95409 -10.93233
  Beta  occ. eigenvalues --   -1.56123  -1.49244  -1.33126  -1.30464  -1.20884
  Beta  occ. eigenvalues --   -1.16253  -1.11827  -1.11556  -1.01962
  Beta virt. eigenvalues --   -0.87389  -0.85586  -0.83154  -0.79065  -0.71371
  Beta virt. eigenvalues --   -0.69264  -0.60019  -0.52964  -0.51187  -0.48607
  Beta virt. eigenvalues --   -0.44338  -0.42217  -0.42068  -0.41082  -0.39725

 Mulliken charges and spin densities:
               1          2
     1  C    0.250083   1.989304
     2  C   -0.268827   0.374111
     3  H    0.360156   0.021746
     4  C    1.160637   0.128314
     5  H    0.360156   0.021746
     6  C   -0.110379   0.154295
     7  H    0.310940  -0.001282
     8  C    0.439948   0.319680
     9  H    0.497284  -0.007913
 Sum of Mulliken charges =   3.00000   3.00000

 Dipole moment (field-independent basis, Debye):
    X=             -0.2818    Y=             -1.6293    Z=             -0.0000  Tot=              1.6535
 Quadrupole moment (field-independent basis, Debye-Ang):
   XX=             -6.7328   YY=             30.0712   ZZ=            -21.1161
   XY=             -7.5967   XZ=              0.0000   YZ=             -0.0000

  Exact polarizability:  45.790  -7.668  79.467   0.000   0.000  25.259
 Approx polarizability:  94.132 -12.127 132.963   0.000  -0.000  35.883

                      1                      2                      3
                     A"                     A'                     A'
 Frequencies --    164.8323               223.1011               291.8833
 Red. masses --      2.2500                 3.2157                 5.1478
 Frc consts  --      0.0360                 0.0943                 0.2584
 IR Inten    --      9.3878                22.1902                11.3180

                      4                      5                      6
                     A"                     A'                     A"
 Frequencies --    305.8998               424.9925               477.1487
 Red. masses --      1.2071                 3.7656                 1.7470
 Frc consts  --      0.0666                 0.4007                 0.2343
 IR Inten    --      7.6298                13.3898                37.7225

                      7                      8                      9
                     A"                     A'                     A"
 Frequencies --    644.8642               717.7147               758.2019
 Red. masses --      1.4712                 4.1376                 1.4706
 Frc consts  --      0.3605                 1.2557                 0.4981
 IR Inten    --     47.3656                 7.7904                13.4958

                     10                     11                     12
                     A'                     A"                     A'
 Frequencies --    919.6350               926.1770              1019.4239
 Red. masses --      1.4398                 1.5192                 1.4646
 Frc consts  --      0.7174                 0.7678                 0.8968
 IR Inten    --     23.3018                 3.3362                20.7899

                     13                     14                     15
                     A'                     A'                     A'
 Frequencies --   1062.0774              1163.9446              1311.1320
 Red. masses --      1.4032                 6.2669                 2.0411
 Frc consts  --      0.9326                 5.0023                 2.0673
 IR Inten    --     29.9091                47.5784                24.1130

                     16                     17                     18
                     A'                     A'                     A'
 Frequencies --   1334.5644              1691.6838              2527.5877
 Red. masses --      1.7440                 5.3381                 1.0721
 Frc consts  --      1.8301                 9.0006                 4.0353
 IR Inten    --    118.7661               747.4455               426.8340

                     19                     20                     21
                     A'                     A'                     A"
 Frequencies --   2809.8385              2915.0934              2928.2602
 Red. masses --      1.0444                 1.1493                 1.1233
 Frc consts  --      4.8584                 5.7543                 5.6750
 IR Inten    --    693.3504               475.8602               257.7626

 - Thermochemistry -
 -------------------
 Temperature   298.150 Kelvin.  Pressure   1.00000 Atm.
 Atom     1 has atomic number  6 and mass  12.00000

 Molecular mass:    64.03130 amu.
 Principal axes and moments of inertia in atomic units:
                           1         2         3
     Eigenvalues --   124.04478 493.03796 603.83179
           X           -0.13156   0.99131   0.00000
           Y            0.99131   0.13156   0.00000
           Z            0.00000   0.00000   1.00000
 This molecule is an asymmetric top.
 Rotational symmetry number  1.
 Rotational temperatures (Kelvin)      0.69825     0.17567     0.14344
 Rotational constants (GHZ):          14.54911     3.66045     2.98881
 Zero-point vibrational energy     147248.7 (Joules/Mol)
                                   35.19328 (Kcal/Mol)
 Warning -- explicit consideration of   6 degrees of freedom as
           vibrations may cause significant error
 Vibrational temperatures:    237.16   320.99   419.95   440.12   611.47
          (Kelvin)            686.51   927.81  1032.63  1090.88  1323.15
                             1332.56  1466.72  1528.09  1674.65  1886.42
                             1920.14  2433.95  3636.63  4042.73  4194.16
                             4213.11

 Zero-point correction=                           0.056084 (Hartree/Particle)
 Thermal correction to Energy=                    0.061969
 Thermal correction to Enthalpy=                  0.062913
 Thermal correction to Gibbs Free Energy=         0.026540
 Sum of electronic and zero-point Energies=           -190.960682
 Sum of electronic and thermal Energies=              -190.954798
 Sum of electronic and thermal Enthalpies=            -190.953854
 Sum of electronic and thermal Free Energies=         -190.990227

                     E (Thermal)             CV                S
                      KCal/Mol        Cal/Mol-Kelvin    Cal/Mol-Kelvin
 Total                   38.886             20.331             76.554
 Electronic               0.000              0.000              2.755
 Translational            0.889              2.981             38.389
 Rotational               0.889              2.981             25.116
 Vibrational             37.109             14.370             10.294
 Vibration     1          0.623              1.886              2.494
 Vibration     2          0.649              1.806              1.934
 Vibration     3          0.687              1.689              1.463
 Vibration     4          0.696              1.663              1.384
 Vibration     5          0.787              1.416              0.875
 Vibration     6          0.834              1.301              0.718

 Optimization completed.
    -- Stationary point found.
 Normal termination of Gaussian 09 at Wed Jul 20 19:19:58 2016.
