 Gaussian 09, Revision E.01,
 Gaussian 09:  EM64L-G09RevE.01 30-Nov-2015

 ------------------------------------------------------
 #p b3lyp/6-311++G(3df,2p) freq IOp(2/17=3) IOp(2/18=3)
 ------------------------------------------------------

 ---------
 b3lyp opt
 ---------
 Symbolic Z-matrix:
 Charge =  3 Multiplicity = 2

                         Standard orientation:
 ---------------------------------------------------------------------
 Center     Atomic      Atomic             Coordinates (Angstroms)
 Number     Number       Type             X           Y           Z
 ---------------------------------------------------------------------
      1          6           0       -0.298135   -2.327352    0.000000
      2          6           0        0.000000    1.720104    0.000000
      3          1           0        2.304473    1.106047    0.000000
      4          1           0       -0.766930    2.528880    0.000000
      5          6           0        0.078301    0.257101    0.000000
      6          6           0        1.178866    1.072300    0.000000
      7          6           0       -0.736735   -0.962027    0.000000
      8          1           0       -1.435777   -1.097837   -0.929185
      9          1           0       -1.435777   -1.097837    0.929185
 ---------------------------------------------------------------------

 SCF Done:  E(UB3LYP) =  -191.055121832     A.U. after   21 cycles

 The electronic state is 2-A'.
 Alpha  occ. eigenvalues --  -11.13495 -11.00183 -10.97066 -10.96785 -10.94542
 Alpha  occ. eigenvalues --   -1.65747  -1.56543  -1.36225  -1.27233  -1.21575
 Alpha  occ. eigenvalues --   -1.19638  -1.17776  -1.10251  -1.09049  -1.07136
 Alpha  occ. eigenvalues --   -1.03520
 Alpha virt. eigenvalues --   -0.85737  -0.84021  -0.74374  -0.68626  -0.59005
 Alpha virt. eigenvalues --   -0.54392  -0.50601  -0.50147  -0.49298  -0.47832
 Alpha virt. eigenvalues --   -0.44682  -0.44228  -0.42547  -0.41873  -0.38027

  Beta  occ. eigenvalues --  -11.12700 -10.99753 -10.96693 -10.96655 -10.94487
  Beta  occ. eigenvalues --   -1.64389  -1.55391  -1.35113  -1.25522  -1.19837
  Beta  occ. eigenvalues --   -1.18518  -1.17497  -1.09517  -1.06763  -1.02922
  Beta virt. eigenvalues --   -0.94188  -0.84610  -0.82993  -0.73901  -0.68420
  Beta virt. eigenvalues --   -0.58056  -0.53158  -0.50366  -0.49542  -0.48410
  Beta virt. eigenvalues --   -0.47083  -0.44423  -0.43823  -0.42461  -0.41346

 Mulliken charges and spin densities:
               1          2
     1  C    0.509048   0.413282
     2  C    0.155972   0.188105
     3  H    0.420560   0.075006
     4  H    0.420002   0.018844
     5  C    0.406624   0.283666
     6  C    0.492406   0.009660
     7  C   -0.164813  -0.019979
     8  H    0.380101   0.015707
     9  H    0.380101   0.015707
 Sum of Mulliken charges =   3.00000   1.00000

 Dipole moment (field-independent basis, Debye):
    X=             -1.5728    Y=             -1.9624    Z=             -0.0000  Tot=              2.5149
 Quadrupole moment (field-independent basis, Debye-Ang):
   XX=             -3.5663   YY=             20.1746   ZZ=            -19.7278
   XY=             10.6037   XZ=             -0.0000   YZ=             -0.0000

  Exact polarizability:  45.482  22.696 116.893  -0.000   0.000  26.414
 Approx polarizability:  76.065  42.690 291.611   0.000  -0.000  41.961

                      1                      2                      3
                     A"                     A'                     A'
 Frequencies --     93.9886               222.9247               346.7968
 Red. masses --      2.6292                 5.3428                 3.5603
 Frc consts  --      0.0137                 0.1564                 0.2523
 IR Inten    --      0.3093                 1.9741                26.5314

                      4                      5                      6
                     A"                     A"                     A'
 Frequencies --    347.5956               537.3820               556.7080
 Red. masses --      2.2656                 1.9191                 5.0589
 Frc consts  --      0.1613                 0.3265                 0.9238
 IR Inten    --     39.0005                 0.6436               421.9202

                      7                      8                      9
                     A'                     A"                     A'
 Frequencies --    653.5046               731.8700               761.3054
 Red. masses --      1.9643                 1.3840                 2.4251
 Frc consts  --      0.4943                 0.4368                 0.8281
 IR Inten    --     14.9968                19.2975               191.7444

                     10                     11                     12
                     A"                     A'                     A'
 Frequencies --    840.1530               900.5944               963.0682
 Red. masses --      1.2253                 1.3475                 1.8995
 Frc consts  --      0.5096                 0.6439                 1.0380
 IR Inten    --     52.5053               161.1779                57.8756

                     13                     14                     15
                     A"                     A'                     A'
 Frequencies --    996.6427              1083.0729              1133.2054
 Red. masses --      1.2116                 1.2724                 3.7496
 Frc consts  --      0.7091                 0.8794                 2.8370
 IR Inten    --      1.1619                58.2803               198.3676

                     16                     17                     18
                     A'                     A'                     A"
 Frequencies --   1247.2432              1633.3382              2387.6398
 Red. masses --      2.0810                 5.1757                 1.0878
 Frc consts  --      1.9074                 8.1353                 3.6537
 IR Inten    --     60.1861               135.3684               461.0203

                     19                     20                     21
                     A'                     A'                     A'
 Frequencies --   2400.4611              2734.7662              2900.6083
 Red. masses --      1.0586                 1.1140                 1.1339
 Frc consts  --      3.5939                 4.9090                 5.6208
 IR Inten    --    835.5390              1237.4188               973.3475

 - Thermochemistry -
 -------------------
 Temperature   298.150 Kelvin.  Pressure   1.00000 Atm.
 Atom     1 has atomic number  6 and mass  12.00000

 Molecular mass:    64.03130 amu.
 Principal axes and moments of inertia in atomic units:
                           1         2         3
     Eigenvalues --    88.09582 533.84178 609.50828
           X            0.30319   0.95293   0.00000
           Y            0.95293  -0.30319   0.00000
           Z            0.00000  -0.00000   1.00000
 This molecule is an asymmetric top.
 Rotational symmetry number  1.
 Rotational temperatures (Kelvin)      0.98318     0.16225     0.14210
 Rotational constants (GHZ):          20.48612     3.38067     2.96098
 Zero-point vibrational energy     140398.9 (Joules/Mol)
                                   33.55615 (Kcal/Mol)
 Warning -- explicit consideration of   6 degrees of freedom as
           vibrations may cause significant error
 Vibrational temperatures:    135.23   320.74   498.96   500.11   773.17
          (Kelvin)            800.98   940.25  1053.00  1095.35  1208.79
                             1295.75  1385.64  1433.94  1558.30  1630.43
                             1794.50  2350.01  3435.28  3453.72  3934.71
                             4173.32

 Zero-point correction=                           0.053475 (Hartree/Particle)
 Thermal correction to Energy=                    0.059282
 Thermal correction to Enthalpy=                  0.060226
 Thermal correction to Gibbs Free Energy=         0.024515
 Sum of electronic and zero-point Energies=           -191.001647
 Sum of electronic and thermal Energies=              -190.995840
 Sum of electronic and thermal Enthalpies=            -190.994896
 Sum of electronic and thermal Free Energies=         -191.030607

                     E (Thermal)             CV                S
                      KCal/Mol        Cal/Mol-Kelvin    Cal/Mol-Kelvin
 Total                   37.200             20.245             75.161
 Electronic               0.000              0.000              1.377
 Translational            0.889              2.981             38.389
 Rotational               0.889              2.981             24.864
 Vibrational             35.423             14.284             10.530
 Vibration     1          0.603              1.953              3.575
 Vibration     2          0.649              1.806              1.935
 Vibration     3          0.725              1.582              1.181
 Vibration     4          0.725              1.580              1.177
 Vibration     5          0.892              1.167              0.571
 Vibration     6          0.912              1.125              0.530

 Optimization completed.
    -- Stationary point found.
 Normal termination of Gaussian 09 at Thu Jan 31 08:21:03 2019.
