 Gaussian 09, Revision E.01,
 Gaussian 09:  EM64L-G09RevE.01 30-Nov-2015

 ---------------------------------------------
 #p b3lyp/6-311++G(3df,2p) freq symmetry=Loose
 ---------------------------------------------

 ---------
 b3lyp opt
 ---------
 Symbolic Z-matrix:
 Charge =  2 Multiplicity = 3

                         Standard orientation:
 ---------------------------------------------------------------------
 Center     Atomic      Atomic             Coordinates (Angstroms)
 Number     Number       Type             X           Y           Z
 ---------------------------------------------------------------------
      1          6           0       -1.050441    0.721000    0.000483
      2          1           0       -1.885970    1.425153    0.000400
      3          6           0        0.306020   -0.944229   -0.001656
      4          6           0        1.434916   -0.000261    0.000977
      5          1           0        2.046104   -0.000156    0.921249
      6          1           0        2.050571    0.001410   -0.916494
      7          6           0        0.305542    0.944729   -0.001237
      8          6           0       -1.050250   -0.721399    0.000312
      9          1           0       -1.885420   -1.425449    0.001576
 ---------------------------------------------------------------------

 SCF Done:  E(UB3LYP) =  -191.906756243     A.U. after   14 cycles

 The electronic state is 3-A.
 Alpha  occ. eigenvalues --  -10.80414 -10.80406 -10.73230 -10.73192 -10.71826
 Alpha  occ. eigenvalues --   -1.45277  -1.27075  -1.21450  -1.06090  -1.01853
 Alpha  occ. eigenvalues --   -0.98015  -0.96663  -0.94684  -0.91354  -0.83960
 Alpha  occ. eigenvalues --   -0.77637  -0.76285
 Alpha virt. eigenvalues --   -0.60397  -0.57772  -0.44819  -0.34938  -0.33637
 Alpha virt. eigenvalues --   -0.31395  -0.28433  -0.27928  -0.27607  -0.26305
 Alpha virt. eigenvalues --   -0.23971  -0.23886  -0.21591  -0.21023  -0.20280

  Beta  occ. eigenvalues --  -10.78695 -10.78683 -10.73023 -10.72985 -10.71999
  Beta  occ. eigenvalues --   -1.43080  -1.26438  -1.17934  -1.05022  -0.98851
  Beta  occ. eigenvalues --   -0.95410  -0.94364  -0.93753  -0.90285  -0.81919
  Beta virt. eigenvalues --   -0.64276  -0.64175  -0.53366  -0.53259  -0.41084
  Beta virt. eigenvalues --   -0.34553  -0.32417  -0.30587  -0.28250  -0.27824
  Beta virt. eigenvalues --   -0.27097  -0.25677  -0.23765  -0.23396  -0.21403

 Mulliken charges and spin densities:
               1          2
     1  C    0.021889   0.058565
     2  H    0.325618   0.022922
     3  C    0.463115   0.963013
     4  C   -0.239833  -0.113076
     5  H    0.309797   0.010904
     6  H    0.309403   0.011185
     7  C    0.461568   0.964971
     8  C    0.022570   0.058605
     9  H    0.325875   0.022911
 Sum of Mulliken charges =   2.00000   2.00000

 Dipole moment (field-independent basis, Debye):
    X=              0.0942    Y=             -0.0005    Z=              0.0043  Tot=              0.0943
 Quadrupole moment (field-independent basis, Debye-Ang):
   XX=             -2.9668   YY=            -14.0072   ZZ=            -23.1947
   XY=              0.0008   XZ=             -0.0000   YZ=             -0.0028

  Exact polarizability:  53.480  -0.000  46.749  -0.012   0.000  26.682
 Approx polarizability:  93.648   0.001 108.383  -0.036   0.009  40.246

                      1                      2                      3
                      A                      A                      A
 Frequencies --    156.7931               285.8767               470.6742
 Red. masses --      2.9835                 7.6076                 2.9184
 Frc consts  --      0.0432                 0.3663                 0.3809
 IR Inten    --     10.4351                38.0153                 0.0008

                      4                      5                      6
                      A                      A                      A
 Frequencies --    624.3362               693.1595               721.1216
 Red. masses --      6.6132                 7.3671                 1.1696
 Frc consts  --      1.5188                 2.0855                 0.3583
 IR Inten    --      0.0834                 0.1222                55.0426

                      7                      8                      9
                      A                      A                      A
 Frequencies --    895.9702               949.7589               982.2695
 Red. masses --      1.4504                 1.4224                 2.7564
 Frc consts  --      0.6860                 0.7559                 1.5669
 IR Inten    --      2.0157                 0.0010                 1.2572

                     10                     11                     12
                      A                      A                      A
 Frequencies --   1046.0945              1057.0313              1088.2418
 Red. masses --      1.1244                 1.9589                 1.1762
 Frc consts  --      0.7250                 1.2895                 0.8207
 IR Inten    --      0.0040                 0.0664                22.9738

                     13                     14                     15
                      A                      A                      A
 Frequencies --   1187.1700              1247.9316              1335.2757
 Red. masses --      1.3542                 2.6834                 1.1490
 Frc consts  --      1.1245                 2.4621                 1.2070
 IR Inten    --      0.0718               129.7125                59.9076

                     16                     17                     18
                      A                      A                      A
 Frequencies --   1388.2238              1465.3886              2932.5254
 Red. masses --      4.6147                 7.1495                 1.0534
 Frc consts  --      5.2398                 9.0454                 5.3372
 IR Inten    --    100.6616                 1.3464               357.2274

                     19                     20                     21
                      A                      A                      A
 Frequencies --   2988.1600              3094.7079              3116.5641
 Red. masses --      1.1105                 1.0941                 1.1063
 Frc consts  --      5.8419                 6.1738                 6.3311
 IR Inten    --    164.1994               144.4310               216.5797

 - Thermochemistry -
 -------------------
 Temperature   298.150 Kelvin.  Pressure   1.00000 Atm.
 Atom     1 has atomic number  6 and mass  12.00000

 Molecular mass:    64.03130 amu.
 Principal axes and moments of inertia in atomic units:
                           1         2         3
     Eigenvalues --   141.73117 252.66704 382.24271
           X            1.00000   0.00008   0.00003
           Y           -0.00008   1.00000  -0.00008
           Z           -0.00003   0.00008   1.00000
 This molecule is an asymmetric top.
 Rotational symmetry number  1.
 Rotational temperatures (Kelvin)      0.61111     0.34280     0.22659
 Rotational constants (GHZ):          12.73355     7.14276     4.72145
 Zero-point vibrational energy     165845.9 (Joules/Mol)
                                   39.63813 (Kcal/Mol)
 Warning -- explicit consideration of   3 degrees of freedom as
           vibrations may cause significant error
 Vibrational temperatures:    225.59   411.31   677.19   898.28   997.30
          (Kelvin)           1037.53  1289.10  1366.49  1413.26  1505.09
                             1520.83  1565.74  1708.07  1795.49  1921.16
                             1997.34  2108.36  4219.24  4299.29  4452.59
                             4484.04

 Zero-point correction=                           0.063167 (Hartree/Particle)
 Thermal correction to Energy=                    0.067963
 Thermal correction to Enthalpy=                  0.068908
 Thermal correction to Gibbs Free Energy=         0.035060
 Sum of electronic and zero-point Energies=           -191.843589
 Sum of electronic and thermal Energies=              -191.838793
 Sum of electronic and thermal Enthalpies=            -191.837849
 Sum of electronic and thermal Free Energies=         -191.871696

                     E (Thermal)             CV                S
                      KCal/Mol        Cal/Mol-Kelvin    Cal/Mol-Kelvin
 Total                   42.648             16.477             71.238
 Electronic               0.000              0.000              2.183
 Translational            0.889              2.981             38.389
 Rotational               0.889              2.981             24.130
 Vibrational             40.870             10.515              6.536
 Vibration     1          0.620              1.895              2.588
 Vibration     2          0.684              1.700              1.498
 Vibration     3          0.828              1.315              0.736

 Normal termination of Gaussian 09 at Mon Jun 20 10:12:46 2016.
