 Gaussian 09, Revision E.01,
 Gaussian 09:  EM64L-G09RevE.01 30-Nov-2015

 ---------------------------------------------
 #p b3lyp/6-311++G(3df,2p) freq symmetry=Loose
 ---------------------------------------------

 ---------
 b3lyp opt
 ---------
 Symbolic Z-matrix:
 Charge =  3 Multiplicity = 2

                         Standard orientation:
 ---------------------------------------------------------------------
 Center     Atomic      Atomic             Coordinates (Angstroms)
 Number     Number       Type             X           Y           Z
 ---------------------------------------------------------------------
      1          6           0       -1.493128   -0.000977   -0.000685
      2          1           0       -2.104772   -0.261883   -0.913046
      3          1           0       -2.105707    0.256406    0.912542
      4          6           0       -0.293711    0.861312   -0.195292
      5          6           0       -0.289372   -0.862474    0.196971
      6          6           0        1.067724    0.734303    0.080544
      7          1           0        1.914365    1.443650    0.292632
      8          6           0        1.071097   -0.732119   -0.081601
      9          1           0        1.920463   -1.438445   -0.291749
 ---------------------------------------------------------------------

 SCF Done:  E(UB3LYP) =  -191.062480429     A.U. after   16 cycles

 The electronic state is 2-A.
 Alpha  occ. eigenvalues --  -11.12225 -11.12217 -11.03136 -11.03103 -10.98549
 Alpha  occ. eigenvalues --   -1.74316  -1.54556  -1.47150  -1.31251  -1.26703
 Alpha  occ. eigenvalues --   -1.23069  -1.21176  -1.19986  -1.17690  -1.08344
 Alpha  occ. eigenvalues --   -1.06378
 Alpha virt. eigenvalues --   -0.91513  -0.84457  -0.81730  -0.73861  -0.59915
 Alpha virt. eigenvalues --   -0.59217  -0.53569  -0.50314  -0.47405  -0.47253
 Alpha virt. eigenvalues --   -0.45971  -0.45687  -0.42934  -0.42410  -0.40883

  Beta  occ. eigenvalues --  -11.11268 -11.11254 -11.03032 -11.02999 -10.98660
  Beta  occ. eigenvalues --   -1.73220  -1.54282  -1.45437  -1.30602  -1.24365
  Beta  occ. eigenvalues --   -1.21497  -1.20327  -1.19323  -1.16930  -1.07730
  Beta virt. eigenvalues --   -0.94128  -0.90281  -0.81895  -0.77980  -0.71985
  Beta virt. eigenvalues --   -0.59225  -0.58865  -0.53196  -0.49803  -0.47080
  Beta virt. eigenvalues --   -0.47051  -0.45808  -0.45294  -0.42536  -0.42085

 Mulliken charges and spin densities:
               1          2
     1  C   -0.152476  -0.073345
     2  H    0.372306   0.009824
     3  H    0.372506   0.009849
     4  C    0.644275   0.492636
     5  C    0.640422   0.497174
     6  C    0.163060   0.015927
     7  H    0.396569   0.015750
     8  C    0.166360   0.016703
     9  H    0.396979   0.015481
 Sum of Mulliken charges =   3.00000   1.00000

 Dipole moment (field-independent basis, Debye):
    X=              0.3933    Y=              0.0034    Z=              0.0028  Tot=              0.3933
 Quadrupole moment (field-independent basis, Debye-Ang):
   XX=              8.7284   YY=             -7.6695   ZZ=            -19.6187
   XY=              0.0063   XZ=             -0.0030   YZ=              1.2996

  Exact polarizability:  53.486   0.005  39.614  -0.008  -0.190  24.674
 Approx polarizability: 101.811   0.021  95.970  -0.043  -5.151  39.804

                      1                      2                      3
                      A                      A                      A
 Frequencies --    115.7994               283.5114               369.4675
 Red. masses --      6.9076                 2.8581                 3.0965
 Frc consts  --      0.0546                 0.1354                 0.2490
 IR Inten    --      8.1014                21.6699                20.8234

                      4                      5                      6
                      A                      A                      A
 Frequencies --    491.0201               576.6815               733.4236
 Red. masses --      3.7490                 5.8710                 1.3697
 Frc consts  --      0.5326                 1.1504                 0.4341
 IR Inten    --      0.1344                 8.1344                83.2722

                      7                      8                      9
                      A                      A                      A
 Frequencies --    839.9569               918.5046               924.3218
 Red. masses --      2.8150                 2.5270                 1.4464
 Frc consts  --      1.1702                 1.2561                 0.7281
 IR Inten    --     79.2511                 0.6024                 0.2092

                     10                     11                     12
                      A                      A                      A
 Frequencies --    942.1739               994.0976              1030.6383
 Red. masses --      1.5760                 1.3840                 1.6759
 Frc consts  --      0.8243                 0.8059                 1.0488
 IR Inten    --    106.9807                18.9205                28.1007

                     13                     14                     15
                      A                      A                      A
 Frequencies --   1062.6969              1096.7542              1214.1384
 Red. masses --      1.2900                 1.3513                 3.6762
 Frc consts  --      0.8583                 0.9577                 3.1929
 IR Inten    --     49.9391                13.2028               166.9186

                     16                     17                     18
                      A                      A                      A
 Frequencies --   1260.7846              1353.9277              2686.0496
 Red. masses --      1.2426                 3.2647                 1.0477
 Frc consts  --      1.1638                 3.5260                 4.4535
 IR Inten    --     43.0553                42.4295              1062.3685

                     19                     20                     21
                      A                      A                      A
 Frequencies --   2742.7503              2758.6246              2808.5211
 Red. masses --      1.1130                 1.1002                 1.1082
 Frc consts  --      4.9332                 4.9332                 5.1503
 IR Inten    --    591.7649               332.6642               461.5682

 - Thermochemistry -
 -------------------
 Temperature   298.150 Kelvin.  Pressure   1.00000 Atm.
 Atom     1 has atomic number  6 and mass  12.00000

 Molecular mass:    64.03130 amu.
 Principal axes and moments of inertia in atomic units:
                           1         2         3
     Eigenvalues --   135.64572 269.47953 384.55892
           X            1.00000   0.00033   0.00001
           Y           -0.00033   0.99918   0.04053
           Z            0.00000  -0.04053   0.99918
 This molecule is an asymmetric top.
 Rotational symmetry number  1.
 Rotational temperatures (Kelvin)      0.63853     0.32141     0.22523
 Rotational constants (GHZ):          13.30481     6.69714     4.69302
 Zero-point vibrational energy     150752.5 (Joules/Mol)
                                   36.03070 (Kcal/Mol)
 Warning -- explicit consideration of   5 degrees of freedom as
           vibrations may cause significant error
 Vibrational temperatures:    166.61   407.91   531.58   706.47   829.72
          (Kelvin)           1055.23  1208.51  1321.52  1329.89  1355.58
                             1430.28  1482.86  1528.98  1577.98  1746.87
                             1813.99  1948.00  3864.62  3946.20  3969.04
                             4040.83

 Zero-point correction=                           0.057419 (Hartree/Particle)
 Thermal correction to Energy=                    0.062617
 Thermal correction to Enthalpy=                  0.063561
 Thermal correction to Gibbs Free Energy=         0.029311
 Sum of electronic and zero-point Energies=           -191.005062
 Sum of electronic and thermal Energies=              -190.999863
 Sum of electronic and thermal Enthalpies=            -190.998919
 Sum of electronic and thermal Free Energies=         -191.033170

                     E (Thermal)             CV                S
                      KCal/Mol        Cal/Mol-Kelvin    Cal/Mol-Kelvin
 Total                   39.293             18.046             72.087
 Electronic               0.000              0.000              1.377
 Translational            0.889              2.981             38.389
 Rotational               0.889              2.981             24.156
 Vibrational             37.515             12.084              8.164
 Vibration     1          0.608              1.936              3.169
 Vibration     2          0.682              1.704              1.512
 Vibration     3          0.742              1.535              1.082
 Vibration     4          0.847              1.270              0.681
 Vibration     5          0.933              1.082              0.492

 Normal termination of Gaussian 09 at Mon Jun 20 11:27:37 2016.
