 Gaussian 09, Revision E.01,
 Gaussian 09:  EM64L-G09RevE.01 30-Nov-2015

 ---------------------------------------------
 #p b3lyp/6-311++G(3df,2p) freq symmetry=Loose
 ---------------------------------------------

 ---------
 b3lyp opt
 ---------
 Symbolic Z-matrix:
 Charge =  0 Multiplicity = 1

                         Standard orientation:
 ---------------------------------------------------------------------
 Center     Atomic      Atomic             Coordinates (Angstroms)
 Number     Number       Type             X           Y           Z
 ---------------------------------------------------------------------
      1          6           0       -0.000000    1.022537   -0.244798
      2          1           0       -0.000000    2.087219   -0.098605
      3          6           0        1.022537   -0.000000   -0.244798
      4          1           0        2.087219   -0.000000   -0.098605
      5          6           0       -1.022537   -0.000000   -0.244798
      6          1           0       -2.087219   -0.000000   -0.098605
      7          6           0        0.000000   -1.022537   -0.244798
      8          1           0        0.000000   -2.087219   -0.098605
      9          6           0       -0.000000   -0.000000    1.044928
 ---------------------------------------------------------------------

 SCF Done:  E(RB3LYP) =  -192.795293965     A.U. after   10 cycles

 The electronic state is 1-A1.
 Alpha  occ. eigenvalues --  -10.21892 -10.21857 -10.21857 -10.21818 -10.20638
 Alpha  occ. eigenvalues --   -1.01169  -0.69441  -0.69441  -0.57289  -0.54280
 Alpha  occ. eigenvalues --   -0.53913  -0.42956  -0.41383  -0.41383  -0.28700
 Alpha  occ. eigenvalues --   -0.28700  -0.25302
 Alpha virt. eigenvalues --   -0.00117   0.00916   0.00916   0.01724   0.02645
 Alpha virt. eigenvalues --    0.03210   0.06704   0.06704   0.06810   0.08385
 Alpha virt. eigenvalues --    0.08385   0.09063   0.09387   0.09387   0.11500

 Mulliken charges:
               1
     1  C   -0.089736
     2  H    0.193493
     3  C   -0.089736
     4  H    0.193493
     5  C   -0.089736
     6  H    0.193493
     7  C   -0.089736
     8  H    0.193493
     9  C   -0.415030
 Sum of Mulliken charges =  -0.00000

 Dipole moment (field-independent basis, Debye):
    X=             -0.0000    Y=             -0.0000    Z=             -1.8522  Tot=              1.8522
 Quadrupole moment (field-independent basis, Debye-Ang):
   XX=            -25.5661   YY=            -25.5661   ZZ=            -37.2851
   XY=              0.0000   XZ=              0.0000   YZ=              0.0000

  Exact polarizability:  51.692   0.000  51.692  -0.000   0.000  49.285
 Approx polarizability:  83.126   0.000  83.126   0.000   0.000  85.636

                      1                      2                      3
                      E                      E                     B2
 Frequencies --    415.5871               415.5871               481.3471
 Red. masses --      8.7670                 8.7670                11.4527
 Frc consts  --      0.8921                 0.8921                 1.5634
 IR Inten    --      6.1070                 6.1070                 0.0000

                      4                      5                      6
                     A1                      E                      E
 Frequencies --    741.4426               840.7005               840.7005
 Red. masses --      1.9549                 1.2014                 1.2014
 Frc consts  --      0.6332                 0.5003                 0.5003
 IR Inten    --     43.4317                26.6410                26.6410

                      7                      8                      9
                     B2                      E                      E
 Frequencies --    908.9784               994.6477               994.6477
 Red. masses --      1.1549                 1.4185                 1.4185
 Frc consts  --      0.5622                 0.8268                 0.8268
 IR Inten    --      0.0000                10.3466                10.3466

                     10                     11                     12
                     B1                     B2                     A1
 Frequencies --   1011.4299              1024.8516              1079.9764
 Red. masses --      1.1127                 3.5651                 2.0407
 Frc consts  --      0.6707                 2.2062                 1.4023
 IR Inten    --      0.0000                 0.0000               102.6483

                     13                     14                     15
                     A2                     B1                     A1
 Frequencies --   1194.8520              1272.0595              1313.2116
 Red. masses --      1.3217                 5.6533                 5.0874
 Frc consts  --      1.1117                 5.3897                 5.1691
 IR Inten    --      0.0000                 0.0000                 1.2905

                     16                     17                     18
                      E                      E                     B2
 Frequencies --   1385.2250              1385.2250              3253.5854
 Red. masses --      2.7576                 2.7576                 1.0900
 Frc consts  --      3.1176                 3.1176                 6.7982
 IR Inten    --      1.4385                 1.4385                 0.0000

                     19                     20                     21
                      E                      E                     A1
 Frequencies --   3267.6860              3267.6860              3283.2207
 Red. masses --      1.0973                 1.0973                 1.1163
 Frc consts  --      6.9033                 6.9033                 7.0900
 IR Inten    --      0.3381                 0.3381                 0.5060

 - Thermochemistry -
 -------------------
 Temperature   298.150 Kelvin.  Pressure   1.00000 Atm.
 Atom     1 has atomic number  6 and mass  12.00000

 Molecular mass:    64.03130 amu.
 Principal axes and moments of inertia in atomic units:
                           1         2         3
     Eigenvalues --   178.16345 178.16345 241.94046
           X           -0.34421   0.93889   0.00000
           Y            0.93889   0.34421   0.00000
           Z            0.00000   0.00000   1.00000
 This molecule is an oblate symmetric top.
 Rotational symmetry number  4.
 Rotational temperatures (Kelvin)      0.48615     0.48615     0.35800
 Rotational constants (GHZ):          10.12969    10.12969     7.45944
 Zero-point vibrational energy     175687.4 (Joules/Mol)
                                   41.99031 (Kcal/Mol)
 Warning -- explicit consideration of   3 degrees of freedom as
           vibrations may cause significant error
 Vibrational temperatures:    597.94   597.94   692.55  1066.77  1209.58
          (Kelvin)           1209.58  1307.82  1431.07  1431.07  1455.22
                             1474.53  1553.84  1719.12  1830.21  1889.42
                             1993.03  1993.03  4681.18  4701.47  4701.47
                             4723.82

 Zero-point correction=                           0.066916 (Hartree/Particle)
 Thermal correction to Energy=                    0.071087
 Thermal correction to Enthalpy=                  0.072031
 Thermal correction to Gibbs Free Energy=         0.042084
 Sum of electronic and zero-point Energies=           -192.728378
 Sum of electronic and thermal Energies=              -192.724207
 Sum of electronic and thermal Enthalpies=            -192.723263
 Sum of electronic and thermal Free Energies=         -192.753210

                     E (Thermal)             CV                S
                      KCal/Mol        Cal/Mol-Kelvin    Cal/Mol-Kelvin
 Total                   44.608             15.052             63.029
 Electronic               0.000              0.000              0.000
 Translational            0.889              2.981             38.389
 Rotational               0.889              2.981             20.801
 Vibrational             42.830              9.091              3.839
 Vibration     1          0.779              1.436              0.907
 Vibration     2          0.779              1.436              0.907
 Vibration     3          0.838              1.291              0.706

 Optimization completed.
    -- Stationary point found.
 Normal termination of Gaussian 09 at Wed Jul 20 02:22:40 2016.
