 Gaussian 09, Revision E.01,
 Gaussian 09:  EM64L-G09RevE.01 30-Nov-2015

 ---------------------------------------------
 #p b3lyp/6-311++G(3df,2p) freq symmetry=Loose
 ---------------------------------------------

 ---------
 b3lyp opt
 ---------
 Symbolic Z-matrix:
 Charge =  1 Multiplicity = 4

                         Standard orientation:
 ---------------------------------------------------------------------
 Center     Atomic      Atomic             Coordinates (Angstroms)
 Number     Number       Type             X           Y           Z
 ---------------------------------------------------------------------
      1          6           0       -0.546393    0.985483   -0.000102
      2          1           0       -0.605780    1.594400   -0.902227
      3          1           0       -0.605970    1.593536    0.902623
      4          6           0       -1.469109   -0.232416    0.000131
      5          1           0       -2.543935   -0.353209    0.000218
      6          6           0        0.607311   -0.096426   -0.000244
      7          6           0       -0.383481   -1.094148   -0.000019
      8          6           0        1.950077   -0.124168   -0.000082
      9          1           0        2.805255    0.535324    0.001278
 ---------------------------------------------------------------------

 SCF Done:  E(UB3LYP) =  -192.420942737     A.U. after   15 cycles

 The electronic state is 4-A.
 Alpha  occ. eigenvalues --  -10.48206 -10.47535 -10.47371 -10.46300 -10.43109
 Alpha  occ. eigenvalues --   -1.15139  -1.00517  -0.90293  -0.85634  -0.75284
 Alpha  occ. eigenvalues --   -0.69242  -0.69124  -0.67258  -0.63628  -0.56896
 Alpha  occ. eigenvalues --   -0.51946  -0.51166  -0.47255
 Alpha virt. eigenvalues --   -0.30993  -0.18920  -0.15229  -0.14054  -0.11924
 Alpha virt. eigenvalues --   -0.11018  -0.10478  -0.09627  -0.08484  -0.06974
 Alpha virt. eigenvalues --   -0.06205  -0.05798  -0.05250  -0.03841  -0.02865

  Beta  occ. eigenvalues --  -10.47426 -10.46240 -10.45687 -10.45160 -10.42760
  Beta  occ. eigenvalues --   -1.12699  -0.96302  -0.88144  -0.82941  -0.73401
  Beta  occ. eigenvalues --   -0.67603  -0.65282  -0.64916  -0.61832  -0.53725
  Beta virt. eigenvalues --   -0.40383  -0.34379  -0.31056  -0.25421  -0.15633
  Beta virt. eigenvalues --   -0.15003  -0.13526  -0.11147  -0.10498  -0.09857
  Beta virt. eigenvalues --   -0.09193  -0.07418  -0.06577  -0.05697  -0.05160

 Mulliken charges and spin densities:
               1          2
     1  C   -0.451004   0.109759
     2  H    0.213602   0.015014
     3  H    0.213710   0.015002
     4  C    0.145412   0.418901
     5  H    0.333727  -0.011322
     6  C    0.533057  -0.064156
     7  C   -0.020563   1.143903
     8  C   -0.246561   1.368418
     9  H    0.278620   0.004482
 Sum of Mulliken charges =   1.00000   3.00000

 Dipole moment (field-independent basis, Debye):
    X=             -0.2191    Y=              1.3324    Z=              0.0012  Tot=              1.3503
 Quadrupole moment (field-independent basis, Debye-Ang):
   XX=             -9.9682   YY=            -24.0870   ZZ=            -26.4810
   XY=              1.8142   XZ=              0.0021   YZ=              0.0002

  Exact polarizability:  79.477   0.942  46.289  -0.003   0.001  31.995
 Approx polarizability: 136.454   1.563  71.855  -0.012   0.001  47.657

                      1                      2                      3
                      A                      A                      A
 Frequencies --    155.8387               336.9028               483.4851
 Red. masses --      2.6067                 2.5663                 2.7119
 Frc consts  --      0.0373                 0.1716                 0.3735
 IR Inten    --      9.7996                 4.8647                 2.6501

                      4                      5                      6
                      A                      A                      A
 Frequencies --    684.9258               718.8991               755.6603
 Red. masses --      5.2457                 1.1963                 1.6561
 Frc consts  --      1.4499                 0.3643                 0.5572
 IR Inten    --     10.5649                 2.9462                14.2540

                      7                      8                      9
                      A                      A                      A
 Frequencies --    805.7496               826.5629               911.0771
 Red. masses --      1.2579                 3.8291                 2.6804
 Frc consts  --      0.4812                 1.5413                 1.3109
 IR Inten    --     20.0814                 1.3208                35.9234

                     10                     11                     12
                      A                      A                      A
 Frequencies --    970.6978              1094.3257              1104.1726
 Red. masses --      1.7849                 2.9256                 1.1507
 Frc consts  --      0.9909                 2.0642                 0.8266
 IR Inten    --      0.0181                 2.2223                 0.3054

                     13                     14                     15
                      A                      A                      A
 Frequencies --   1187.3268              1235.0429              1337.8208
 Red. masses --      1.4311                 2.4418                 3.8525
 Frc consts  --      1.1887                 2.1945                 4.0625
 IR Inten    --      5.0214                45.6307                85.4999

                     16                     17                     18
                      A                      A                      A
 Frequencies --   1449.9925              1557.6692              3051.6596
 Red. masses --      1.1666                 8.8684                 1.0536
 Frc consts  --      1.4452                12.6778                 5.7811
 IR Inten    --      6.7504                53.1207                 8.0880

                     19                     20                     21
                      A                      A                      A
 Frequencies --   3123.7276              3223.6585              3243.2016
 Red. masses --      1.1111                 1.0989                 1.1008
 Frc consts  --      6.3880                 6.7281                 6.8219
 IR Inten    --      6.6083                36.9133                49.1942

 - Thermochemistry -
 -------------------
 Temperature   298.150 Kelvin.  Pressure   1.00000 Atm.
 Atom     1 has atomic number  6 and mass  12.00000

 Molecular mass:    64.03130 amu.
 Principal axes and moments of inertia in atomic units:
                           1         2         3
     Eigenvalues --   121.29051 350.42726 459.99403
           X            0.99998   0.00648   0.00003
           Y           -0.00648   0.99998   0.00002
           Z           -0.00003  -0.00002   1.00000
 This molecule is an asymmetric top.
 Rotational symmetry number  1.
 Rotational temperatures (Kelvin)      0.71410     0.24717     0.18829
 Rotational constants (GHZ):          14.87949     5.15012     3.92340
 Zero-point vibrational energy     169022.7 (Joules/Mol)
                                   40.39741 (Kcal/Mol)
 Warning -- explicit consideration of   3 degrees of freedom as
           vibrations may cause significant error
 Vibrational temperatures:    224.22   484.73   695.63   985.45  1034.33
          (Kelvin)           1087.23  1159.29  1189.24  1310.84  1396.62
                             1574.49  1588.66  1708.30  1776.95  1924.82
                             2086.21  2241.14  4390.65  4494.34  4638.12
                             4666.24

 Zero-point correction=                           0.064377 (Hartree/Particle)
 Thermal correction to Energy=                    0.069115
 Thermal correction to Enthalpy=                  0.070059
 Thermal correction to Gibbs Free Energy=         0.035901
 Sum of electronic and zero-point Energies=           -192.356565
 Sum of electronic and thermal Energies=              -192.351828
 Sum of electronic and thermal Enthalpies=            -192.350884
 Sum of electronic and thermal Free Energies=         -192.385041

                     E (Thermal)             CV                S
                      KCal/Mol        Cal/Mol-Kelvin    Cal/Mol-Kelvin
 Total                   43.370             16.508             71.891
 Electronic               0.000              0.000              2.755
 Translational            0.889              2.981             38.389
 Rotational               0.889              2.981             24.484
 Vibrational             41.593             10.547              6.263
 Vibration     1          0.620              1.896              2.600
 Vibration     2          0.718              1.602              1.227
 Vibration     3          0.840              1.287              0.701

 Optimization completed.
    -- Stationary point found.
 Normal termination of Gaussian 09 at Mon Jun 20 07:05:44 2016.
