 Gaussian 09, Revision E.01,
 Gaussian 09:  EM64L-G09RevE.01 30-Nov-2015

 ---------------------------------------------
 #p b3lyp/6-311++G(3df,2p) freq symmetry=Loose
 ---------------------------------------------

 ---------
 b3lyp opt
 ---------
 Symbolic Z-matrix:
 Charge =  3 Multiplicity = 2

                         Standard orientation:
 ---------------------------------------------------------------------
 Center     Atomic      Atomic             Coordinates (Angstroms)
 Number     Number       Type             X           Y           Z
 ---------------------------------------------------------------------
      1          6           0        1.304255    0.060600    0.000000
      2          6           0       -0.000000    0.484488    0.000000
      3          1           0       -0.090049    1.599167    0.000000
      4          6           0       -2.462405   -0.038654    0.000000
      5          1           0       -3.577201    0.020175    0.000000
      6          6           0       -1.201880   -0.299381    0.000000
      7          1           0       -1.229961   -1.445917    0.000000
      8          6           0        2.566266   -0.171760    0.000000
      9          1           0        3.659797   -0.385182    0.000000
 ---------------------------------------------------------------------

 SCF Done:  E(UB3LYP) =  -191.180431774     A.U. after   17 cycles

 The electronic state is 2-A'.
 Alpha  occ. eigenvalues --  -10.99784 -10.99302 -10.97091 -10.95938 -10.90198
 Alpha  occ. eigenvalues --   -1.54472  -1.50167  -1.42326  -1.27038  -1.21034
 Alpha  occ. eigenvalues --   -1.18474  -1.17669  -1.09736  -1.05147  -1.01877
 Alpha  occ. eigenvalues --   -0.98783
 Alpha virt. eigenvalues --   -0.83051  -0.78505  -0.70270  -0.66558  -0.57519
 Alpha virt. eigenvalues --   -0.52295  -0.49889  -0.48720  -0.47402  -0.43396
 Alpha virt. eigenvalues --   -0.42286  -0.39814  -0.39294  -0.38300  -0.36905

  Beta  occ. eigenvalues --  -10.99849 -10.98326 -10.97153 -10.95222 -10.90124
  Beta  occ. eigenvalues --   -1.53440  -1.48114  -1.40888  -1.26499  -1.20454
  Beta  occ. eigenvalues --   -1.17679  -1.17081  -1.08999  -1.04767  -0.98242
  Beta virt. eigenvalues --   -0.87972  -0.82722  -0.78447  -0.66087  -0.63954
  Beta virt. eigenvalues --   -0.57080  -0.51068  -0.49515  -0.48429  -0.46772
  Beta virt. eigenvalues --   -0.43172  -0.42078  -0.39799  -0.38910  -0.38034

 Mulliken charges and spin densities:
               1          2
     1  C    0.465244   0.464631
     2  C    0.201918   0.019493
     3  H    0.299972   0.030832
     4  C    0.356772  -0.014464
     5  H    0.500236   0.001098
     6  C    0.009518   0.020938
     7  H    0.276793  -0.002140
     8  C    0.400220   0.496580
     9  H    0.489325  -0.016970
 Sum of Mulliken charges =   3.00000   1.00000

 Dipole moment (field-independent basis, Debye):
    X=             -0.2219    Y=             -0.4440    Z=              0.0000  Tot=              0.4963
 Quadrupole moment (field-independent basis, Debye-Ang):
   XX=             61.1620   YY=            -14.2553   ZZ=            -24.0709
   XY=             -1.0152   XZ=              0.0000   YZ=              0.0000

  Exact polarizability: 104.302  -2.619  30.555  -0.001  -0.000  23.032
 Approx polarizability: 220.042 -13.546  48.055  -0.000  -0.000  32.307

                      1                      2                      3
                     A"                     A'                     A'
 Frequencies --    141.3382               171.0248               280.9899
 Red. masses --      2.6859                 3.2889                 2.9308
 Frc consts  --      0.0316                 0.0567                 0.1363
 IR Inten    --     22.9320                27.2004                 8.4473

                      4                      5                      6
                     A"                     A'                     A"
 Frequencies --    314.6344               500.0000               666.9441
 Red. masses --      3.4728                 4.1617                 1.2556
 Frc consts  --      0.2026                 0.6130                 0.3291
 IR Inten    --      8.3722                 8.4068                99.3725

                      7                      8                      9
                     A'                     A'                     A"
 Frequencies --    718.5896               781.2707               791.9942
 Red. masses --      1.4010                 2.2997                 1.3727
 Frc consts  --      0.4262                 0.8270                 0.5073
 IR Inten    --     22.3558                16.1705                21.2770

                     10                     11                     12
                     A"                     A"                     A'
 Frequencies --    812.4291               879.7329               976.1918
 Red. masses --      1.3298                 1.8409                 1.8585
 Frc consts  --      0.5171                 0.8394                 1.0435
 IR Inten    --     20.2523                 3.3148                 8.3936

                     13                     14                     15
                     A'                     A'                     A'
 Frequencies --   1044.6389              1153.1832              1342.1465
 Red. masses --      1.3574                 1.7817                 2.0974
 Frc consts  --      0.8728                 1.3960                 2.2260
 IR Inten    --     11.8376                21.4107                16.1043

                     16                     17                     18
                     A'                     A'                     A'
 Frequencies --   1740.5521              1841.8732              2602.5734
 Red. masses --      5.3085                 6.1219                 1.0740
 Frc consts  --      9.4754                12.2364                 4.2859
 IR Inten    --   1113.2540               681.9016               327.2727

                     19                     20                     21
                     A'                     A'                     A'
 Frequencies --   2826.6678              2945.2022              2966.4699
 Red. masses --      1.0829                 1.1563                 1.1667
 Frc consts  --      5.0980                 5.9097                 6.0493
 IR Inten    --    342.2374               624.5045               393.9924

 - Thermochemistry -
 -------------------
 Temperature   298.150 Kelvin.  Pressure   1.00000 Atm.
 Atom     1 has atomic number  6 and mass  12.00000

 Molecular mass:    64.03130 amu.
 Principal axes and moments of inertia in atomic units:
                           1         2         3
     Eigenvalues --    32.61884 776.52624 809.14508
           X            0.99998  -0.00609   0.00000
           Y            0.00609   0.99998   0.00000
           Z            0.00000   0.00000   1.00000
 This molecule is an asymmetric top.
 Rotational symmetry number  1.
 Rotational temperatures (Kelvin)      2.65533     0.11154     0.10704
 Rotational constants (GHZ):          55.32819     2.32412     2.23043
 Zero-point vibrational energy     152514.6 (Joules/Mol)
                                   36.45186 (Kcal/Mol)
 Warning -- explicit consideration of   5 degrees of freedom as
           vibrations may cause significant error
 Vibrational temperatures:    203.35   246.07   404.28   452.69   719.39
          (Kelvin)            959.58  1033.89  1124.07  1139.50  1168.90
                             1265.74  1404.52  1503.00  1659.17  1931.05
                             2504.26  2650.04  3744.52  4066.94  4237.48
                             4268.08

 Zero-point correction=                           0.058090 (Hartree/Particle)
 Thermal correction to Energy=                    0.063893
 Thermal correction to Enthalpy=                  0.064837
 Thermal correction to Gibbs Free Energy=         0.029340
 Sum of electronic and zero-point Energies=           -191.122342
 Sum of electronic and thermal Energies=              -191.116539
 Sum of electronic and thermal Enthalpies=            -191.115594
 Sum of electronic and thermal Free Energies=         -191.151092

                     E (Thermal)             CV                S
                      KCal/Mol        Cal/Mol-Kelvin    Cal/Mol-Kelvin
 Total                   40.094             19.705             74.711
 Electronic               0.000              0.000              1.377
 Translational            0.889              2.981             38.389
 Rotational               0.889              2.981             24.531
 Vibrational             38.316             13.744             10.413
 Vibration     1          0.615              1.912              2.786
 Vibration     2          0.626              1.878              2.424
 Vibration     3          0.681              1.709              1.528
 Vibration     4          0.702              1.646              1.338
 Vibration     5          0.855              1.250              0.658

 Optimization completed.
    -- Stationary point found.
 Normal termination of Gaussian 09 at Tue Jul 19 23:59:36 2016.
