 Gaussian 09, Revision E.01,
 Gaussian 09:  EM64L-G09RevE.01 30-Nov-2015

 ---------------------------------------------
 #p b3lyp/6-311++G(3df,2p) freq symmetry=Loose
 ---------------------------------------------

 ---------
 b3lyp opt
 ---------
 Symbolic Z-matrix:
 Charge =  1 Multiplicity = 2

                         Standard orientation:
 ---------------------------------------------------------------------
 Center     Atomic      Atomic             Coordinates (Angstroms)
 Number     Number       Type             X           Y           Z
 ---------------------------------------------------------------------
      1          6           0        0.496830    0.771967    0.000063
      2          1           0        2.338056   -0.000331    0.915412
      3          6           0       -0.636842    0.000029    0.000051
      4          6           0       -2.030816   -0.000026    0.000078
      5          1           0       -2.565337    0.938355   -0.000591
      6          1           0       -2.565084   -0.938522    0.000222
      7          6           0        0.496833   -0.771891   -0.000205
      8          6           0        1.749667   -0.000028    0.000055
      9          1           0        2.338328    0.000193   -0.915287
 ---------------------------------------------------------------------

 SCF Done:  E(UB3LYP) =  -192.493066606     A.U. after   14 cycles

 The electronic state is 2-A.
 Alpha  occ. eigenvalues --  -10.51110 -10.51086 -10.49787 -10.47808 -10.43520
 Alpha  occ. eigenvalues --   -1.24846  -1.02588  -0.94108  -0.79984  -0.76498
 Alpha  occ. eigenvalues --   -0.73603  -0.69777  -0.68709  -0.62110  -0.61561
 Alpha  occ. eigenvalues --   -0.54021  -0.47159
 Alpha virt. eigenvalues --   -0.31930  -0.26744  -0.20536  -0.15266  -0.13694
 Alpha virt. eigenvalues --   -0.11797  -0.11773  -0.09839  -0.08767  -0.07550
 Alpha virt. eigenvalues --   -0.06698  -0.04998  -0.04887  -0.04715  -0.04143

  Beta  occ. eigenvalues --  -10.50891 -10.50867 -10.49900 -10.47840 -10.42364
  Beta  occ. eigenvalues --   -1.24367  -1.01391  -0.92296  -0.79544  -0.75791
  Beta  occ. eigenvalues --   -0.72712  -0.69031  -0.68278  -0.61736  -0.59768
  Beta  occ. eigenvalues --   -0.53612
  Beta virt. eigenvalues --   -0.35529  -0.30307  -0.26682  -0.17629  -0.15165
  Beta virt. eigenvalues --   -0.13342  -0.11682  -0.11671  -0.09731  -0.08667
  Beta virt. eigenvalues --   -0.07530  -0.05661  -0.04918  -0.04819  -0.04231

 Mulliken charges and spin densities:
               1          2
     1  C    0.612193   0.168270
     2  H    0.250566   0.029643
     3  C    0.504564  -0.080200
     4  C   -0.858509   0.771514
     5  H    0.250383  -0.023828
     6  H    0.250373  -0.023830
     7  C    0.612249   0.168274
     8  C   -0.872369  -0.039485
     9  H    0.250550   0.029642
 Sum of Mulliken charges =   1.00000   1.00000

 Dipole moment (field-independent basis, Debye):
    X=              0.4348    Y=             -0.0002    Z=             -0.0003  Tot=              0.4348
 Quadrupole moment (field-independent basis, Debye-Ang):
   XX=             -7.5747   YY=            -26.9920   ZZ=            -25.8665
   XY=             -0.0005   XZ=              0.0008   YZ=             -0.0017

  Exact polarizability:  72.603  -0.000  42.248  -0.002   0.001  30.831
 Approx polarizability: 105.445  -0.000  92.265  -0.005   0.006  46.306

                      1                      2                      3
                      A                      A                      A
 Frequencies --    266.1907               329.0444               348.5207
 Red. masses --      2.7956                 2.8121                 1.0996
 Frc consts  --      0.1167                 0.1794                 0.0787
 IR Inten    --      6.9901                10.6765                 0.0000

                      4                      5                      6
                      A                      A                      A
 Frequencies --    490.7526               631.0962               741.7957
 Red. masses --      5.0880                 5.0250                 5.8466
 Frc consts  --      0.7220                 1.1792                 1.8955
 IR Inten    --      0.3849                56.4007                 8.7128

                      7                      8                      9
                      A                      A                      A
 Frequencies --    803.9390               991.6473              1024.0834
 Red. masses --      1.3708                 1.1138                 6.9270
 Frc consts  --      0.5220                 0.6453                 4.2802
 IR Inten    --     36.8069                 0.0000                 6.4751

                     10                     11                     12
                      A                      A                      A
 Frequencies --   1026.6971              1028.8864              1096.5472
 Red. masses --      2.2731                 1.3976                 2.2256
 Frc consts  --      1.4117                 0.8717                 1.5767
 IR Inten    --      0.0086                 0.3386                 7.0210

                     13                     14                     15
                      A                      A                      A
 Frequencies --   1155.6249              1268.5831              1451.6980
 Red. masses --      1.5087                 5.2082                 1.1690
 Frc consts  --      1.1871                 4.9383                 1.4515
 IR Inten    --      9.4023                14.5630                 8.7553

                     16                     17                     18
                      A                      A                      A
 Frequencies --   1465.1677              1707.6272              3076.4181
 Red. masses --      1.1304                10.2926                 1.0543
 Frc consts  --      1.4298                17.6832                 5.8788
 IR Inten    --      3.2192                83.4352                34.8482

                     19                     20                     21
                      A                      A                      A
 Frequencies --   3152.5686              3160.9397              3279.1337
 Red. masses --      1.1174                 1.0506                 1.1232
 Frc consts  --      6.5434                 6.1844                 7.1155
 IR Inten    --     32.3606                38.8648                22.4431

 - Thermochemistry -
 -------------------
 Temperature   298.150 Kelvin.  Pressure   1.00000 Atm.
 Atom     1 has atomic number  6 and mass  12.00000

 Molecular mass:    64.03130 amu.
 Principal axes and moments of inertia in atomic units:
                           1         2         3
     Eigenvalues --    63.43977 439.19348 490.57131
           X            1.00000  -0.00000   0.00001
           Y            0.00000   1.00000  -0.00009
           Z           -0.00001   0.00009   1.00000
 This molecule is an asymmetric top.
 Rotational symmetry number  1.
 Rotational temperatures (Kelvin)      1.36529     0.19721     0.17656
 Rotational constants (GHZ):          28.44810     4.10922     3.67886
 Zero-point vibrational energy     170449.7 (Joules/Mol)
                                   40.73845 (Kcal/Mol)
 Warning -- explicit consideration of   4 degrees of freedom as
           vibrations may cause significant error
 Vibrational temperatures:    382.99   473.42   501.44   706.08   908.01
          (Kelvin)           1067.28  1156.69  1426.76  1473.43  1477.19
                             1480.34  1577.68  1662.68  1825.21  2088.67
                             2108.05  2456.89  4426.27  4535.84  4547.88
                             4717.94

 Zero-point correction=                           0.064921 (Hartree/Particle)
 Thermal correction to Energy=                    0.069724
 Thermal correction to Enthalpy=                  0.070668
 Thermal correction to Gibbs Free Energy=         0.037397
 Sum of electronic and zero-point Energies=           -192.428146
 Sum of electronic and thermal Energies=              -192.423343
 Sum of electronic and thermal Enthalpies=            -192.422398
 Sum of electronic and thermal Free Energies=         -192.455669

                     E (Thermal)             CV                S
                      KCal/Mol        Cal/Mol-Kelvin    Cal/Mol-Kelvin
 Total                   43.752             16.851             70.025
 Electronic               0.000              0.000              1.377
 Translational            0.889              2.981             38.389
 Rotational               0.889              2.981             24.128
 Vibrational             41.975             10.889              6.129
 Vibration     1          0.672              1.735              1.621
 Vibration     2          0.712              1.617              1.265
 Vibration     3          0.726              1.578              1.173
 Vibration     4          0.847              1.271              0.682

 Optimization completed.
    -- Stationary point found.
 Normal termination of Gaussian 09 at Mon Jun 20 04:38:23 2016.
