 Gaussian 09, Revision E.01,
 Gaussian 09:  EM64L-G09RevE.01 30-Nov-2015

 ---------------------------------------------
 #p b3lyp/6-311++G(3df,2p) freq symmetry=Loose
 ---------------------------------------------

 ---------
 b3lyp opt
 ---------
 Symbolic Z-matrix:
 Charge =  3 Multiplicity = 4

                         Standard orientation:
 ---------------------------------------------------------------------
 Center     Atomic      Atomic             Coordinates (Angstroms)
 Number     Number       Type             X           Y           Z
 ---------------------------------------------------------------------
      1          6           0       -1.475829   -0.629459   -0.125082
      2          6           0       -0.224491   -0.145116    0.103607
      3          1           0       -2.036529   -1.613225   -0.253437
      4          6           0        1.229488   -0.020592    0.429070
      5          1           0        1.557724   -0.925699    1.052965
      6          1           0        1.466507    0.809381    1.170001
      7          6           0        2.191668    0.090904   -0.662471
      8          6           0       -1.582716    0.694495   -0.066797
      9          1           0       -1.816415    1.788146   -0.039490
 ---------------------------------------------------------------------

 SCF Done:  E(UB3LYP) =  -190.999717530     A.U. after   18 cycles

 The electronic state is 4-A.
 Alpha  occ. eigenvalues --  -11.04806 -11.03595 -11.01664 -10.96113 -10.94027
 Alpha  occ. eigenvalues --   -1.66567  -1.52001  -1.34410  -1.29627  -1.23841
 Alpha  occ. eigenvalues --   -1.20183  -1.15465  -1.12821  -1.10388  -1.06208
 Alpha  occ. eigenvalues --   -1.03127  -0.94631
 Alpha virt. eigenvalues --   -0.81241  -0.79054  -0.69577  -0.63498  -0.56497
 Alpha virt. eigenvalues --   -0.52181  -0.50904  -0.48084  -0.45802  -0.44998
 Alpha virt. eigenvalues --   -0.43954  -0.41273  -0.40006  -0.39865  -0.38012

  Beta  occ. eigenvalues --  -11.02671 -11.01022 -11.01020 -10.96069 -10.93707
  Beta  occ. eigenvalues --   -1.64499  -1.49091  -1.29793  -1.26847  -1.20181
  Beta  occ. eigenvalues --   -1.17686  -1.13877  -1.10801  -1.08092
  Beta virt. eigenvalues --   -0.91691  -0.85282  -0.77573  -0.75536  -0.72863
  Beta virt. eigenvalues --   -0.68939  -0.59099  -0.54769  -0.51232  -0.49793
  Beta virt. eigenvalues --   -0.47096  -0.44865  -0.43966  -0.43477  -0.40122

 Mulliken charges and spin densities:
               1          2
     1  C    0.542412  -0.049868
     2  C    0.292466   0.474222
     3  H    0.431289   0.122236
     4  C   -0.131164   0.173415
     5  H    0.345848   0.039139
     6  H    0.334981   0.028129
     7  C    0.505215   1.846535
     8  C    0.223478   0.356316
     9  H    0.455476   0.009877
 Sum of Mulliken charges =   3.00000   3.00000

 Dipole moment (field-independent basis, Debye):
    X=              0.3524    Y=              0.6127    Z=              0.0992  Tot=              0.7138
 Quadrupole moment (field-independent basis, Debye-Ang):
   XX=             23.4007   YY=             -8.1370   ZZ=            -17.4277
   XY=             -0.5885   XZ=              0.4471   YZ=              0.2317

  Exact polarizability:  63.032  -0.228  36.264   0.507   0.078  29.671
 Approx polarizability:  97.838  -3.289  59.996   0.473  -0.367  47.908

                      1                      2                      3
                      A                      A                      A
 Frequencies --     72.3891               226.5358               273.7980
 Red. masses --      2.7091                 6.5412                 2.5955
 Frc consts  --      0.0084                 0.1978                 0.1146
 IR Inten    --      1.0983                 4.2030                 7.0544

                      4                      5                      6
                      A                      A                      A
 Frequencies --    446.8250               496.8321               555.1571
 Red. masses --      3.2220                 1.6901                 4.6383
 Frc consts  --      0.3790                 0.2458                 0.8423
 IR Inten    --     74.3318                21.0409                42.2897

                      7                      8                      9
                      A                      A                      A
 Frequencies --    654.3935               707.3163               818.6444
 Red. masses --      1.4177                 4.1127                 1.3713
 Frc consts  --      0.3577                 1.2123                 0.5415
 IR Inten    --     31.0790                 8.9229                46.8393

                     10                     11                     12
                      A                      A                      A
 Frequencies --    840.4587               873.0736               902.8998
 Red. masses --      1.3358                 1.2896                 3.5553
 Frc consts  --      0.5559                 0.5791                 1.7077
 IR Inten    --     51.1305                35.6032                69.1582

                     13                     14                     15
                      A                      A                      A
 Frequencies --   1036.0261              1074.3738              1222.1053
 Red. masses --      1.2364                 1.0956                 1.4003
 Frc consts  --      0.7819                 0.7451                 1.2322
 IR Inten    --     18.4483               135.5442                23.3593

                     16                     17                     18
                      A                      A                      A
 Frequencies --   1248.7703              1598.1109              2534.4797
 Red. masses --      5.3800                 5.2685                 1.0745
 Frc consts  --      4.9431                 7.9278                 4.0665
 IR Inten    --     77.9118                21.9994               420.3503

                     19                     20                     21
                      A                      A                      A
 Frequencies --   2606.6757              2641.4742              2889.5041
 Red. masses --      1.1058                 1.0771                 1.1364
 Frc consts  --      4.4269                 4.4280                 5.5901
 IR Inten    --   1241.0610               225.9591               436.0701

 - Thermochemistry -
 -------------------
 Temperature   298.150 Kelvin.  Pressure   1.00000 Atm.
 Atom     1 has atomic number  6 and mass  12.00000

 Molecular mass:    64.03130 amu.
 Principal axes and moments of inertia in atomic units:
                           1         2         3
     Eigenvalues --   101.80219 553.62328 582.37665
           X            0.99958  -0.00287   0.02883
           Y            0.00178   0.99929   0.03771
           Z           -0.02891  -0.03764   0.99887
 This molecule is an asymmetric top.
 Rotational symmetry number  1.
 Rotational temperatures (Kelvin)      0.85081     0.15645     0.14872
 Rotational constants (GHZ):          17.72792     3.25987     3.09892
 Zero-point vibrational energy     141876.2 (Joules/Mol)
                                   33.90922 (Kcal/Mol)
 Warning -- explicit consideration of   6 degrees of freedom as
           vibrations may cause significant error
 Vibrational temperatures:    104.15   325.93   393.93   642.88   714.83
          (Kelvin)            798.75   941.53  1017.67  1177.85  1209.23
                             1256.16  1299.07  1490.61  1545.78  1758.33
                             1796.70  2299.32  3646.55  3750.42  3800.49
                             4157.35

 Zero-point correction=                           0.054038 (Hartree/Particle)
 Thermal correction to Energy=                    0.059901
 Thermal correction to Enthalpy=                  0.060845
 Thermal correction to Gibbs Free Energy=         0.024132
 Sum of electronic and zero-point Energies=           -190.945680
 Sum of electronic and thermal Energies=              -190.939817
 Sum of electronic and thermal Enthalpies=            -190.938872
 Sum of electronic and thermal Free Energies=         -190.975585

                     E (Thermal)             CV                S
                      KCal/Mol        Cal/Mol-Kelvin    Cal/Mol-Kelvin
 Total                   37.588             20.244             77.269
 Electronic               0.000              0.000              2.755
 Translational            0.889              2.981             38.389
 Rotational               0.889              2.981             24.999
 Vibrational             35.811             14.283             11.126
 Vibration     1          0.598              1.967              4.087
 Vibration     2          0.650              1.801              1.906
 Vibration     3          0.676              1.722              1.572
 Vibration     4          0.806              1.368              0.805
 Vibration     5          0.852              1.257              0.666
 Vibration     6          0.911              1.128              0.534

 Normal termination of Gaussian 09 at Mon Jun 20 12:03:16 2016.
