 Gaussian 09, Revision E.01,
 Gaussian 09:  EM64L-G09RevE.01 30-Nov-2015

 ---------------------------------------------
 #p b3lyp/6-311++G(3df,2p) freq symmetry=Loose
 ---------------------------------------------

 ---------
 b3lyp opt
 ---------
 Symbolic Z-matrix:
 Charge =  2 Multiplicity = 1

                         Standard orientation:
 ---------------------------------------------------------------------
 Center     Atomic      Atomic             Coordinates (Angstroms)
 Number     Number       Type             X           Y           Z
 ---------------------------------------------------------------------
      1          6           0        0.000197   -0.498384    0.827044
      2          1           0       -0.911674   -2.338824   -0.000000
      3          6           0        0.000000    0.613461   -0.000000
      4          6           0       -0.000597    2.019390   -0.000000
      5          1           0       -0.001076    2.568463    0.946533
      6          1           0       -0.001076    2.568463   -0.946533
      7          6           0        0.000197   -0.498384   -0.827044
      8          6           0        0.000375   -1.712577    0.000000
      9          1           0        0.912205   -2.339139    0.000000
 ---------------------------------------------------------------------

 SCF Done:  E(RB3LYP) =  -191.935575901     A.U. after   11 cycles

 The electronic state is 1-A'.
 Alpha  occ. eigenvalues --  -10.77495 -10.77484 -10.76046 -10.73707 -10.69958
 Alpha  occ. eigenvalues --   -1.47305  -1.26930  -1.16807  -1.05361  -0.99938
 Alpha  occ. eigenvalues --   -0.94706  -0.93949  -0.92983  -0.87444  -0.82793
 Alpha  occ. eigenvalues --   -0.77320
 Alpha virt. eigenvalues --   -0.63912  -0.55904  -0.51582  -0.42962  -0.32683
 Alpha virt. eigenvalues --   -0.31624  -0.30983  -0.27523  -0.27319  -0.27293
 Alpha virt. eigenvalues --   -0.25200  -0.22921  -0.22752  -0.22263  -0.20367

 Mulliken charges:
               1
     1  C    0.954746
     2  H    0.307527
     3  C    0.327875
     4  C   -0.558143
     5  H    0.325727
     6  H    0.325727
     7  C    0.954746
     8  C   -0.945626
     9  H    0.307421
 Sum of Mulliken charges =   2.00000

 Dipole moment (field-independent basis, Debye):
    X=             -0.0015    Y=              1.8197    Z=              0.0000  Tot=              1.8197
 Quadrupole moment (field-independent basis, Debye-Ang):
   XX=            -21.9522   YY=             11.7576   ZZ=            -22.1525
   XY=             -0.0101   XZ=             -0.0000   YZ=             -0.0000

  Exact polarizability:  27.233  -0.012  74.684  -0.000   0.000  39.229
 Approx polarizability:  43.155  -0.017 133.498  -0.000  -0.000  92.015

                      1                      2                      3
                     A'                     A"                     A"
 Frequencies --    230.0729               329.8327               374.6609
 Red. masses --      2.7672                 2.8531                 1.0565
 Frc consts  --      0.0863                 0.1829                 0.0874
 IR Inten    --     22.9498                18.2870                 0.0000

                      4                      5                      6
                     A'                     A"                     A'
 Frequencies --    499.2206               638.7217               701.2445
 Red. masses --      2.3848                 4.9160                 6.2901
 Frc consts  --      0.3502                 1.1816                 1.8224
 IR Inten    --      0.7224                31.4171                74.1371

                      7                      8                      9
                     A'                     A"                     A"
 Frequencies --    911.4665               953.0300               971.4570
 Red. masses --      2.1064                 3.8108                 1.1378
 Frc consts  --      1.0310                 2.0393                 0.6327
 IR Inten    --      5.9519                 0.0021                 0.0000

                     10                     11                     12
                     A'                     A"                     A"
 Frequencies --    976.7810              1075.5697              1106.7216
 Red. masses --      6.6232                 1.5306                 1.5653
 Frc consts  --      3.7232                 1.0432                 1.1296
 IR Inten    --      9.5009                13.1307                16.0690

                     13                     14                     15
                     A'                     A'                     A'
 Frequencies --   1183.6624              1219.1450              1288.9863
 Red. masses --      1.3649                 7.3480                 1.0640
 Frc consts  --      1.1267                 6.4347                 1.0416
 IR Inten    --     10.8224                 1.5721               303.4503

                     16                     17                     18
                     A'                     A'                     A'
 Frequencies --   1448.3178              1616.4796              2919.5515
 Red. masses --      1.1701                 8.9301                 1.0580
 Frc consts  --      1.4461                13.7483                 5.3133
 IR Inten    --     25.9623               395.5162               616.9850

                     19                     20                     21
                     A'                     A'                     A"
 Frequencies --   2961.6787              3050.7309              3163.2222
 Red. masses --      1.1086                 1.0555                 1.1264
 Frc consts  --      5.7294                 5.7880                 6.6408
 IR Inten    --    206.0100               103.9081               112.3916

 - Thermochemistry -
 -------------------
 Temperature   298.150 Kelvin.  Pressure   1.00000 Atm.
 Atom     1 has atomic number  6 and mass  12.00000

 Molecular mass:    64.03130 amu.
 Principal axes and moments of inertia in atomic units:
                           1         2         3
     Eigenvalues --    71.05769 430.68879 489.77424
           X           -0.00027   0.00000   1.00000
           Y            1.00000   0.00000   0.00027
           Z            0.00000   1.00000   0.00000
 This molecule is an asymmetric top.
 Rotational symmetry number  1.
 Rotational temperatures (Kelvin)      1.21892     0.20111     0.17684
 Rotational constants (GHZ):          25.39825     4.19036     3.68484
 Zero-point vibrational energy     165207.6 (Joules/Mol)
                                   39.48556 (Kcal/Mol)
 Warning -- explicit consideration of   4 degrees of freedom as
           vibrations may cause significant error
 Vibrational temperatures:    331.02   474.56   539.05   718.27   918.98
          (Kelvin)           1008.93  1311.40  1371.20  1397.71  1405.37
                             1547.50  1592.32  1703.02  1754.08  1854.56
                             2083.80  2325.75  4200.58  4261.19  4389.32
                             4551.17

 Zero-point correction=                           0.062924 (Hartree/Particle)
 Thermal correction to Energy=                    0.067751
 Thermal correction to Enthalpy=                  0.068695
 Thermal correction to Gibbs Free Energy=         0.035969
 Sum of electronic and zero-point Energies=           -191.872652
 Sum of electronic and thermal Energies=              -191.867825
 Sum of electronic and thermal Enthalpies=            -191.866881
 Sum of electronic and thermal Free Energies=         -191.899607

                     E (Thermal)             CV                S
                      KCal/Mol        Cal/Mol-Kelvin    Cal/Mol-Kelvin
 Total                   42.514             16.933             68.878
 Electronic               0.000              0.000              0.000
 Translational            0.889              2.981             38.389
 Rotational               0.889              2.981             24.220
 Vibrational             40.737             10.971              6.269
 Vibration     1          0.652              1.795              1.878
 Vibration     2          0.713              1.616              1.261
 Vibration     3          0.746              1.524              1.061
 Vibration     4          0.855              1.252              0.660

 Optimization completed.
    -- Stationary point found.
 Normal termination of Gaussian 09 at Tue Jul 19 22:58:07 2016.
