 Gaussian 09, Revision E.01,
 Gaussian 09:  EM64L-G09RevE.01 30-Nov-2015

 ------------------------------------------------------
 #p b3lyp/6-311++G(3df,2p) freq IOp(2/17=3) IOp(2/18=3)
 ------------------------------------------------------

 ---------
 b3lyp opt
 ---------
 Symbolic Z-matrix:
 Charge =  3 Multiplicity = 4

                         Standard orientation:
 ---------------------------------------------------------------------
 Center     Atomic      Atomic             Coordinates (Angstroms)
 Number     Number       Type             X           Y           Z
 ---------------------------------------------------------------------
      1          6           0       -1.354152   -1.447272    0.000000
      2          6           0        0.003927   -1.809748    0.000000
      3          6           0       -0.350470   -0.417021    0.000000
      4          6           0        0.000000    0.969224    0.000000
      5          1           0       -0.845025    1.681408   -0.545896
      6          1           0       -0.845025    1.681408    0.545896
      7          6           0        1.357685    1.550933    0.000000
      8          1           0        1.491370    2.649147    0.000000
      9          1           0        2.256533    0.911356    0.000000
 ---------------------------------------------------------------------

 SCF Done:  E(UB3LYP) =  -190.964949992     A.U. after   15 cycles

 The electronic state is 4-A".
 Alpha  occ. eigenvalues --  -11.02116 -11.02056 -11.00117 -10.98968 -10.97935
 Alpha  occ. eigenvalues --   -1.66345  -1.54873  -1.38029  -1.30987  -1.23262
 Alpha  occ. eigenvalues --   -1.17082  -1.14723  -1.12927  -1.10196  -1.05345
 Alpha  occ. eigenvalues --   -1.03833  -0.97872
 Alpha virt. eigenvalues --   -0.80939  -0.73711  -0.72913  -0.62979  -0.56078
 Alpha virt. eigenvalues --   -0.54615  -0.53443  -0.49281  -0.48172  -0.44306
 Alpha virt. eigenvalues --   -0.42609  -0.41807  -0.41428  -0.40944  -0.37772

  Beta  occ. eigenvalues --  -10.99681 -10.99639 -10.99479 -10.98719 -10.97790
  Beta  occ. eigenvalues --   -1.62966  -1.52601  -1.37071  -1.29415  -1.18014
  Beta  occ. eigenvalues --   -1.13644  -1.11445  -1.08912  -1.08503
  Beta virt. eigenvalues --   -0.95014  -0.83836  -0.80256  -0.78686  -0.70265
  Beta virt. eigenvalues --   -0.65995  -0.61164  -0.53154  -0.52191  -0.51743
  Beta virt. eigenvalues --   -0.48081  -0.46774  -0.43025  -0.41707  -0.41511

 Mulliken charges and spin densities:
               1          2
     1  C    0.507177   1.124037
     2  C    0.503164   1.132302
     3  C    0.537037   0.069234
     4  C    0.158071   0.483040
     5  H    0.282074   0.063964
     6  H    0.282074   0.063964
     7  C    0.076338   0.063466
     8  H    0.343921   0.000115
     9  H    0.310143  -0.000123
 Sum of Mulliken charges =   3.00000   3.00000

 Dipole moment (field-independent basis, Debye):
    X=              0.3735    Y=              4.7396    Z=              0.0000  Tot=              4.7543
 Quadrupole moment (field-independent basis, Debye-Ang):
   XX=             -1.5968   YY=             17.3111   ZZ=            -21.0076
   XY=             11.7984   XZ=             -0.0000   YZ=             -0.0000

  Exact polarizability:  45.013  14.254  74.099  -0.000  -0.000  24.239
 Approx polarizability:  73.324  18.097 124.931  -0.000   0.000  37.541

                      1                      2                      3
                     A"                     A"                     A'
 Frequencies --    147.8003               196.4567               229.4660
 Red. masses --      1.1078                 3.4297                 4.1058
 Frc consts  --      0.0143                 0.0780                 0.1274
 IR Inten    --      0.0746                 0.9123                 0.0061

                      4                      5                      6
                     A"                     A'                     A"
 Frequencies --    343.4144               489.7841               638.7170
 Red. masses --      3.2240                 4.6912                 2.0126
 Frc consts  --      0.2240                 0.6630                 0.4838
 IR Inten    --     31.9961                30.3793                79.6519

                      7                      8                      9
                     A'                     A'                     A"
 Frequencies --    667.6901               779.7135               841.7773
 Red. masses --      2.5889                 1.3708                 1.0218
 Frc consts  --      0.6800                 0.4910                 0.4266
 IR Inten    --    231.1439               349.0046                 0.3081

                     10                     11                     12
                     A'                     A'                     A'
 Frequencies --    899.4783              1009.0154              1112.7803
 Red. masses --      1.4514                 5.5398                 2.1810
 Frc consts  --      0.6919                 3.3231                 1.5912
 IR Inten    --     41.3213               307.2779               238.7529

                     13                     14                     15
                     A'                     A"                     A'
 Frequencies --   1160.4792              1182.5093              1308.6865
 Red. masses --      2.5445                 1.3739                 5.1053
 Frc consts  --      2.0190                 1.1319                 5.1516
 IR Inten    --    210.4386                 7.2326                91.8857

                     16                     17                     18
                     A'                     A'                     A"
 Frequencies --   1435.6213              1461.5613              1876.3704
 Red. masses --      1.3852                 2.9526                 1.0319
 Frc consts  --      1.6821                 3.7161                 2.1405
 IR Inten    --     36.6266                61.4052               253.0696

                     19                     20                     21
                     A'                     A'                     A'
 Frequencies --   2276.4042              2951.1374              3068.5101
 Red. masses --      1.1027                 1.0557                 1.1306
 Frc consts  --      3.3666                 5.4173                 6.2721
 IR Inten    --    361.4434               219.9780               171.2234

 - Thermochemistry -
 -------------------
 Temperature   298.150 Kelvin.  Pressure   1.00000 Atm.
 Atom     1 has atomic number  6 and mass  12.00000

 Molecular mass:    64.03130 amu.
 Principal axes and moments of inertia in atomic units:
                           1         2         3
     Eigenvalues --    89.12308 536.10174 620.93477
           X            0.48949   0.87201   0.00000
           Y            0.87201  -0.48949   0.00000
           Z            0.00000  -0.00000   1.00000
 This molecule is an asymmetric top.
 Rotational symmetry number  1.
 Rotational temperatures (Kelvin)      0.97184     0.16156     0.13949
 Rotational constants (GHZ):          20.24999     3.36642     2.90649
 Zero-point vibrational energy     144014.7 (Joules/Mol)
                                   34.42033 (Kcal/Mol)
 Warning -- explicit consideration of   5 degrees of freedom as
           vibrations may cause significant error
 Vibrational temperatures:    212.65   282.66   330.15   494.10   704.69
          (Kelvin)            918.97   960.66  1121.83  1211.13  1294.15
                             1451.75  1601.04  1669.67  1701.37  1882.91
                             2065.54  2102.86  2699.68  3275.23  4246.02
                             4414.90

 Zero-point correction=                           0.054852 (Hartree/Particle)
 Thermal correction to Energy=                    0.060608
 Thermal correction to Enthalpy=                  0.061552
 Thermal correction to Gibbs Free Energy=         0.025324
 Sum of electronic and zero-point Energies=           -190.910098
 Sum of electronic and thermal Energies=              -190.904342
 Sum of electronic and thermal Enthalpies=            -190.903398
 Sum of electronic and thermal Free Energies=         -190.939626

                     E (Thermal)             CV                S
                      KCal/Mol        Cal/Mol-Kelvin    Cal/Mol-Kelvin
 Total                   38.032             19.414             76.248
 Electronic               0.000              0.000              2.755
 Translational            0.889              2.981             38.389
 Rotational               0.889              2.981             24.898
 Vibrational             36.254             13.452             10.205
 Vibration     1          0.617              1.905              2.700
 Vibration     2          0.636              1.845              2.166
 Vibration     3          0.652              1.796              1.883
 Vibration     4          0.722              1.589              1.196
 Vibration     5          0.846              1.273              0.684

 Optimization completed.
    -- Stationary point found.
 Normal termination of Gaussian 09 at Thu Jan 31 08:39:17 2019.
