 Gaussian 09, Revision E.01,
 Gaussian 09:  EM64L-G09RevE.01 30-Nov-2015

 ---------------------------------------------
 #p b3lyp/6-311++G(3df,2p) freq symmetry=Loose
 ---------------------------------------------

 ---------
 b3lyp opt
 ---------
 Symbolic Z-matrix:
 Charge =  0 Multiplicity = 1

                         Standard orientation:
 ---------------------------------------------------------------------
 Center     Atomic      Atomic             Coordinates (Angstroms)
 Number     Number       Type             X           Y           Z
 ---------------------------------------------------------------------
      1          6           0        0.000000   -0.764894   -1.315506
      2          1           0       -0.911166    1.285723   -1.585107
      3          1           0       -0.911166   -1.285723   -1.585107
      4          6           0        0.000000    0.764894   -1.315506
      5          1           0        0.911166    1.285723   -1.585107
      6          6           0        0.000000    0.000000   -0.070424
      7          1           0        0.911166   -1.285723   -1.585107
      8          6           0       -0.000000   -0.000000    1.241464
      9          6           0       -0.000000   -0.000000    2.516710
 ---------------------------------------------------------------------

 SCF Done:  E(RB3LYP) =  -192.783961863     A.U. after   12 cycles

 The electronic state is 1-A1.
 Alpha  occ. eigenvalues --  -10.27251 -10.22610 -10.22589 -10.20089 -10.17683
 Alpha  occ. eigenvalues --   -0.92508  -0.77797  -0.66196  -0.65991  -0.55860
 Alpha  occ. eigenvalues --   -0.53047  -0.42050  -0.40311  -0.37015  -0.33213
 Alpha  occ. eigenvalues --   -0.27992  -0.26196
 Alpha virt. eigenvalues --   -0.13552  -0.01971  -0.00065   0.00522   0.01331
 Alpha virt. eigenvalues --    0.02553   0.04358   0.05284   0.06228   0.06365
 Alpha virt. eigenvalues --    0.07372   0.09148   0.09555   0.09707   0.10551

 Mulliken charges:
               1
     1  C   -0.325008
     2  H    0.181065
     3  H    0.181065
     4  C   -0.325008
     5  H    0.181065
     6  C   -0.234062
     7  H    0.181065
     8  C    0.670013
     9  C   -0.510194
 Sum of Mulliken charges =  -0.00000

 Dipole moment (field-independent basis, Debye):
    X=             -0.0000    Y=             -0.0000    Z=             -5.8481  Tot=              5.8481
 Quadrupole moment (field-independent basis, Debye-Ang):
   XX=            -27.8516   YY=            -29.3505   ZZ=            -41.7487
   XY=              0.0000   XZ=             -0.0000   YZ=              0.0000

  Exact polarizability:  42.482   0.000  50.050  -0.000  -0.000  96.870
 Approx polarizability:  62.612   0.000  71.104   0.000   0.000 166.288

                      1                      2                      3
                     B1                     B2                     B1
 Frequencies --    150.7142               182.7900               326.5383
 Red. masses --      4.9897                 5.6948                 3.0708
 Frc consts  --      0.0668                 0.1121                 0.1929
 IR Inten    --      6.8772                 2.1523                 0.7785

                      4                      5                      6
                     B2                     A1                     B1
 Frequencies --    506.0600               657.9879               709.7652
 Red. masses --      5.5103                 4.7934                 1.0714
 Frc consts  --      0.8314                 1.2227                 0.3180
 IR Inten    --      1.0492                 3.1682                 2.3517

                      7                      8                      9
                     A2                     B2                     A1
 Frequencies --    751.0766               960.6506              1008.6907
 Red. masses --      1.1223                 6.0348                 3.5765
 Frc consts  --      0.3730                 3.2813                 2.1440
 IR Inten    --      0.0000                43.7759                 7.2442

                     10                     11                     12
                     A1                     B2                     B1
 Frequencies --   1045.5393              1070.1090              1083.0255
 Red. masses --      1.3399                 1.4949                 1.5653
 Frc consts  --      0.8630                 1.0086                 1.0817
 IR Inten    --      0.2112                 0.3021                 0.0052

                     13                     14                     15
                     A2                     A1                     B2
 Frequencies --   1171.3121              1421.5754              1430.9787
 Red. masses --      1.2327                 1.2693                 1.0802
 Frc consts  --      0.9964                 1.5114                 1.3032
 IR Inten    --      0.0000                 3.4325                 8.3236

                     16                     17                     18
                     A1                     A1                     B2
 Frequencies --   1519.6181              2055.1224              3104.9737
 Red. masses --      4.9831                11.9270                 1.0492
 Frc consts  --      6.7798                29.6795                 5.9596
 IR Inten    --      0.4735               506.6618                 0.1005

                     19                     20                     21
                     A1                     A2                     B1
 Frequencies --   3105.4794              3177.2335              3190.6303
 Red. masses --      1.0571                 1.1159                 1.1139
 Frc consts  --      6.0066                 6.6371                 6.6813
 IR Inten    --      0.9554                 0.0000                 0.0050

 - Thermochemistry -
 -------------------
 Temperature   298.150 Kelvin.  Pressure   1.00000 Atm.
 Atom     1 has atomic number  6 and mass  12.00000

 Molecular mass:    64.03130 amu.
 Principal axes and moments of inertia in atomic units:
                           1         2         3
     Eigenvalues --    85.89289 531.91483 593.90389
           X           -0.00000   0.00000   1.00000
           Y           -0.00000   1.00000  -0.00000
           Z            1.00000   0.00000   0.00000
 This molecule is an asymmetric top.
 Rotational symmetry number  2.
 Rotational temperatures (Kelvin)      1.00839     0.16283     0.14584
 Rotational constants (GHZ):          21.01153     3.39291     3.03878
 Zero-point vibrational energy     171244.7 (Joules/Mol)
                                   40.92845 (Kcal/Mol)
 Warning -- explicit consideration of   4 degrees of freedom as
           vibrations may cause significant error
 Vibrational temperatures:    216.84   262.99   469.82   728.11   946.70
          (Kelvin)           1021.19  1080.63  1382.16  1451.28  1504.30
                             1539.65  1558.23  1685.25  2045.33  2058.86
                             2186.39  2956.86  4467.36  4468.09  4571.32
                             4590.60

 Zero-point correction=                           0.065224 (Hartree/Particle)
 Thermal correction to Energy=                    0.070429
 Thermal correction to Enthalpy=                  0.071373
 Thermal correction to Gibbs Free Energy=         0.038058
 Sum of electronic and zero-point Energies=           -192.718738
 Sum of electronic and thermal Energies=              -192.713533
 Sum of electronic and thermal Enthalpies=            -192.712589
 Sum of electronic and thermal Free Energies=         -192.745903

                     E (Thermal)             CV                S
                      KCal/Mol        Cal/Mol-Kelvin    Cal/Mol-Kelvin
 Total                   44.195             17.262             70.116
 Electronic               0.000              0.000              0.000
 Translational            0.889              2.981             38.389
 Rotational               0.889              2.981             23.432
 Vibrational             42.417             11.301              8.295
 Vibration     1          0.618              1.902              2.663
 Vibration     2          0.630              1.863              2.300
 Vibration     3          0.710              1.622              1.277
 Vibration     4          0.861              1.237              0.643

 Optimization completed.
    -- Stationary point found.
 Normal termination of Gaussian 09 at Tue Jul 19 20:57:18 2016.
