 Gaussian 09, Revision E.01,
 Gaussian 09:  EM64L-G09RevE.01 30-Nov-2015

 ---------------------------------------------
 #p b3lyp/6-311++G(3df,2p) freq symmetry=Loose
 ---------------------------------------------

 ---------
 b3lyp opt
 ---------
 Symbolic Z-matrix:
 Charge =  2 Multiplicity = 1

                         Standard orientation:
 ---------------------------------------------------------------------
 Center     Atomic      Atomic             Coordinates (Angstroms)
 Number     Number       Type             X           Y           Z
 ---------------------------------------------------------------------
      1          6           0       -0.000000    0.575730   -0.000000
      2          1           0       -0.000243    1.727724    0.487228
      3          1           0       -3.373551   -0.883788    0.000000
      4          1           0        3.373001   -0.884635   -0.000000
      5          6           0        1.247673    0.027560   -0.000000
      6          6           0       -1.247471    0.027175    0.000000
      7          6           0        2.378158   -0.456047   -0.000000
      8          1           0       -0.000243    1.727724   -0.487228
      9          6           0       -2.378188   -0.455589    0.000000
 ---------------------------------------------------------------------

 SCF Done:  E(RB3LYP) =  -191.908251042     A.U. after   14 cycles

 The electronic state is 1-A'.
 Alpha  occ. eigenvalues --  -10.76122 -10.68606 -10.68603 -10.65548 -10.65544
 Alpha  occ. eigenvalues --   -1.32684  -1.22689  -1.19200  -1.05702  -1.05270
 Alpha  occ. eigenvalues --   -0.95111  -0.94630  -0.85510  -0.75171  -0.74035
 Alpha  occ. eigenvalues --   -0.73539
 Alpha virt. eigenvalues --   -0.63331  -0.47434  -0.40788  -0.40650  -0.40567
 Alpha virt. eigenvalues --   -0.36965  -0.29415  -0.27294  -0.26977  -0.26372
 Alpha virt. eigenvalues --   -0.25917  -0.23256  -0.22776  -0.20653  -0.20578

 Mulliken charges:
               1
     1  C   -0.753646
     2  H    0.259201
     3  H    0.424541
     4  H    0.424667
     5  C   -0.003091
     6  C   -0.002104
     7  C    0.695946
     8  H    0.259201
     9  C    0.695284
 Sum of Mulliken charges =   2.00000

 Dipole moment (field-independent basis, Debye):
    X=             -0.0010    Y=              1.9620    Z=             -0.0000  Tot=              1.9620
 Quadrupole moment (field-independent basis, Debye-Ang):
   XX=             22.7158   YY=            -13.4143   ZZ=            -24.4251
   XY=             -0.0059   XZ=              0.0000   YZ=             -0.0000

  Exact polarizability: 123.074  -0.007  39.950   0.000  -0.000  27.010
 Approx polarizability: 402.282  -0.038  67.522  -0.000   0.000  39.372

                      1                      2                      3
                     A'                     A"                     A'
 Frequencies --    140.6781               254.1733               290.2853
 Red. masses --      3.8339                 1.8754                 4.2070
 Frc consts  --      0.0447                 0.0714                 0.2089
 IR Inten    --      5.3016               107.7871                17.8752

                      4                      5                      6
                     A"                     A'                     A'
 Frequencies --    299.1873               566.2470               632.1743
 Red. masses --      3.8788                 4.6817                 2.1231
 Frc consts  --      0.2046                 0.8844                 0.4999
 IR Inten    --      0.0000                 3.6604                77.4480

                      7                      8                      9
                     A"                     A'                     A"
 Frequencies --    661.5302               756.0536               758.2067
 Red. masses --      2.9811                 1.2571                 1.0284
 Frc consts  --      0.7686                 0.4234                 0.3483
 IR Inten    --     11.0491                17.1057                 0.0001

                     10                     11                     12
                     A'                     A"                     A"
 Frequencies --    758.3546               855.2422               858.8555
 Red. masses --      1.2640                 1.3785                 1.3710
 Frc consts  --      0.4283                 0.5941                 0.5958
 IR Inten    --     43.4565                23.0358                 0.7962

                     13                     14                     15
                     A'                     A'                     A'
 Frequencies --    968.7360              1019.4980              1390.2771
 Red. masses --      1.1933                 1.8667                 6.4650
 Frc consts  --      0.6598                 1.1431                 7.3624
 IR Inten    --     78.2738               103.9367                28.2230

                     16                     17                     18
                     A"                     A'                     A'
 Frequencies --   1923.7203              2098.8253              2141.6092
 Red. masses --      1.0283                 6.4035                 5.6400
 Frc consts  --      2.2421                16.6195                15.2408
 IR Inten    --    129.4092              2042.5235               101.4450

                     19                     20                     21
                     A'                     A'                     A'
 Frequencies --   2465.8307              3265.6237              3269.2899
 Red. masses --      1.0601                 1.1704                 1.1705
 Frc consts  --      3.7978                 7.3541                 7.3712
 IR Inten    --     75.1716               290.0547               107.1098

 - Thermochemistry -
 -------------------
 Temperature   298.150 Kelvin.  Pressure   1.00000 Atm.
 Atom     1 has atomic number  6 and mass  12.00000

 Molecular mass:    64.03130 amu.
 Principal axes and moments of inertia in atomic units:
                           1         2         3
     Eigenvalues --    60.74185 701.73561 759.05996
           X            1.00000   0.00006   0.00000
           Y           -0.00006   1.00000   0.00000
           Z            0.00000  -0.00000   1.00000
 This molecule is an asymmetric top.
 Rotational symmetry number  1.
 Rotational temperatures (Kelvin)      1.42593     0.12343     0.11411
 Rotational constants (GHZ):          29.71166     2.57183     2.37760
 Zero-point vibrational energy     151772.6 (Joules/Mol)
                                   36.27452 (Kcal/Mol)
 Warning -- explicit consideration of   5 degrees of freedom as
           vibrations may cause significant error
 Vibrational temperatures:    202.40   365.70   417.66   430.46   814.70
          (Kelvin)            909.56   951.79  1087.79  1090.89  1091.10
                             1230.50  1235.70  1393.79  1466.83  2000.30
                             2767.80  3019.74  3081.29  3547.78  4698.50
                             4703.77

 Zero-point correction=                           0.057807 (Hartree/Particle)
 Thermal correction to Energy=                    0.063572
 Thermal correction to Enthalpy=                  0.064516
 Thermal correction to Gibbs Free Energy=         0.029685
 Sum of electronic and zero-point Energies=           -191.850444
 Sum of electronic and thermal Energies=              -191.844679
 Sum of electronic and thermal Enthalpies=            -191.843735
 Sum of electronic and thermal Free Energies=         -191.878566

                     E (Thermal)             CV                S
                      KCal/Mol        Cal/Mol-Kelvin    Cal/Mol-Kelvin
 Total                   39.892             20.174             73.308
 Electronic               0.000              0.000              0.000
 Translational            0.889              2.981             38.389
 Rotational               0.889              2.981             24.985
 Vibrational             38.115             14.213              9.934
 Vibration     1          0.615              1.913              2.795
 Vibration     2          0.665              1.756              1.701
 Vibration     3          0.686              1.692              1.472
 Vibration     4          0.692              1.675              1.421
 Vibration     5          0.922              1.104              0.512

 Optimization completed.
    -- Stationary point found.
 Normal termination of Gaussian 09 at Tue Jul 19 22:04:16 2016.
