 Gaussian 09, Revision E.01,
 Gaussian 09:  EM64L-G09RevE.01 30-Nov-2015

 ---------------------------------------------
 #p b3lyp/6-311++G(3df,2p) freq symmetry=Loose
 ---------------------------------------------

 ---------
 b3lyp opt
 ---------
 Symbolic Z-matrix:
 Charge =  0 Multiplicity = 3

                         Standard orientation:
 ---------------------------------------------------------------------
 Center     Atomic      Atomic             Coordinates (Angstroms)
 Number     Number       Type             X           Y           Z
 ---------------------------------------------------------------------
      1          6           0        0.919955    1.160715    0.001640
      2          1           0        0.095465    1.867464   -0.099385
      3          1           0        1.449546    1.359731    0.935507
      4          1           0        1.634640    1.306280   -0.809175
      5          6           0       -1.870804    0.488589   -0.011225
      6          6           0        0.416673   -0.255370   -0.000858
      7          6           0        1.251634   -1.338397   -0.008169
      8          6           0       -1.024328   -0.547213    0.009538
      9          1           0       -1.338432   -1.583421    0.027496
 ---------------------------------------------------------------------

 SCF Done:  E(UB3LYP) =  -192.658575119     A.U. after   22 cycles

 The electronic state is 3-A.
 Alpha  occ. eigenvalues --  -10.25704 -10.25632 -10.24257 -10.22915 -10.20763
 Alpha  occ. eigenvalues --   -0.88482  -0.78793  -0.72921  -0.57983  -0.55106
 Alpha  occ. eigenvalues --   -0.46860  -0.46694  -0.42577  -0.37266  -0.33438
 Alpha  occ. eigenvalues --   -0.31245  -0.28888  -0.21912
 Alpha virt. eigenvalues --   -0.14596  -0.07252  -0.00918  -0.00045   0.00884
 Alpha virt. eigenvalues --    0.03122   0.03278   0.04715   0.05818   0.06353
 Alpha virt. eigenvalues --    0.06750   0.09383   0.09736   0.10115   0.11175

  Beta  occ. eigenvalues --  -10.25346 -10.24650 -10.22838 -10.22796 -10.20672
  Beta  occ. eigenvalues --   -0.86863  -0.76622  -0.70693  -0.55506  -0.54310
  Beta  occ. eigenvalues --   -0.45759  -0.45619  -0.42244  -0.34298  -0.31465
  Beta  occ. eigenvalues --   -0.29098
  Beta virt. eigenvalues --   -0.18921  -0.11187  -0.08007  -0.03030  -0.00794
  Beta virt. eigenvalues --    0.01078   0.01369   0.03231   0.03859   0.04818
  Beta virt. eigenvalues --    0.06077   0.06652   0.06975   0.09844   0.10275

 Mulliken charges and spin densities:
               1          2
     1  C   -0.413868   0.046893
     2  H    0.167271   0.013767
     3  H    0.175221   0.011146
     4  H    0.169161   0.008386
     5  C   -0.675470   0.710306
     6  C    0.591640   0.243662
     7  C   -0.447806   0.889670
     8  C    0.220857   0.058943
     9  H    0.212994   0.017228
 Sum of Mulliken charges =  -0.00000   2.00000

 Dipole moment (field-independent basis, Debye):
    X=              0.2811    Y=              0.8832    Z=              0.0807  Tot=              0.9304
 Quadrupole moment (field-independent basis, Debye-Ang):
   XX=            -36.6646   YY=            -33.4765   ZZ=            -30.8225
   XY=              9.1137   XZ=             -0.0433   YZ=             -0.0117

  Exact polarizability: 135.867 -32.481  76.819   0.035   0.071  44.716
 Approx polarizability: 318.209-107.035 135.331   0.030   0.141  65.582

                      1                      2                      3
                      A                      A                      A
 Frequencies --     27.3268               142.9662               282.1553
 Red. masses --      1.1205                 3.6496                 4.8020
 Frc consts  --      0.0005                 0.0439                 0.2252
 IR Inten    --      6.6452                30.1942                48.7123

                      4                      5                      6
                      A                      A                      A
 Frequencies --    326.6316               418.9305               442.6944
 Red. masses --      6.6354                 3.1997                 4.2937
 Frc consts  --      0.4171                 0.3309                 0.4958
 IR Inten    --     12.0462                 0.6693                13.3950

                      7                      8                      9
                      A                      A                      A
 Frequencies --    779.1029               782.3246               856.1719
 Red. masses --      4.2356                 1.3959                 2.2514
 Frc consts  --      1.5148                 0.5034                 0.9724
 IR Inten    --    191.6431                27.7090               517.4749

                     10                     11                     12
                      A                      A                      A
 Frequencies --   1015.9786              1097.5624              1160.1414
 Red. masses --      1.4045                 2.4956                 1.8946
 Frc consts  --      0.8542                 1.7712                 1.5024
 IR Inten    --      3.5816                48.0198                21.7955

                     13                     14                     15
                      A                      A                      A
 Frequencies --   1229.4308              1397.5593              1453.6463
 Red. masses --      2.5125                 1.2122                 1.2533
 Frc consts  --      2.2375                 1.3950                 1.5603
 IR Inten    --    191.7490                 8.3896                12.7248

                     16                     17                     18
                      A                      A                      A
 Frequencies --   1456.2930              1508.6396              3016.2119
 Red. masses --      1.1657                 2.4410                 1.0339
 Frc consts  --      1.4565                 3.2733                 5.5420
 IR Inten    --     14.8859                 1.6198                 1.9926

                     19                     20                     21
                      A                      A                      A
 Frequencies --   3084.2426              3098.4433              3160.1147
 Red. masses --      1.0999                 1.1028                 1.0882
 Frc consts  --      6.1645                 6.2379                 6.4027
 IR Inten    --      1.7475                 0.5638                 8.9414

 - Thermochemistry -
 -------------------
 Temperature   298.150 Kelvin.  Pressure   1.00000 Atm.
 Atom     1 has atomic number  6 and mass  12.00000

 Molecular mass:    64.03130 amu.
 Principal axes and moments of inertia in atomic units:
                           1         2         3
     Eigenvalues --   195.99485 338.61977 523.50132
           X            0.98656   0.16337  -0.00014
           Y           -0.16337   0.98656  -0.00024
           Z            0.00010   0.00026   1.00000
 This molecule is an asymmetric top.
 Rotational symmetry number  1.
 Rotational temperatures (Kelvin)      0.44192     0.25578     0.16545
 Rotational constants (GHZ):           9.20811     5.32970     3.44744
 Zero-point vibrational energy     159920.2 (Joules/Mol)
                                   38.22184 (Kcal/Mol)
 Warning -- explicit consideration of   6 degrees of freedom as
           vibrations may cause significant error
 Vibrational temperatures:     39.32   205.70   405.96   469.95   602.75
          (Kelvin)            636.94  1120.95  1125.59  1231.84  1461.76
                             1579.15  1669.18  1768.87  2010.77  2091.47
                             2095.28  2170.59  4339.65  4437.53  4457.96
                             4546.69

 Zero-point correction=                           0.060910 (Hartree/Particle)
 Thermal correction to Energy=                    0.067025
 Thermal correction to Enthalpy=                  0.067969
 Thermal correction to Gibbs Free Energy=         0.030042
 Sum of electronic and zero-point Energies=           -192.597665
 Sum of electronic and thermal Energies=              -192.591550
 Sum of electronic and thermal Enthalpies=            -192.590606
 Sum of electronic and thermal Free Energies=         -192.628534

                     E (Thermal)             CV                S
                      KCal/Mol        Cal/Mol-Kelvin    Cal/Mol-Kelvin
 Total                   42.059             19.336             79.825
 Electronic               0.000              0.000              2.183
 Translational            0.889              2.981             38.389
 Rotational               0.889              2.981             25.055
 Vibrational             40.281             13.374             14.197
 Vibration     1          0.593              1.984              6.015
 Vibration     2          0.616              1.910              2.764
 Vibration     3          0.681              1.707              1.521
 Vibration     4          0.710              1.622              1.277
 Vibration     5          0.782              1.429              0.896
 Vibration     6          0.802              1.377              0.818

 Normal termination of Gaussian 09 at Wed Jun 22 05:12:50 2016.
