 Gaussian 09, Revision E.01,
 Gaussian 09:  EM64L-G09RevE.01 30-Nov-2015

 ---------------------------------------------
 #p b3lyp/6-311++G(3df,2p) freq symmetry=Loose
 ---------------------------------------------

 ---------
 b3lyp opt
 ---------
 Symbolic Z-matrix:
 Charge =  3 Multiplicity = 2

                         Standard orientation:
 ---------------------------------------------------------------------
 Center     Atomic      Atomic             Coordinates (Angstroms)
 Number     Number       Type             X           Y           Z
 ---------------------------------------------------------------------
      1          6           0       -1.207019   -0.176112    0.000000
      2          6           0        1.333422   -0.100928    0.000000
      3          1           0        1.506145   -1.237661    0.000000
      4          6           0        2.580248    0.340104   -0.000000
      5          6           0       -0.000000    0.543979   -0.000000
      6          1           0       -0.061115    1.412898    0.772775
      7          1           0       -0.061115    1.412898   -0.772775
      8          6           0       -2.373490   -0.682219    0.000000
      9          1           0       -3.382885   -1.137082    0.000000
 ---------------------------------------------------------------------

 SCF Done:  E(UB3LYP) =  -191.016244201     A.U. after   22 cycles

 The electronic state is 2-A'.
 Alpha  occ. eigenvalues --  -11.08641 -10.95893 -10.94391 -10.93817 -10.92479
 Alpha  occ. eigenvalues --   -1.55767  -1.48667  -1.41081  -1.24913  -1.22313
 Alpha  occ. eigenvalues --   -1.15553  -1.13988  -1.11180  -1.09907  -1.02245
 Alpha  occ. eigenvalues --   -0.96218
 Alpha virt. eigenvalues --   -0.86225  -0.83239  -0.71870  -0.65037  -0.62268
 Alpha virt. eigenvalues --   -0.52542  -0.51383  -0.46962  -0.46719  -0.44970
 Alpha virt. eigenvalues --   -0.42939  -0.41157  -0.39905  -0.39020  -0.37681

  Beta  occ. eigenvalues --  -11.05653 -10.95633 -10.94844 -10.93598 -10.93067
  Beta  occ. eigenvalues --   -1.54006  -1.48479  -1.41333  -1.23805  -1.21636
  Beta  occ. eigenvalues --   -1.15960  -1.12281  -1.10009  -0.98162  -0.96869
  Beta virt. eigenvalues --   -0.89578  -0.87775  -0.78765  -0.66786  -0.65747
  Beta virt. eigenvalues --   -0.65372  -0.52466  -0.51394  -0.46992  -0.46246
  Beta virt. eigenvalues --   -0.44822  -0.42759  -0.40791  -0.39996  -0.39044

 Mulliken charges and spin densities:
               1          2
     1  C    0.236817  -0.371872
     2  C    0.342347   0.175976
     3  H    0.305502  -0.006718
     4  C    0.319377   1.293083
     5  C   -0.048047   0.026765
     6  H    0.353422   0.048579
     7  H    0.353422   0.048579
     8  C    0.648375  -0.222495
     9  H    0.488784   0.008103
 Sum of Mulliken charges =   3.00000   1.00000

 Dipole moment (field-independent basis, Debye):
    X=              1.2128    Y=              0.2771    Z=              0.0000  Tot=              1.2441
 Quadrupole moment (field-independent basis, Debye-Ang):
   XX=             43.6177   YY=            -10.2835   ZZ=            -21.0571
   XY=             11.1558   XZ=             -0.0000   YZ=              0.0000

  Exact polarizability: 128.546  13.923  37.538   0.000  -0.000  26.006
 Approx polarizability: 312.138  47.699  65.662   0.000   0.000  38.537

                      1                      2                      3
                     A"                     A'                     A"
 Frequencies --    161.7731               183.3252               310.7279
 Red. masses --      3.1657                 4.4199                 2.0093
 Frc consts  --      0.0488                 0.0875                 0.1143
 IR Inten    --      1.0015                 6.8707                65.5225

                      4                      5                      6
                     A'                     A'                     A"
 Frequencies --    330.9060               491.1099               523.1877
 Red. masses --      5.9706                 5.7422                 1.7357
 Frc consts  --      0.3852                 0.8160                 0.2799
 IR Inten    --     10.9918                33.0379                75.8323

                      7                      8                      9
                     A'                     A"                     A'
 Frequencies --    629.2159               706.5139               731.3272
 Red. masses --      1.7433                 1.7469                 1.2401
 Frc consts  --      0.4066                 0.5138                 0.3908
 IR Inten    --    320.5587                 5.9751                42.6794

                     10                     11                     12
                     A"                     A'                     A'
 Frequencies --    845.6113               861.8467               962.0764
 Red. masses --      1.4976                 1.4850                 1.6254
 Frc consts  --      0.6309                 0.6499                 0.8864
 IR Inten    --      8.4388               140.3747                72.1209

                     13                     14                     15
                     A"                     A'                     A'
 Frequencies --   1000.4618              1012.7088              1200.6937
 Red. masses --      1.1065                 1.4932                 2.6660
 Frc consts  --      0.6525                 0.9023                 2.2645
 IR Inten    --      6.0492                46.7167               430.3964

                     16                     17                     18
                     A'                     A'                     A"
 Frequencies --   1450.5592              1882.1113              2335.3682
 Red. masses --      5.8822                 5.8997                 1.0559
 Frc consts  --      7.2923                12.3133                 3.3931
 IR Inten    --    852.8317              1089.4247               334.0044

                     19                     20                     21
                     A'                     A'                     A'
 Frequencies --   2486.1449              2571.8146              3032.7309
 Red. masses --      1.0817                 1.0778                 1.1701
 Frc consts  --      3.9393                 4.2004                 6.3408
 IR Inten    --    691.0834               303.0575               440.9447

 - Thermochemistry -
 -------------------
 Temperature   298.150 Kelvin.  Pressure   1.00000 Atm.
 Atom     1 has atomic number  6 and mass  12.00000

 Molecular mass:    64.03130 amu.
 Principal axes and moments of inertia in atomic units:
                           1         2         3
     Eigenvalues --    47.80439 739.15750 778.36486
           X            0.98516  -0.17164   0.00000
           Y            0.17164   0.98516   0.00000
           Z           -0.00000  -0.00000   1.00000
 This molecule is an asymmetric top.
 Rotational symmetry number  1.
 Rotational temperatures (Kelvin)      1.81184     0.11718     0.11128
 Rotational constants (GHZ):          37.75262     2.44162     2.31863
 Zero-point vibrational energy     141818.6 (Joules/Mol)
                                   33.89545 (Kcal/Mol)
 Warning -- explicit consideration of   6 degrees of freedom as
           vibrations may cause significant error
 Vibrational temperatures:    232.76   263.76   447.07   476.10   706.60
          (Kelvin)            752.75   905.30  1016.51  1052.22  1216.64
                             1240.00  1384.21  1439.44  1457.06  1727.53
                             2087.03  2707.94  3360.07  3577.00  3700.26
                             4363.42

 Zero-point correction=                           0.054016 (Hartree/Particle)
 Thermal correction to Energy=                    0.059909
 Thermal correction to Enthalpy=                  0.060853
 Thermal correction to Gibbs Free Energy=         0.025234
 Sum of electronic and zero-point Energies=           -190.962228
 Sum of electronic and thermal Energies=              -190.956335
 Sum of electronic and thermal Enthalpies=            -190.955391
 Sum of electronic and thermal Free Energies=         -190.991010

                     E (Thermal)             CV                S
                      KCal/Mol        Cal/Mol-Kelvin    Cal/Mol-Kelvin
 Total                   37.594             20.619             74.968
 Electronic               0.000              0.000              1.377
 Translational            0.889              2.981             38.389
 Rotational               0.889              2.981             24.823
 Vibrational             35.816             14.657             10.378
 Vibration     1          0.622              1.889              2.529
 Vibration     2          0.631              1.863              2.294
 Vibration     3          0.700              1.653              1.358
 Vibration     4          0.713              1.614              1.256
 Vibration     5          0.847              1.270              0.681
 Vibration     6          0.878              1.199              0.603

 Optimization completed.
    -- Stationary point found.
 Normal termination of Gaussian 09 at Wed Jul 20 02:12:20 2016.
