 Gaussian 09, Revision E.01,
 Gaussian 09:  EM64L-G09RevE.01 30-Nov-2015

 ---------------------------------------------
 #p b3lyp/6-311++G(3df,2p) freq symmetry=Loose
 ---------------------------------------------

 ---------
 b3lyp opt
 ---------
 Symbolic Z-matrix:
 Charge =  1 Multiplicity = 4

                         Standard orientation:
 ---------------------------------------------------------------------
 Center     Atomic      Atomic             Coordinates (Angstroms)
 Number     Number       Type             X           Y           Z
 ---------------------------------------------------------------------
      1          6           0       -0.060733   -0.520050    0.788015
      2          6           0       -0.696853    0.571758    0.000000
      3          1           0       -1.795862    0.583623    0.000000
      4          1           0        0.649668   -2.448729    0.000000
      5          6           0       -0.060733    1.855977   -0.000000
      6          1           0       -0.401749    2.882514   -0.000000
      7          6           0       -0.060733   -0.520050   -0.788015
      8          6           0        0.820362   -1.367601   -0.000000
      9          1           0        1.900073   -1.137608   -0.000000
 ---------------------------------------------------------------------

 SCF Done:  E(UB3LYP) =  -192.331513592     A.U. after   15 cycles

 The electronic state is 4-A".
 Alpha  occ. eigenvalues --  -10.51120 -10.51099 -10.49661 -10.47353 -10.46530
 Alpha  occ. eigenvalues --   -1.22916  -1.03298  -0.91617  -0.79785  -0.79214
 Alpha  occ. eigenvalues --   -0.75790  -0.69852  -0.69506  -0.65499  -0.54215
 Alpha  occ. eigenvalues --   -0.50224  -0.49537  -0.47316
 Alpha virt. eigenvalues --   -0.33555  -0.25770  -0.15981  -0.13544  -0.12532
 Alpha virt. eigenvalues --   -0.12044  -0.10165  -0.08761  -0.08462  -0.07675
 Alpha virt. eigenvalues --   -0.06485  -0.05342  -0.04311  -0.03338  -0.02224

  Beta  occ. eigenvalues --  -10.50213 -10.50194 -10.49793 -10.47294 -10.43634
  Beta  occ. eigenvalues --   -1.20980  -1.00979  -0.86978  -0.76915  -0.76817
  Beta  occ. eigenvalues --   -0.72877  -0.67682  -0.67153  -0.64198  -0.51861
  Beta virt. eigenvalues --   -0.38613  -0.33608  -0.31190  -0.26373  -0.23484
  Beta virt. eigenvalues --   -0.15425  -0.13239  -0.12016  -0.11288  -0.09648
  Beta virt. eigenvalues --   -0.08106  -0.07697  -0.06910  -0.05914  -0.04281

 Mulliken charges and spin densities:
               1          2
     1  C    0.221747   0.493872
     2  C    0.395058  -0.160186
     3  H    0.259741   0.102318
     4  H    0.233417   0.077303
     5  C   -0.368990   1.864477
     6  H    0.258907   0.023991
     7  C    0.221747   0.493872
     8  C   -0.468088  -0.015285
     9  H    0.246460   0.119639
 Sum of Mulliken charges =   1.00000   3.00000

 Dipole moment (field-independent basis, Debye):
    X=             -0.0596    Y=             -0.0719    Z=              0.0000  Tot=              0.0934
 Quadrupole moment (field-independent basis, Debye-Ang):
   XX=            -20.8088   YY=            -11.9832   ZZ=            -29.8578
   XY=             -5.6276   XZ=             -0.0000   YZ=              0.0000

  Exact polarizability:  42.912  -7.668  72.178  -0.000  -0.000  42.011
 Approx polarizability:  64.076  -7.151 112.649   0.000   0.000  95.273

                      1                      2                      3
                     A'                     A"                     A"
 Frequencies --    170.8908               315.1587               462.7251
 Red. masses --      2.8455                 2.3527                 3.3582
 Frc consts  --      0.0490                 0.1377                 0.4237
 IR Inten    --     28.9556                 5.0097                18.3945

                      4                      5                      6
                     A'                     A"                     A'
 Frequencies --    482.8455               542.9951               745.2328
 Red. masses --      4.0256                 1.8746                 2.7463
 Frc consts  --      0.5530                 0.3257                 0.8986
 IR Inten    --      4.7924                87.7799                10.4619

                      7                      8                      9
                     A'                     A"                     A"
 Frequencies --    823.9202               877.7372               894.6618
 Red. masses --      1.6734                 4.7576                 1.2044
 Frc consts  --      0.6693                 2.1596                 0.5680
 IR Inten    --     32.2063                 5.7213                 0.6288

                     10                     11                     12
                     A'                     A"                     A'
 Frequencies --    916.9150              1029.2283              1044.9578
 Red. masses --      1.5733                 1.3273                 5.7076
 Frc consts  --      0.7793                 0.8284                 3.6720
 IR Inten    --      9.8029                 3.9462                 2.3986

                     13                     14                     15
                     A"                     A'                     A'
 Frequencies --   1083.9158              1115.1992              1266.5571
 Red. masses --      1.2378                 3.1267                 1.4178
 Frc consts  --      0.8568                 2.2911                 1.3400
 IR Inten    --     16.0120                25.7198                 0.2665

                     16                     17                     18
                     A'                     A'                     A'
 Frequencies --   1295.6953              1377.0998              2907.7135
 Red. masses --      7.3145                 1.1077                 1.0668
 Frc consts  --      7.2350                 1.2377                 5.3140
 IR Inten    --      0.9596                53.8017                84.6724

                     19                     20                     21
                     A'                     A'                     A'
 Frequencies --   2972.2146              3034.6714              3214.1044
 Red. masses --      1.0811                 1.0899                 1.0929
 Frc consts  --      5.6268                 5.9137                 6.6519
 IR Inten    --     38.0114                50.3245                95.8199

 - Thermochemistry -
 -------------------
 Temperature   298.150 Kelvin.  Pressure   1.00000 Atm.
 Atom     1 has atomic number  6 and mass  12.00000

 Molecular mass:    64.03130 amu.
 Principal axes and moments of inertia in atomic units:
                           1         2         3
     Eigenvalues --   101.33331 399.13416 404.24159
           X           -0.30783   0.00000   0.95144
           Y            0.95144   0.00000   0.30783
           Z           -0.00000   1.00000  -0.00000
 This molecule is an asymmetric top.
 Rotational symmetry number  1.
 Rotational temperatures (Kelvin)      0.85474     0.21700     0.21426
 Rotational constants (GHZ):          17.80995     4.52164     4.46451
 Zero-point vibrational energy     158950.4 (Joules/Mol)
                                   37.99007 (Kcal/Mol)
 Warning -- explicit consideration of   5 degrees of freedom as
           vibrations may cause significant error
 Vibrational temperatures:    245.87   453.44   665.76   694.71   781.25
          (Kelvin)           1072.22  1185.44  1262.87  1287.22  1319.23
                             1480.83  1503.46  1559.51  1604.52  1822.29
                             1864.21  1981.34  4183.55  4276.35  4366.21
                             4624.37

 Zero-point correction=                           0.060541 (Hartree/Particle)
 Thermal correction to Energy=                    0.065546
 Thermal correction to Enthalpy=                  0.066490
 Thermal correction to Gibbs Free Energy=         0.032058
 Sum of electronic and zero-point Energies=           -192.270973
 Sum of electronic and thermal Energies=              -192.265968
 Sum of electronic and thermal Enthalpies=            -192.265024
 Sum of electronic and thermal Free Energies=         -192.299455

                     E (Thermal)             CV                S
                      KCal/Mol        Cal/Mol-Kelvin    Cal/Mol-Kelvin
 Total                   41.131             17.802             72.467
 Electronic               0.000              0.000              2.755
 Translational            0.889              2.981             38.389
 Rotational               0.889              2.981             24.306
 Vibrational             39.353             11.841              7.017
 Vibration     1          0.626              1.878              2.426
 Vibration     2          0.703              1.645              1.335
 Vibration     3          0.820              1.333              0.758
 Vibration     4          0.839              1.288              0.702
 Vibration     5          0.898              1.155              0.559

 Optimization completed.
    -- Stationary point found.
 Normal termination of Gaussian 09 at Wed Jul 20 20:51:06 2016.
