 Gaussian 09, Revision E.01,
 Gaussian 09:  EM64L-G09RevE.01 30-Nov-2015

 ------------------------------------------------------
 #p b3lyp/6-311++G(3df,2p) freq IOp(2/17=3) IOp(2/18=3)
 ------------------------------------------------------

 ---------
 b3lyp opt
 ---------
 Symbolic Z-matrix:
 Charge =  2 Multiplicity = 1

                         Standard orientation:
 ---------------------------------------------------------------------
 Center     Atomic      Atomic             Coordinates (Angstroms)
 Number     Number       Type             X           Y           Z
 ---------------------------------------------------------------------
      1          6           0        0.000000    0.000000    1.091535
      2          6           0        0.000000    0.784649   -0.269545
      3          6           0       -0.000000   -0.784649   -0.269545
      4          1           0        0.920598   -0.152674    1.655089
      5          1           0       -0.920598    0.152674    1.655089
      6          1           0       -0.884207    1.375934   -0.566305
      7          1           0        0.884207   -1.375934   -0.566305
      8          6           0        1.251015    1.356123   -0.457669
      9          6           0       -1.251015   -1.356123   -0.457669
 ---------------------------------------------------------------------

 SCF Done:  E(RB3LYP) =  -191.763714227     A.U. after   11 cycles

 The electronic state is 1-A.
 Alpha  occ. eigenvalues --  -10.82533 -10.82532 -10.72986 -10.72768 -10.72753
 Alpha  occ. eigenvalues --   -1.41658  -1.26894  -1.17081  -1.05726  -1.04600
 Alpha  occ. eigenvalues --   -0.96090  -0.89351  -0.86979  -0.86224  -0.80237
 Alpha  occ. eigenvalues --   -0.79334
 Alpha virt. eigenvalues --   -0.63860  -0.61924  -0.58222  -0.56685  -0.38249
 Alpha virt. eigenvalues --   -0.35772  -0.32246  -0.32009  -0.30083  -0.27014
 Alpha virt. eigenvalues --   -0.26334  -0.25715  -0.24670  -0.22028  -0.21336

 Mulliken charges:
               1
     1  C   -0.173283
     2  C    0.436237
     3  C    0.436237
     4  H    0.314041
     5  H    0.314041
     6  H    0.318342
     7  H    0.318342
     8  C    0.018021
     9  C    0.018021
 Sum of Mulliken charges =   2.00000

 Dipole moment (field-independent basis, Debye):
    X=              0.0000    Y=              0.0000    Z=              0.0085  Tot=              0.0085
 Quadrupole moment (field-independent basis, Debye-Ang):
   XX=            -18.4373   YY=            -12.0147   ZZ=            -16.8935
   XY=              1.2697   XZ=              0.0000   YZ=              0.0000

  Exact polarizability:  45.770  12.031  49.628   0.000   0.000  40.338
 Approx polarizability:  86.467  30.974  91.346  -0.000  -0.000  69.177

                      1                      2                      3
                      A                      B                      B
 Frequencies --    108.5861               153.4093               189.6002
 Red. masses --      8.4754                 4.6297                 6.6312
 Frc consts  --      0.0589                 0.0642                 0.1405
 IR Inten    --      0.8633                14.7746                13.1897

                      4                      5                      6
                      A                      B                      A
 Frequencies --    212.9508               582.3324               627.4835
 Red. masses --      6.4339                 8.7619                 6.0355
 Frc consts  --      0.1719                 1.7506                 1.4001
 IR Inten    --      0.0014                84.1328                22.7879

                      7                      8                      9
                      A                      B                      A
 Frequencies --    828.3243               841.2181               968.7106
 Red. masses --      1.0708                 1.0939                 4.2083
 Frc consts  --      0.4329                 0.4561                 2.3267
 IR Inten    --     32.5180                 7.8423                 6.9807

                     10                     11                     12
                      B                      A                      B
 Frequencies --    980.1342              1010.5427              1044.5809
 Red. masses --      1.1141                 1.0737                 1.5303
 Frc consts  --      0.6306                 0.6460                 0.9838
 IR Inten    --      0.3791                14.9280                88.2987

                     13                     14                     15
                      A                      B                      B
 Frequencies --   1063.3246              1117.8791              1351.7286
 Red. masses --      1.3892                 1.1824                 4.4033
 Frc consts  --      0.9254                 0.8706                 4.7404
 IR Inten    --      9.9231                 6.7252               623.7664

                     16                     17                     18
                      A                      A                      B
 Frequencies --   1419.4589              1471.2835              2959.1659
 Red. masses --      1.3159                 2.8022                 1.0831
 Frc consts  --      1.5621                 3.5739                 5.5881
 IR Inten    --      0.3711                53.1818               328.3941

                     19                     20                     21
                      A                      A                      B
 Frequencies --   2964.0571              3059.6929              3174.9574
 Red. masses --      1.0864                 1.0515                 1.1274
 Frc consts  --      5.6238                 5.7997                 6.6959
 IR Inten    --     31.5940                92.9293               109.7759

 - Thermochemistry -
 -------------------
 Temperature   298.150 Kelvin.  Pressure   1.00000 Atm.
 Atom     1 has atomic number  6 and mass  12.00000

 Molecular mass:    64.03130 amu.
 Principal axes and moments of inertia in atomic units:
                           1         2         3
     Eigenvalues --   140.84876 370.04065 423.19512
           X            0.60109   0.00000   0.79918
           Y            0.79918   0.00000  -0.60109
           Z           -0.00000   1.00000   0.00000
 This molecule is an asymmetric top.
 Rotational symmetry number  2.
 Rotational temperatures (Kelvin)      0.61494     0.23407     0.20467
 Rotational constants (GHZ):          12.81333     4.87714     4.26456
 Zero-point vibrational energy     156288.6 (Joules/Mol)
                                   37.35388 (Kcal/Mol)
 Warning -- explicit consideration of   5 degrees of freedom as
           vibrations may cause significant error
 Vibrational temperatures:    156.23   220.72   272.79   306.39   837.85
          (Kelvin)            902.81  1191.77  1210.32  1393.76  1410.19
                             1453.94  1502.92  1529.88  1608.38  1944.83
                             2042.28  2116.85  4257.57  4264.61  4402.21
                             4568.05

 Zero-point correction=                           0.059527 (Hartree/Particle)
 Thermal correction to Energy=                    0.065508
 Thermal correction to Enthalpy=                  0.066452
 Thermal correction to Gibbs Free Energy=         0.031485
 Sum of electronic and zero-point Energies=           -191.704187
 Sum of electronic and thermal Energies=              -191.698206
 Sum of electronic and thermal Enthalpies=            -191.697262
 Sum of electronic and thermal Free Energies=         -191.732229

                     E (Thermal)             CV                S
                      KCal/Mol        Cal/Mol-Kelvin    Cal/Mol-Kelvin
 Total                   41.107             19.106             73.594
 Electronic               0.000              0.000              0.000
 Translational            0.889              2.981             38.389
 Rotational               0.889              2.981             23.226
 Vibrational             39.329             13.145             11.978
 Vibration     1          0.606              1.942              3.294
 Vibration     2          0.619              1.899              2.630
 Vibration     3          0.633              1.854              2.232
 Vibration     4          0.644              1.821              2.018
 Vibration     5          0.939              1.070              0.481

 Normal termination of Gaussian 09 at Thu Jan 31 07:44:02 2019.
