 Gaussian 09, Revision E.01,
 Gaussian 09:  EM64L-G09RevE.01 30-Nov-2015

 ---------------------------------------------
 #p b3lyp/6-311++G(3df,2p) freq symmetry=Loose
 ---------------------------------------------

 ---------
 b3lyp opt
 ---------
 Symbolic Z-matrix:
 Charge =  2 Multiplicity = 3

                         Standard orientation:
 ---------------------------------------------------------------------
 Center     Atomic      Atomic             Coordinates (Angstroms)
 Number     Number       Type             X           Y           Z
 ---------------------------------------------------------------------
      1          6           0        1.660877   -0.844794    0.013186
      2          1           0        1.030530   -1.707087   -0.207338
      3          1           0        2.696342   -1.039269    0.304670
      4          6           0       -1.243429    0.007399    0.024254
      5          6           0       -2.312758   -0.624655   -0.014270
      6          6           0        1.194147    0.498155   -0.059101
      7          1           0        1.930622    1.299010   -0.137524
      8          6           0       -0.174138    0.880635    0.026216
      9          1           0       -0.405686    1.946912    0.098485
 ---------------------------------------------------------------------

 SCF Done:  E(UB3LYP) =  -191.875231787     A.U. after   22 cycles

 The electronic state is 3-A.
 Alpha  occ. eigenvalues --  -10.76522 -10.72162 -10.71338 -10.70098 -10.69625
 Alpha  occ. eigenvalues --   -1.31515  -1.26380  -1.18152  -1.07318  -0.96449
 Alpha  occ. eigenvalues --   -0.95641  -0.88097  -0.86681  -0.85283  -0.83284
 Alpha  occ. eigenvalues --   -0.77340  -0.76894
 Alpha virt. eigenvalues --   -0.61268  -0.49392  -0.44670  -0.36199  -0.31918
 Alpha virt. eigenvalues --   -0.30254  -0.28428  -0.26465  -0.25231  -0.24247
 Alpha virt. eigenvalues --   -0.23868  -0.22285  -0.21744  -0.20102  -0.19481

  Beta  occ. eigenvalues --  -10.73561 -10.71784 -10.71630 -10.69544 -10.69173
  Beta  occ. eigenvalues --   -1.30519  -1.22981  -1.16466  -1.06171  -0.96246
  Beta  occ. eigenvalues --   -0.95028  -0.87687  -0.85403  -0.80370  -0.74627
  Beta virt. eigenvalues --   -0.66725  -0.62168  -0.57971  -0.44779  -0.41618
  Beta virt. eigenvalues --   -0.32428  -0.31607  -0.29944  -0.28118  -0.26256
  Beta virt. eigenvalues --   -0.25007  -0.23778  -0.23604  -0.21944  -0.21454

 Mulliken charges and spin densities:
               1          2
     1  C   -0.083883   0.234533
     2  H    0.256052  -0.001104
     3  H    0.289311  -0.000882
     4  C    0.754201   0.248826
     5  C    0.429605   1.246947
     6  C    0.117771   0.402266
     7  H    0.268369  -0.002440
     8  C   -0.294580  -0.125405
     9  H    0.263154  -0.002742
 Sum of Mulliken charges =   2.00000   2.00000

 Dipole moment (field-independent basis, Debye):
    X=              1.2836    Y=             -0.9407    Z=              0.0341  Tot=              1.5918
 Quadrupole moment (field-independent basis, Debye-Ang):
   XX=              8.3240   YY=            -12.3461   ZZ=            -24.2622
   XY=              0.1937   XZ=              0.2541   YZ=              0.0526

  Exact polarizability:  90.356   0.653  46.732   0.256   0.023  25.778
 Approx polarizability: 156.654  12.945  74.354   0.264   0.008  37.831

                      1                      2                      3
                      A                      A                      A
 Frequencies --    139.9244               143.5207               217.5264
 Red. masses --      2.8145                 3.3879                 1.1620
 Frc consts  --      0.0325                 0.0411                 0.0324
 IR Inten    --      1.2598                 1.0971                38.1359

                      4                      5                      6
                      A                      A                      A
 Frequencies --    299.9095               372.4437               593.0992
 Red. masses --      4.2220                 3.9184                 3.5766
 Frc consts  --      0.2237                 0.3202                 0.7413
 IR Inten    --      3.2894                10.5706                 9.3623

                      7                      8                      9
                      A                      A                      A
 Frequencies --    779.4656               909.6517               975.0462
 Red. masses --      1.2674                 2.9752                 2.0058
 Frc consts  --      0.4537                 1.4505                 1.1235
 IR Inten    --     45.4856                22.2149                 9.0824

                     10                     11                     12
                      A                      A                      A
 Frequencies --   1011.7774              1098.4719              1153.5952
 Red. masses --      1.7010                 1.8634                 1.4598
 Frc consts  --      1.0260                 1.3248                 1.1446
 IR Inten    --      9.1932                31.8438                19.3785

                     13                     14                     15
                      A                      A                      A
 Frequencies --   1243.0664              1376.5337              1423.6464
 Red. masses --      2.0527                 1.6389                 1.3714
 Frc consts  --      1.8688                 1.8296                 1.6377
 IR Inten    --     81.4894                45.2021               107.2936

                     16                     17                     18
                      A                      A                      A
 Frequencies --   1488.9002              2063.4593              3063.8686
 Red. masses --      1.3599                11.7954                 1.0561
 Frc consts  --      1.7762                29.5906                 5.8409
 IR Inten    --     41.3267                93.1759               114.6236

                     19                     20                     21
                      A                      A                      A
 Frequencies --   3088.7566              3114.3012              3175.5288
 Red. masses --      1.0902                 1.0928                 1.1218
 Frc consts  --      6.1281                 6.2447                 6.6649
 IR Inten    --     66.8327                98.1638                64.8699

 - Thermochemistry -
 -------------------
 Temperature   298.150 Kelvin.  Pressure   1.00000 Atm.
 Atom     1 has atomic number  6 and mass  12.00000

 Molecular mass:    64.03130 amu.
 Principal axes and moments of inertia in atomic units:
                           1         2         3
     Eigenvalues --   125.80943 519.62830 643.81851
           X            0.99968  -0.02523   0.00208
           Y            0.02522   0.99968   0.00128
           Z           -0.00211  -0.00123   1.00000
 This molecule is an asymmetric top.
 Rotational symmetry number  1.
 Rotational temperatures (Kelvin)      0.68845     0.16668     0.13453
 Rotational constants (GHZ):          14.34504     3.47314     2.80318
 Zero-point vibrational energy     165877.1 (Joules/Mol)
                                   39.64559 (Kcal/Mol)
 Warning -- explicit consideration of   6 degrees of freedom as
           vibrations may cause significant error
 Vibrational temperatures:    201.32   206.49   312.97   431.50   535.86
          (Kelvin)            853.34  1121.48  1308.78  1402.87  1455.72
                             1580.45  1659.76  1788.49  1980.52  2048.31
                             2142.19  2968.85  4408.22  4444.03  4480.78
                             4568.87

 Zero-point correction=                           0.063179 (Hartree/Particle)
 Thermal correction to Energy=                    0.069075
 Thermal correction to Enthalpy=                  0.070019
 Thermal correction to Gibbs Free Energy=         0.033407
 Sum of electronic and zero-point Energies=           -191.812053
 Sum of electronic and thermal Energies=              -191.806157
 Sum of electronic and thermal Enthalpies=            -191.805213
 Sum of electronic and thermal Free Energies=         -191.841825

                     E (Thermal)             CV                S
                      KCal/Mol        Cal/Mol-Kelvin    Cal/Mol-Kelvin
 Total                   43.345             18.787             77.057
 Electronic               0.000              0.000              2.183
 Translational            0.889              2.981             38.389
 Rotational               0.889              2.981             25.246
 Vibrational             41.568             12.825             11.238
 Vibration     1          0.615              1.913              2.805
 Vibration     2          0.616              1.910              2.756
 Vibration     3          0.646              1.814              1.980
 Vibration     4          0.692              1.674              1.417
 Vibration     5          0.744              1.529              1.070
 Vibration     6          0.951              1.046              0.462

 Optimization completed.
    -- Stationary point found.
 Normal termination of Gaussian 09 at Mon Jun 20 09:17:27 2016.
