 Gaussian 09, Revision E.01,
 Gaussian 09:  EM64L-G09RevE.01 30-Nov-2015

 ---------------------------------------------
 #p b3lyp/6-311++G(3df,2p) freq symmetry=Loose
 ---------------------------------------------

 ---------
 b3lyp opt
 ---------
 Symbolic Z-matrix:
 Charge =  1 Multiplicity = 2

                         Standard orientation:
 ---------------------------------------------------------------------
 Center     Atomic      Atomic             Coordinates (Angstroms)
 Number     Number       Type             X           Y           Z
 ---------------------------------------------------------------------
      1          6           0       -0.701946   -0.885353   -0.392371
      2          6           0       -1.531246   -0.241906    0.505916
      3          6           0        0.358695   -0.005166   -0.165903
      4          6           0       -0.797176    0.833174   -0.089142
      5          1           0       -1.111502    1.777439   -0.520010
      6          6           0        1.784764   -0.003311    0.117813
      7          1           0        2.258591    0.870576   -0.333597
      8          1           0        1.918554    0.094897    1.204075
      9          1           0        2.255811   -0.927539   -0.208347
 ---------------------------------------------------------------------

 SCF Done:  E(UB3LYP) =  -192.443148971     A.U. after   18 cycles

 The electronic state is 2-A.
 Alpha  occ. eigenvalues --  -10.52525 -10.51651 -10.51333 -10.49480 -10.40507
 Alpha  occ. eigenvalues --   -1.24735  -1.00555  -0.89671  -0.87753  -0.75736
 Alpha  occ. eigenvalues --   -0.71189  -0.69217  -0.66266  -0.62039  -0.61288
 Alpha  occ. eigenvalues --   -0.55139  -0.51437
 Alpha virt. eigenvalues --   -0.32351  -0.28673  -0.26114  -0.15885  -0.13476
 Alpha virt. eigenvalues --   -0.11638  -0.10939  -0.10335  -0.09428  -0.08205
 Alpha virt. eigenvalues --   -0.07298  -0.06875  -0.05695  -0.04055  -0.03788

  Beta  occ. eigenvalues --  -10.52461 -10.51284 -10.50077 -10.48903 -10.40514
  Beta  occ. eigenvalues --   -1.24066  -1.00477  -0.88274  -0.87094  -0.73745
  Beta  occ. eigenvalues --   -0.70795  -0.68245  -0.66030  -0.61300  -0.60847
  Beta  occ. eigenvalues --   -0.50920
  Beta virt. eigenvalues --   -0.39516  -0.31847  -0.26435  -0.24317  -0.15758
  Beta virt. eigenvalues --   -0.13293  -0.11567  -0.10660  -0.10042  -0.09140
  Beta virt. eigenvalues --   -0.08059  -0.07167  -0.06711  -0.05449  -0.03917

 Mulliken charges and spin densities:
               1          2
     1  C    0.211663   0.613702
     2  C   -0.093501   0.181877
     3  C    0.197664  -0.030282
     4  C    0.045293   0.214597
     5  H    0.287227   0.008311
     6  C   -0.267475   0.011659
     7  H    0.202703  -0.002248
     8  H    0.222140  -0.001159
     9  H    0.194287   0.003544
 Sum of Mulliken charges =   1.00000   1.00000

 Dipole moment (field-independent basis, Debye):
    X=              1.2909    Y=              1.4916    Z=             -0.7347  Tot=              2.1050
 Quadrupole moment (field-independent basis, Debye-Ang):
   XX=            -18.0618   YY=            -22.0373   ZZ=            -26.5047
   XY=             -1.9415   XZ=              2.4906   YZ=             -0.9674

  Exact polarizability:  63.659   0.669  44.343  -4.775   1.851  40.370
 Approx polarizability: 107.038   2.871  78.876 -15.367   5.632  65.619

                      1                      2                      3
                      A                      A                      A
 Frequencies --     62.6003               227.8721               358.9336
 Red. masses --      1.1035                 4.8695                 2.8493
 Frc consts  --      0.0025                 0.1490                 0.2163
 IR Inten    --      3.2953                40.3317                 1.7651

                      4                      5                      6
                      A                      A                      A
 Frequencies --    414.9640               592.2306               744.3182
 Red. masses --      4.9796                 3.8706                 3.5044
 Frc consts  --      0.5052                 0.7999                 1.1439
 IR Inten    --     71.2964                 3.6326                23.0175

                      7                      8                      9
                      A                      A                      A
 Frequencies --    820.0825               904.2826               997.0473
 Red. masses --      2.4327                 2.5479                 1.6712
 Frc consts  --      0.9640                 1.2275                 0.9788
 IR Inten    --      3.5493                 6.0276                19.4236

                     10                     11                     12
                      A                      A                      A
 Frequencies --   1029.5554              1100.1861              1216.7903
 Red. masses --      1.4730                 1.3264                 3.9245
 Frc consts  --      0.9199                 0.9460                 3.4235
 IR Inten    --      8.1558                10.8064                13.8919

                     13                     14                     15
                      A                      A                      A
 Frequencies --   1338.8507              1371.7730              1433.4500
 Red. masses --      6.8435                 1.1544                 1.0611
 Frc consts  --      7.2276                 1.2799                 1.2846
 IR Inten    --     50.6149                48.2329                24.3417

                     16                     17                     18
                      A                      A                      A
 Frequencies --   1460.6771              1568.0499              2995.5179
 Red. masses --      1.1231                 7.9019                 1.0502
 Frc consts  --      1.4119                11.4473                 5.5522
 IR Inten    --     12.7732                97.4220                59.7692

                     19                     20                     21
                      A                      A                      A
 Frequencies --   3069.3856              3142.6649              3185.6189
 Red. masses --      1.0808                 1.1036                 1.1006
 Frc consts  --      5.9990                 6.4217                 6.5807
 IR Inten    --     12.7004                 8.1325                51.4714

 - Thermochemistry -
 -------------------
 Temperature   298.150 Kelvin.  Pressure   1.00000 Atm.
 Atom     1 has atomic number  6 and mass  12.00000

 Molecular mass:    64.03130 amu.
 Principal axes and moments of inertia in atomic units:
                           1         2         3
     Eigenvalues --   109.06090 370.03411 426.85161
           X            0.99955  -0.02266   0.01982
           Y            0.02379   0.99801  -0.05845
           Z           -0.01846   0.05890   0.99809
 This molecule is an asymmetric top.
 Rotational symmetry number  1.
 Rotational temperatures (Kelvin)      0.79418     0.23407     0.20291
 Rotational constants (GHZ):          16.54801     4.87723     4.22803
 Zero-point vibrational energy     167685.6 (Joules/Mol)
                                   40.07783 (Kcal/Mol)
 Warning -- explicit consideration of   5 degrees of freedom as
           vibrations may cause significant error
 Vibrational temperatures:     90.07   327.86   516.42   597.04   852.09
          (Kelvin)           1070.91  1179.91  1301.06  1434.53  1481.30
                             1582.92  1750.69  1926.31  1973.67  2062.41
                             2101.59  2256.07  4309.88  4416.16  4521.59
                             4583.39

 Zero-point correction=                           0.063868 (Hartree/Particle)
 Thermal correction to Energy=                    0.069205
 Thermal correction to Enthalpy=                  0.070149
 Thermal correction to Gibbs Free Energy=         0.035066
 Sum of electronic and zero-point Energies=           -192.379281
 Sum of electronic and thermal Energies=              -192.373944
 Sum of electronic and thermal Enthalpies=            -192.373000
 Sum of electronic and thermal Free Energies=         -192.408083

                     E (Thermal)             CV                S
                      KCal/Mol        Cal/Mol-Kelvin    Cal/Mol-Kelvin
 Total                   43.427             17.321             73.840
 Electronic               0.000              0.000              1.377
 Translational            0.889              2.981             38.389
 Rotational               0.889              2.981             24.358
 Vibrational             41.649             11.360              9.715
 Vibration     1          0.597              1.972              4.374
 Vibration     2          0.651              1.799              1.896
 Vibration     3          0.734              1.557              1.127
 Vibration     4          0.778              1.438              0.909
 Vibration     5          0.950              1.048              0.463

 Normal termination of Gaussian 09 at Mon Jun 20 04:39:25 2016.
