 Gaussian 09, Revision E.01,
 Gaussian 09:  EM64L-G09RevE.01 30-Nov-2015

 ---------------------------------------------
 #p b3lyp/6-311++G(3df,2p) freq symmetry=Loose
 ---------------------------------------------

 ---------
 b3lyp opt
 ---------
 Symbolic Z-matrix:
 Charge =  1 Multiplicity = 2

                         Standard orientation:
 ---------------------------------------------------------------------
 Center     Atomic      Atomic             Coordinates (Angstroms)
 Number     Number       Type             X           Y           Z
 ---------------------------------------------------------------------
      1          6           0        0.000000   -0.000000   -0.352580
      2          6           0       -0.000000    0.000000    0.991441
      3          6           0       -0.000000    0.667300   -1.581106
      4          1           0       -0.015889    1.603285   -2.117852
      5          6           0       -0.000000   -0.667300   -1.581106
      6          1           0        0.015889   -1.603285   -2.117852
      7          6           0       -0.000000    0.000000    2.279109
      8          1           0        0.859589   -0.347938    2.850577
      9          1           0       -0.859589    0.347938    2.850577
 ---------------------------------------------------------------------

 SCF Done:  E(UB3LYP) =  -192.548051997     A.U. after   15 cycles

 The electronic state is 2-B.
 Alpha  occ. eigenvalues --  -10.47822 -10.46789 -10.46707 -10.43865 -10.39738
 Alpha  occ. eigenvalues --   -1.18034  -1.01570  -0.90461  -0.82465  -0.78601
 Alpha  occ. eigenvalues --   -0.70506  -0.67197  -0.63549  -0.62843  -0.61873
 Alpha  occ. eigenvalues --   -0.49767  -0.45338
 Alpha virt. eigenvalues --   -0.26235  -0.23970  -0.17940  -0.14560  -0.12989
 Alpha virt. eigenvalues --   -0.12363  -0.10620  -0.10274  -0.08792  -0.07469
 Alpha virt. eigenvalues --   -0.06324  -0.05028  -0.04930  -0.03787  -0.02579

  Beta  occ. eigenvalues --  -10.47667 -10.46588 -10.46508 -10.42972 -10.39788
  Beta  occ. eigenvalues --   -1.17422  -0.99602  -0.89255  -0.82051  -0.78217
  Beta  occ. eigenvalues --   -0.69564  -0.64855  -0.62386  -0.62382  -0.60941
  Beta  occ. eigenvalues --   -0.49150
  Beta virt. eigenvalues --   -0.35407  -0.24969  -0.22397  -0.15528  -0.14415
  Beta virt. eigenvalues --   -0.12879  -0.12244  -0.10432  -0.10099  -0.08684
  Beta virt. eigenvalues --   -0.07418  -0.06015  -0.04900  -0.04821  -0.03634

 Mulliken charges and spin densities:
               1          2
     1  C   -0.359442   0.126560
     2  C    0.284600   0.446070
     3  C    0.067395   0.158406
     4  H    0.310732  -0.000809
     5  C    0.067395   0.158406
     6  H    0.310732  -0.000809
     7  C   -0.139077   0.011865
     8  H    0.228832   0.050155
     9  H    0.228832   0.050155
 Sum of Mulliken charges =   1.00000   1.00000

 Dipole moment (field-independent basis, Debye):
    X=             -0.0000    Y=             -0.0000    Z=             -1.2754  Tot=              1.2754
 Quadrupole moment (field-independent basis, Debye-Ang):
   XX=            -25.9771   YY=            -21.8941   ZZ=             -4.4969
   XY=             -0.9795   XZ=             -0.0000   YZ=              0.0000

  Exact polarizability:  30.796  -0.568  40.029  -0.000   0.000  91.457
 Approx polarizability:  44.901  -0.857  62.192  -0.000  -0.000 138.385

                      1                      2                      3
                      B                      B                      A
 Frequencies --    180.0560               201.3361               286.4593
 Red. masses --      3.0093                 3.5111                 1.0752
 Frc consts  --      0.0575                 0.0839                 0.0520
 IR Inten    --      7.3419                10.5035                18.0484

                      4                      5                      6
                      B                      B                      A
 Frequencies --    415.6874               520.8839               716.9975
 Red. masses --      3.8505                 4.6932                 3.5852
 Frc consts  --      0.3920                 0.7502                 1.0859
 IR Inten    --      3.8764                 1.5973                 0.0061

                      7                      8                      9
                      B                      B                      B
 Frequencies --    797.0121               884.4873               941.3761
 Red. masses --      1.3621                 1.4449                 1.3252
 Frc consts  --      0.5098                 0.6660                 0.6919
 IR Inten    --     43.7681                 3.4422                38.8628

                     10                     11                     12
                      A                      A                      B
 Frequencies --    954.6075               977.6176              1005.2431
 Red. masses --      1.4519                 1.1832                 1.6159
 Frc consts  --      0.7795                 0.6662                 0.9621
 IR Inten    --      0.5471                 7.3853                 8.2249

                     13                     14                     15
                      B                      A                      A
 Frequencies --   1143.3840              1323.9891              1406.0730
 Red. masses --      4.1331                 2.1095                 1.7921
 Frc consts  --      3.1836                 2.1787                 2.0875
 IR Inten    --     23.4331                24.3864               112.8106

                     16                     17                     18
                      A                      A                      A
 Frequencies --   1651.2206              1952.1741              3067.4059
 Red. masses --      5.8458                 9.4387                 1.0571
 Frc consts  --      9.3909                21.1933                 5.8600
 IR Inten    --      6.2887                23.8833                62.7735

                     19                     20                     21
                      B                      B                      A
 Frequencies --   3138.5538              3235.2722              3272.4534
 Red. masses --      1.1116                 1.0929                 1.1436
 Frc consts  --      6.4516                 6.7400                 7.2153
 IR Inten    --     31.7222                74.1589                53.6753

 - Thermochemistry -
 -------------------
 Temperature   298.150 Kelvin.  Pressure   1.00000 Atm.
 Atom     1 has atomic number  6 and mass  12.00000

 Molecular mass:    64.03130 amu.
 Principal axes and moments of inertia in atomic units:
                           1         2         3
     Eigenvalues --    62.85819 580.16931 632.59534
           X           -0.00000  -0.04461   0.99900
           Y            0.00000   0.99900   0.04461
           Z            1.00000  -0.00000  -0.00000
 This molecule is an asymmetric top.
 Rotational symmetry number  2.
 Rotational temperatures (Kelvin)      1.37792     0.14929     0.13692
 Rotational constants (GHZ):          28.71132     3.11071     2.85292
 Zero-point vibrational energy     167909.6 (Joules/Mol)
                                   40.13135 (Kcal/Mol)
 Warning -- explicit consideration of   5 degrees of freedom as
           vibrations may cause significant error
 Vibrational temperatures:    259.06   289.68   412.15   598.08   749.43
          (Kelvin)           1031.60  1146.72  1272.58  1354.43  1373.47
                             1406.57  1446.32  1645.07  1904.92  2023.02
                             2375.74  2808.74  4413.31  4515.67  4654.83
                             4708.32

 Zero-point correction=                           0.063953 (Hartree/Particle)
 Thermal correction to Energy=                    0.069329
 Thermal correction to Enthalpy=                  0.070273
 Thermal correction to Gibbs Free Energy=         0.036221
 Sum of electronic and zero-point Energies=           -192.484099
 Sum of electronic and thermal Energies=              -192.478723
 Sum of electronic and thermal Enthalpies=            -192.477779
 Sum of electronic and thermal Free Energies=         -192.511831

                     E (Thermal)             CV                S
                      KCal/Mol        Cal/Mol-Kelvin    Cal/Mol-Kelvin
 Total                   43.504             18.173             71.668
 Electronic               0.000              0.000              1.377
 Translational            0.889              2.981             38.389
 Rotational               0.889              2.981             23.271
 Vibrational             41.727             12.211              8.630
 Vibration     1          0.629              1.867              2.328
 Vibration     2          0.638              1.838              2.121
 Vibration     3          0.684              1.699              1.495
 Vibration     4          0.779              1.436              0.907
 Vibration     5          0.876              1.204              0.608

 Optimization completed.
    -- Stationary point found.
 Normal termination of Gaussian 09 at Wed Jul 20 03:03:03 2016.
