 Gaussian 09, Revision E.01,
 Gaussian 09:  EM64L-G09RevE.01 30-Nov-2015

 ---------------------------------------------
 #p b3lyp/6-311++G(3df,2p) freq symmetry=Loose
 ---------------------------------------------

 ---------
 b3lyp opt
 ---------
 Symbolic Z-matrix:
 Charge =  0 Multiplicity = 1

                         Standard orientation:
 ---------------------------------------------------------------------
 Center     Atomic      Atomic             Coordinates (Angstroms)
 Number     Number       Type             X           Y           Z
 ---------------------------------------------------------------------
      1          6           0        0.141683   -0.536290    0.715912
      2          1           0       -1.431446   -1.964182    0.000000
      3          6           0        0.073600    0.689726    0.000000
      4          6           0        0.141683    2.009995    0.000000
      5          1           0        0.177167    2.554346    0.930446
      6          1           0        0.177167    2.554346   -0.930446
      7          6           0        0.141683   -0.536290   -0.715912
      8          6           0       -0.366435   -1.720304   -0.000000
      9          1           0        0.283823   -2.585536   -0.000000
 ---------------------------------------------------------------------

 SCF Done:  E(RB3LYP) =  -192.776844394     A.U. after   12 cycles

 The electronic state is 1-A'.
 Alpha  occ. eigenvalues --  -10.25440 -10.24681 -10.24293 -10.24250 -10.15714
 Alpha  occ. eigenvalues --   -0.99724  -0.78293  -0.70039  -0.54617  -0.53252
 Alpha  occ. eigenvalues --   -0.50263  -0.46782  -0.44102  -0.37297  -0.35844
 Alpha  occ. eigenvalues --   -0.29998  -0.22445
 Alpha virt. eigenvalues --   -0.08878  -0.00872   0.00342   0.01128   0.01887
 Alpha virt. eigenvalues --    0.02007   0.03093   0.05093   0.05414   0.07034
 Alpha virt. eigenvalues --    0.08632   0.09028   0.10034   0.11579   0.11588

 Mulliken charges:
               1
     1  C   -0.307483
     2  H    0.183121
     3  C    0.806505
     4  C   -0.496460
     5  H    0.174103
     6  H    0.174103
     7  C   -0.307483
     8  C   -0.402205
     9  H    0.175799
 Sum of Mulliken charges =  -0.00000

 Dipole moment (field-independent basis, Debye):
    X=             -0.5078    Y=             -1.6156    Z=             -0.0000  Tot=              1.6935
 Quadrupole moment (field-independent basis, Debye-Ang):
   XX=            -30.8981   YY=            -25.6971   ZZ=            -32.3117
   XY=              0.9082   XZ=              0.0000   YZ=             -0.0000

  Exact polarizability:  42.125   5.512  87.321   0.000  -0.000  48.794
 Approx polarizability:  60.772   6.109 129.880  -0.000  -0.000  98.258

                      1                      2                      3
                     A'                     A"                     A'
 Frequencies --    176.2285               340.1747               471.9401
 Red. masses --      3.3778                 2.7243                 6.9305
 Frc consts  --      0.0618                 0.1857                 0.9095
 IR Inten    --     22.6676                10.4570                13.4096

                      4                      5                      6
                     A"                     A"                     A'
 Frequencies --    535.3494               597.6688               754.2598
 Red. masses --      5.0369                 1.1843                 1.3026
 Frc consts  --      0.8505                 0.2492                 0.4366
 IR Inten    --     90.7431                 0.6768                79.5247

                      7                      8                      9
                     A'                     A"                     A"
 Frequencies --    769.8000               877.3981              1032.2606
 Red. masses --      5.0537                 1.8554                 1.5695
 Frc consts  --      1.7645                 0.8416                 0.9853
 IR Inten    --     17.8040                 0.4783                 1.4928

                     10                     11                     12
                     A"                     A'                     A"
 Frequencies --   1066.6469              1088.1168              1137.5243
 Red. masses --      1.7377                 1.3976                 1.3602
 Frc consts  --      1.1649                 0.9749                 1.0370
 IR Inten    --      2.5719                20.6871                 5.0663

                     13                     14                     15
                     A'                     A'                     A'
 Frequencies --   1184.1866              1325.6392              1445.9030
 Red. masses --      4.3791                 4.3952                 1.2574
 Frc consts  --      3.6180                 4.5507                 1.5489
 IR Inten    --      1.5645                34.5547                 2.1241

                     16                     17                     18
                     A'                     A'                     A'
 Frequencies --   1539.4923              1839.7836              3018.4369
 Red. masses --      1.1424                 9.8065                 1.0664
 Frc consts  --      1.5952                19.5567                 5.7245
 IR Inten    --     20.4112               521.6956                99.0170

                     19                     20                     21
                     A'                     A'                     A"
 Frequencies --   3156.6553              3165.9974              3255.7841
 Red. masses --      1.1014                 1.0567                 1.1174
 Frc consts  --      6.4660                 6.2404                 6.9787
 IR Inten    --      5.2465                 3.0151                 0.5494

 - Thermochemistry -
 -------------------
 Temperature   298.150 Kelvin.  Pressure   1.00000 Atm.
 Atom     1 has atomic number  6 and mass  12.00000

 Molecular mass:    64.03130 amu.
 Principal axes and moments of inertia in atomic units:
                           1         2         3
     Eigenvalues --    61.60276 446.29928 485.01304
           X            0.10843   0.00000   0.99410
           Y            0.99410   0.00000  -0.10843
           Z            0.00000   1.00000   0.00000
 This molecule is an asymmetric top.
 Rotational symmetry number  1.
 Rotational temperatures (Kelvin)      1.40601     0.19407     0.17858
 Rotational constants (GHZ):          29.29643     4.04379     3.72102
 Zero-point vibrational energy     172138.1 (Joules/Mol)
                                   41.14200 (Kcal/Mol)
 Warning -- explicit consideration of   5 degrees of freedom as
           vibrations may cause significant error
 Vibrational temperatures:    253.55   489.43   679.02   770.25   859.91
          (Kelvin)           1085.21  1107.57  1262.38  1485.19  1534.67
                             1565.56  1636.64  1703.78  1907.30  2080.33
                             2214.98  2647.03  4342.85  4541.72  4555.16
                             4684.34

 Zero-point correction=                           0.065564 (Hartree/Particle)
 Thermal correction to Energy=                    0.070361
 Thermal correction to Enthalpy=                  0.071305
 Thermal correction to Gibbs Free Energy=         0.038599
 Sum of electronic and zero-point Energies=           -192.711280
 Sum of electronic and thermal Energies=              -192.706483
 Sum of electronic and thermal Enthalpies=            -192.705539
 Sum of electronic and thermal Free Energies=         -192.738246

                     E (Thermal)             CV                S
                      KCal/Mol        Cal/Mol-Kelvin    Cal/Mol-Kelvin
 Total                   44.152             16.634             68.836
 Electronic               0.000              0.000              0.000
 Translational            0.889              2.981             38.389
 Rotational               0.889              2.981             24.104
 Vibrational             42.375             10.672              6.343
 Vibration     1          0.628              1.872              2.368
 Vibration     2          0.720              1.595              1.211
 Vibration     3          0.829              1.312              0.732
 Vibration     4          0.890              1.172              0.575
 Vibration     5          0.956              1.037              0.454

 Optimization completed.
    -- Stationary point found.
 Normal termination of Gaussian 09 at Wed Jul 20 00:19:09 2016.
