 Gaussian 09, Revision E.01,
 Gaussian 09:  EM64L-G09RevE.01 30-Nov-2015

 ------------------------------------------------------
 #p b3lyp/6-311++G(3df,2p) freq IOp(2/17=3) IOp(2/18=3)
 ------------------------------------------------------

 ---------
 b3lyp opt
 ---------
 Symbolic Z-matrix:
 Charge =  0 Multiplicity = 3

                         Standard orientation:
 ---------------------------------------------------------------------
 Center     Atomic      Atomic             Coordinates (Angstroms)
 Number     Number       Type             X           Y           Z
 ---------------------------------------------------------------------
      1          6           0        0.458018    1.696952    0.000000
      2          6           0        1.594572    0.798771    0.000000
      3          1           0        2.131141    0.569707   -0.918094
      4          6           0        0.000000    0.432541    0.000000
      5          1           0        2.131141    0.569707    0.918094
      6          6           0       -0.727818   -0.644898    0.000000
      7          6           0       -1.447075   -1.735950    0.000000
      8          1           0       -1.764145   -2.211952   -0.923323
      9          1           0       -1.764145   -2.211952    0.923323
 ---------------------------------------------------------------------

 SCF Done:  E(UB3LYP) =  -192.756482568     A.U. after   17 cycles

 The electronic state is 3-A".
 Alpha  occ. eigenvalues --  -10.22660 -10.22316 -10.21732 -10.21004 -10.20096
 Alpha  occ. eigenvalues --   -0.89867  -0.79879  -0.68939  -0.61904  -0.50862
 Alpha  occ. eigenvalues --   -0.48249  -0.46267  -0.43329  -0.40520  -0.32313
 Alpha  occ. eigenvalues --   -0.32110  -0.23657  -0.20467
 Alpha virt. eigenvalues --   -0.03733  -0.00710   0.00807   0.01868   0.02713
 Alpha virt. eigenvalues --    0.03994   0.04840   0.05289   0.07302   0.07845
 Alpha virt. eigenvalues --    0.08464   0.09612   0.09902   0.11030   0.11990

  Beta  occ. eigenvalues --  -10.22367 -10.22350 -10.20398 -10.19930 -10.19692
  Beta  occ. eigenvalues --   -0.88002  -0.78340  -0.68014  -0.60041  -0.49946
  Beta  occ. eigenvalues --   -0.46827  -0.45121  -0.40082  -0.37769  -0.29748
  Beta  occ. eigenvalues --   -0.28764
  Beta virt. eigenvalues --   -0.12779  -0.08950  -0.02104  -0.00565   0.00942
  Beta virt. eigenvalues --    0.02015   0.03503   0.04392   0.04971   0.06622
  Beta virt. eigenvalues --    0.07464   0.08078   0.08798   0.09909   0.11108

 Mulliken charges and spin densities:
               1          2
     1  C   -0.086052   1.313981
     2  C   -0.477870   0.165788
     3  H    0.161139   0.024842
     4  C    0.015893  -0.097421
     5  H    0.161139   0.024842
     6  C    0.228585   0.379460
     7  C   -0.353552   0.127862
     8  H    0.175359   0.030323
     9  H    0.175359   0.030323
 Sum of Mulliken charges =  -0.00000   2.00000

 Dipole moment (field-independent basis, Debye):
    X=              0.5812    Y=             -1.9029    Z=              0.0000  Tot=              1.9897
 Quadrupole moment (field-independent basis, Debye-Ang):
   XX=            -26.9847   YY=            -32.0341   ZZ=            -29.2506
   XY=              2.5702   XZ=              0.0000   YZ=             -0.0000

  Exact polarizability:  75.404  31.026  93.160   0.000  -0.000  42.173
 Approx polarizability: 115.298  58.824 167.344  -0.000   0.000  59.282

                      1                      2                      3
                     A"                     A'                     A"
 Frequencies --    173.8954               185.2749               349.4383
 Red. masses --      3.1123                 3.9216                 4.6795
 Frc consts  --      0.0555                 0.0793                 0.3367
 IR Inten    --      2.0818                 4.3498                 0.3654

                      4                      5                      6
                     A'                     A"                     A'
 Frequencies --    461.6972               506.0648               576.0428
 Red. masses --      5.3448                 1.0453                 9.6318
 Frc consts  --      0.6713                 0.1577                 1.8831
 IR Inten    --      9.0776                 0.1358                 4.8306

                      7                      8                      9
                     A"                     A'                     A'
 Frequencies --    863.5061               877.6915               893.1967
 Red. masses --      1.1926                 6.5695                 1.3325
 Frc consts  --      0.5239                 2.9817                 0.6263
 IR Inten    --      0.3766                 3.1809                42.9040

                     10                     11                     12
                     A"                     A"                     A'
 Frequencies --    999.0919              1009.1503              1010.6389
 Red. masses --      1.3706                 1.3116                 1.2858
 Frc consts  --      0.8061                 0.7870                 0.7738
 IR Inten    --      0.3341                 0.0000                30.2802

                     13                     14                     15
                     A'                     A'                     A'
 Frequencies --   1089.0510              1400.6017              1473.2389
 Red. masses --      6.2624                 1.4913                 1.1326
 Frc consts  --      4.3761                 1.7236                 1.4484
 IR Inten    --     28.3899                 5.1264                 6.1454

                     16                     17                     18
                     A'                     A'                     A'
 Frequencies --   1530.3849              1894.9068              3049.4092
 Red. masses --      2.8604                10.7541                 1.0467
 Frc consts  --      3.9471                22.7510                 5.7344
 IR Inten    --      9.3458                32.1008                19.9977

                     19                     20                     21
                     A'                     A"                     A"
 Frequencies --   3082.9398              3125.9120              3147.6991
 Red. masses --      1.0539                 1.1172                 1.1143
 Frc consts  --      5.9019                 6.4320                 6.5049
 IR Inten    --      5.8415                 9.9834                 2.1616

 - Thermochemistry -
 -------------------
 Temperature   298.150 Kelvin.  Pressure   1.00000 Atm.
 Atom     1 has atomic number  6 and mass  12.00000

 Molecular mass:    64.03130 amu.
 Principal axes and moments of inertia in atomic units:
                           1         2         3
     Eigenvalues --    72.04304 580.49428 628.12996
           X            0.66612   0.74584   0.00000
           Y            0.74584  -0.66612   0.00000
           Z            0.00000  -0.00000   1.00000
 This molecule is an asymmetric top.
 Rotational symmetry number  1.
 Rotational temperatures (Kelvin)      1.20225     0.14921     0.13789
 Rotational constants (GHZ):          25.05088     3.10897     2.87320
 Zero-point vibrational energy     165681.8 (Joules/Mol)
                                   39.59890 (Kcal/Mol)
 Warning -- explicit consideration of   6 degrees of freedom as
           vibrations may cause significant error
 Vibrational temperatures:    250.20   266.57   502.76   664.28   728.11
          (Kelvin)            828.80  1242.39  1262.80  1285.11  1437.47
                             1451.94  1454.08  1566.90  2015.15  2119.66
                             2201.88  2726.34  4387.41  4435.66  4497.48
                             4528.83

 Zero-point correction=                           0.063105 (Hartree/Particle)
 Thermal correction to Energy=                    0.068462
 Thermal correction to Enthalpy=                  0.069406
 Thermal correction to Gibbs Free Energy=         0.034283
 Sum of electronic and zero-point Energies=           -192.693378
 Sum of electronic and thermal Energies=              -192.688021
 Sum of electronic and thermal Enthalpies=            -192.687077
 Sum of electronic and thermal Free Energies=         -192.722200

                     E (Thermal)             CV                S
                      KCal/Mol        Cal/Mol-Kelvin    Cal/Mol-Kelvin
 Total                   42.960             18.194             73.923
 Electronic               0.000              0.000              2.183
 Translational            0.889              2.981             38.389
 Rotational               0.889              2.981             24.778
 Vibrational             41.183             12.232              8.573
 Vibration     1          0.627              1.875              2.393
 Vibration     2          0.631              1.860              2.275
 Vibration     3          0.727              1.576              1.169
 Vibration     4          0.819              1.335              0.761
 Vibration     5          0.861              1.237              0.643
 Vibration     6          0.932              1.083              0.493

 Optimization completed.
    -- Stationary point found.
 Normal termination of Gaussian 09 at Thu Jan 31 06:41:42 2019.
