 Gaussian 09, Revision E.01,
 Gaussian 09:  EM64L-G09RevE.01 30-Nov-2015

 ---------------------------------------------
 #p b3lyp/6-311++G(3df,2p) freq symmetry=Loose
 ---------------------------------------------

 ---------
 b3lyp opt
 ---------
 Symbolic Z-matrix:
 Charge =  3 Multiplicity = 4

                         Standard orientation:
 ---------------------------------------------------------------------
 Center     Atomic      Atomic             Coordinates (Angstroms)
 Number     Number       Type             X           Y           Z
 ---------------------------------------------------------------------
      1          6           0        1.815610    0.662179   -0.155371
      2          6           0        0.582695    0.000049    0.097271
      3          6           0        1.815627   -0.661953   -0.156628
      4          6           0       -1.998244    0.000730   -0.312654
      5          1           0       -3.167535   -0.002711    0.094929
      6          1           0       -2.271505    1.031576   -0.746620
      7          1           0       -2.271195   -1.028174   -0.752214
      8          6           0       -0.775406   -0.000660    0.492976
      9          1           0       -0.931454   -0.002760    1.610335
 ---------------------------------------------------------------------

 SCF Done:  E(UB3LYP) =  -190.987609079     A.U. after   16 cycles

 The electronic state is 4-A.
 Alpha  occ. eigenvalues --  -11.01230 -11.01134 -11.00463 -11.00106 -10.95087
 Alpha  occ. eigenvalues --   -1.66941  -1.53378  -1.41163  -1.24550  -1.22115
 Alpha  occ. eigenvalues --   -1.18916  -1.15444  -1.15408  -1.08374  -1.04303
 Alpha  occ. eigenvalues --   -1.03234  -0.99313
 Alpha virt. eigenvalues --   -0.82940  -0.75060  -0.69894  -0.60579  -0.54288
 Alpha virt. eigenvalues --   -0.53113  -0.50017  -0.46562  -0.45950  -0.44754
 Alpha virt. eigenvalues --   -0.42518  -0.41022  -0.39886  -0.39312  -0.38722

  Beta  occ. eigenvalues --  -11.00055 -10.99921 -10.99264 -10.99187 -10.94123
  Beta  occ. eigenvalues --   -1.65362  -1.50744  -1.37763  -1.22226  -1.16893
  Beta  occ. eigenvalues --   -1.16660  -1.12715  -1.12586  -1.06400
  Beta virt. eigenvalues --   -0.89365  -0.85903  -0.84052  -0.75946  -0.73905
  Beta virt. eigenvalues --   -0.65429  -0.56413  -0.52082  -0.51925  -0.47013
  Beta virt. eigenvalues --   -0.45606  -0.44446  -0.43742  -0.41323  -0.40241

 Mulliken charges and spin densities:
               1          2
     1  C    0.463158   0.933765
     2  C    0.619115  -0.229794
     3  C    0.462822   0.933989
     4  C   -0.182455   0.620130
     5  H    0.389260   0.238895
     6  H    0.358529   0.068556
     7  H    0.358391   0.069160
     8  C    0.213126   0.330658
     9  H    0.318053   0.034642
 Sum of Mulliken charges =   3.00000   3.00000

 Dipole moment (field-independent basis, Debye):
    X=             -5.9160    Y=             -0.0052    Z=             -0.0367  Tot=              5.9161
 Quadrupole moment (field-independent basis, Debye-Ang):
   XX=             35.8718   YY=            -16.0615   ZZ=            -16.5900
   XY=              0.0131   XZ=              0.7106   YZ=              0.0022

  Exact polarizability:  84.921   0.006  32.569  -2.845   0.003  30.084
 Approx polarizability: 138.042   0.012  59.397 -10.747   0.011  47.107

                      1                      2                      3
                      A                      A                      A
 Frequencies --    136.3838               190.9674               233.2991
 Red. masses --      1.8344                 1.5927                 3.7199
 Frc consts  --      0.0201                 0.0342                 0.1193
 IR Inten    --     22.1781                83.0095                14.4107

                      4                      5                      6
                      A                      A                      A
 Frequencies --    284.9195               441.0798               532.5812
 Red. masses --      1.8573                 1.8669                 4.6215
 Frc consts  --      0.0888                 0.2140                 0.7723
 IR Inten    --     59.3600                95.2399                 2.8999

                      7                      8                      9
                      A                      A                      A
 Frequencies --    675.2912               676.4799               808.2939
 Red. masses --      2.0338                 1.2073                 6.4553
 Frc consts  --      0.5464                 0.3255                 2.4849
 IR Inten    --     32.7103                24.2327                60.5655

                     10                     11                     12
                      A                      A                      A
 Frequencies --    824.4307               988.1217              1033.6392
 Red. masses --      2.3895                 1.6300                 1.5986
 Frc consts  --      0.9569                 0.9377                 1.0063
 IR Inten    --     51.8228                 3.7343                13.0520

                     13                     14                     15
                      A                      A                      A
 Frequencies --   1058.1456              1207.7241              1226.7562
 Red. masses --      1.1345                 1.4729                 1.8963
 Frc consts  --      0.7484                 1.2658                 1.6815
 IR Inten    --     15.1333               134.2589                66.2132

                     16                     17                     18
                      A                      A                      A
 Frequencies --   1358.1521              1693.3004              1808.6451
 Red. masses --      5.2877                11.8782                 1.0731
 Frc consts  --      5.7466                20.0664                 2.0682
 IR Inten    --     96.8650                26.7546               607.1947

                     19                     20                     21
                      A                      A                      A
 Frequencies --   2509.0947              2559.1591              2734.0323
 Red. masses --      1.0428                 1.1090                 1.0808
 Frc consts  --      3.8680                 4.2794                 4.7599
 IR Inten    --    767.2551               469.7580               358.6520

 - Thermochemistry -
 -------------------
 Temperature   298.150 Kelvin.  Pressure   1.00000 Atm.
 Atom     1 has atomic number  6 and mass  12.00000

 Molecular mass:    64.03130 amu.
 Principal axes and moments of inertia in atomic units:
                           1         2         3
     Eigenvalues --    75.64397 596.71877 611.47896
           X            0.99995   0.00003   0.01042
           Y           -0.00002   1.00000  -0.00035
           Z           -0.01042   0.00035   0.99995
 This molecule is an asymmetric top.
 Rotational symmetry number  1.
 Rotational temperatures (Kelvin)      1.14502     0.14515     0.14165
 Rotational constants (GHZ):          23.85836     3.02444     2.95144
 Zero-point vibrational energy     137453.9 (Joules/Mol)
                                   32.85227 (Kcal/Mol)
 Warning -- explicit consideration of   6 degrees of freedom as
           vibrations may cause significant error
 Vibrational temperatures:    196.23   274.76   335.67   409.94   634.61
          (Kelvin)            766.26   971.59   973.30  1162.95  1186.17
                             1421.68  1487.17  1522.43  1737.64  1765.03
                             1954.08  2436.28  2602.23  3610.02  3682.05
                             3933.66

 Zero-point correction=                           0.052353 (Hartree/Particle)
 Thermal correction to Energy=                    0.058388
 Thermal correction to Enthalpy=                  0.059332
 Thermal correction to Gibbs Free Energy=         0.022639
 Sum of electronic and zero-point Energies=           -190.935256
 Sum of electronic and thermal Energies=              -190.929221
 Sum of electronic and thermal Enthalpies=            -190.928277
 Sum of electronic and thermal Free Energies=         -190.964970

                     E (Thermal)             CV                S
                      KCal/Mol        Cal/Mol-Kelvin    Cal/Mol-Kelvin
 Total                   36.639             20.407             77.227
 Electronic               0.000              0.000              2.755
 Translational            0.889              2.981             38.389
 Rotational               0.889              2.981             24.827
 Vibrational             34.861             14.446             11.256
 Vibration     1          0.614              1.917              2.854
 Vibration     2          0.634              1.852              2.218
 Vibration     3          0.654              1.790              1.853
 Vibration     4          0.683              1.702              1.504
 Vibration     5          0.801              1.381              0.823
 Vibration     6          0.888              1.178              0.581

 Normal termination of Gaussian 09 at Mon Jun 20 12:02:46 2016.
