 Gaussian 09, Revision E.01,
 Gaussian 09:  EM64L-G09RevE.01 30-Nov-2015

 ---------------------------------------------
 #p b3lyp/6-311++G(3df,2p) freq symmetry=Loose
 ---------------------------------------------

 ---------
 b3lyp opt
 ---------
 Symbolic Z-matrix:
 Charge =  0 Multiplicity = 3

                         Standard orientation:
 ---------------------------------------------------------------------
 Center     Atomic      Atomic             Coordinates (Angstroms)
 Number     Number       Type             X           Y           Z
 ---------------------------------------------------------------------
      1          6           0       -1.426349   -0.637708   -0.003155
      2          6           0       -1.218054    0.831198    0.001649
      3          1           0       -2.136928   -1.445861   -0.007762
      4          1           0       -1.410428    1.396926    0.912062
      5          1           0       -1.406064    1.401464   -0.906891
      6          6           0       -0.152727   -0.218471    0.001256
      7          6           0        1.205075   -0.489256    0.004403
      8          1           0        1.491850   -1.546135    0.003751
      9          6           0        2.168985    0.546504   -0.004347
 ---------------------------------------------------------------------

 SCF Done:  E(UB3LYP) =  -192.701352222     A.U. after   19 cycles

 The electronic state is 3-A.
 Alpha  occ. eigenvalues --  -10.25171 -10.24066 -10.21992 -10.21128 -10.19594
 Alpha  occ. eigenvalues --   -0.93338  -0.79396  -0.65000  -0.61362  -0.56748
 Alpha  occ. eigenvalues --   -0.50389  -0.49347  -0.39759  -0.35002  -0.34800
 Alpha  occ. eigenvalues --   -0.27903  -0.27185  -0.19152
 Alpha virt. eigenvalues --   -0.07857  -0.01476   0.00123   0.01095   0.01201
 Alpha virt. eigenvalues --    0.03470   0.04435   0.05978   0.06303   0.07363
 Alpha virt. eigenvalues --    0.08089   0.09607   0.09703   0.10752   0.11316

  Beta  occ. eigenvalues --  -10.24322 -10.24118 -10.22036 -10.20770 -10.17929
  Beta  occ. eigenvalues --   -0.92302  -0.77066  -0.63776  -0.59215  -0.55075
  Beta  occ. eigenvalues --   -0.49008  -0.48012  -0.38706  -0.34533  -0.32286
  Beta  occ. eigenvalues --   -0.25125
  Beta virt. eigenvalues --   -0.17502  -0.04226  -0.03762  -0.01381   0.00219
  Beta virt. eigenvalues --    0.01285   0.01817   0.04513   0.04626   0.06155
  Beta virt. eigenvalues --    0.06475   0.07880   0.08446   0.10019   0.10763

 Mulliken charges and spin densities:
               1          2
     1  C    0.181115   0.592111
     2  C   -0.389276  -0.063418
     3  H    0.273593  -0.015632
     4  H    0.160609   0.042004
     5  H    0.160521   0.042128
     6  C    0.223993  -0.169595
     7  C   -0.063517   0.381957
     8  H    0.158421   0.047056
     9  C   -0.705459   1.143390
 Sum of Mulliken charges =  -0.00000   2.00000

 Dipole moment (field-independent basis, Debye):
    X=             -4.8674    Y=             -2.2707    Z=              0.0231  Tot=              5.3711
 Quadrupole moment (field-independent basis, Debye-Ang):
   XX=            -37.4209   YY=            -29.6273   ZZ=            -29.8787
   XY=             -4.1038   XZ=              0.0848   YZ=              0.0351

  Exact polarizability: 100.880   2.788  60.637   0.927   0.332  45.943
 Approx polarizability: 151.831   8.091  86.877   0.355   0.050  62.688

                      1                      2                      3
                      A                      A                      A
 Frequencies --     65.4850               210.2608               304.9169
 Red. masses --      4.3112                 4.7288                 3.1578
 Frc consts  --      0.0109                 0.1232                 0.1730
 IR Inten    --     24.5871                10.9867                41.9029

                      4                      5                      6
                      A                      A                      A
 Frequencies --    449.7485               532.2340               698.4589
 Red. masses --      1.1155                 4.9202                 1.2845
 Frc consts  --      0.1329                 0.8212                 0.3692
 IR Inten    --     36.9346                 4.6380                 2.6936

                      7                      8                      9
                      A                      A                      A
 Frequencies --    710.8449               926.8289               962.3221
 Red. masses --      3.4416                 1.5578                 1.2853
 Frc consts  --      1.0246                 0.7884                 0.7013
 IR Inten    --      1.1340                71.9073                 0.0012

                     10                     11                     12
                      A                      A                      A
 Frequencies --    991.1522              1055.9769              1095.2189
 Red. masses --      1.3024                 1.4490                 3.5652
 Frc consts  --      0.7538                 0.9520                 2.5196
 IR Inten    --      4.4551                35.1931                20.5828

                     13                     14                     15
                      A                      A                      A
 Frequencies --   1134.9061              1199.2492              1348.3211
 Red. masses --      2.8278                 2.3955                 2.4527
 Frc consts  --      2.1460                 2.0298                 2.6271
 IR Inten    --      6.4817                82.0332                65.3756

                     16                     17                     18
                      A                      A                      A
 Frequencies --   1460.7910              1629.7215              3006.4178
 Red. masses --      1.1058                 8.5265                 1.0826
 Frc consts  --      1.3903                13.3429                 5.7650
 IR Inten    --      5.9038                27.9735                33.1247

                     19                     20                     21
                      A                      A                      A
 Frequencies --   3037.6196              3098.2025              3252.4581
 Red. masses --      1.0488                 1.1117                 1.1043
 Frc consts  --      5.7017                 6.2872                 6.8830
 IR Inten    --      4.3024                 6.9699                 4.8266

 - Thermochemistry -
 -------------------
 Temperature   298.150 Kelvin.  Pressure   1.00000 Atm.
 Atom     1 has atomic number  6 and mass  12.00000

 Molecular mass:    64.03130 amu.
 Principal axes and moments of inertia in atomic units:
                           1         2         3
     Eigenvalues --   107.95530 459.96457 556.00712
           X            0.99950  -0.03170   0.00008
           Y            0.03170   0.99950   0.00030
           Z           -0.00009  -0.00030   1.00000
 This molecule is an asymmetric top.
 Rotational symmetry number  1.
 Rotational temperatures (Kelvin)      0.80231     0.18831     0.15578
 Rotational constants (GHZ):          16.71749     3.92365     3.24590
 Zero-point vibrational energy     162519.5 (Joules/Mol)
                                   38.84309 (Kcal/Mol)
 Warning -- explicit consideration of   5 degrees of freedom as
           vibrations may cause significant error
 Vibrational temperatures:     94.22   302.52   438.71   647.09   765.77
          (Kelvin)           1004.93  1022.75  1333.50  1384.57  1426.05
                             1519.31  1575.77  1632.87  1725.45  1939.93
                             2101.75  2344.80  4325.56  4370.45  4457.62
                             4679.56

 Zero-point correction=                           0.061900 (Hartree/Particle)
 Thermal correction to Energy=                    0.067423
 Thermal correction to Enthalpy=                  0.068367
 Thermal correction to Gibbs Free Energy=         0.032398
 Sum of electronic and zero-point Energies=           -192.639452
 Sum of electronic and thermal Energies=              -192.633930
 Sum of electronic and thermal Enthalpies=            -192.632985
 Sum of electronic and thermal Free Energies=         -192.668955

                     E (Thermal)             CV                S
                      KCal/Mol        Cal/Mol-Kelvin    Cal/Mol-Kelvin
 Total                   42.308             18.195             75.703
 Electronic               0.000              0.000              2.183
 Translational            0.889              2.981             38.389
 Rotational               0.889              2.981             24.827
 Vibrational             40.531             12.233             10.304
 Vibration     1          0.597              1.971              4.285
 Vibration     2          0.642              1.825              2.041
 Vibration     3          0.696              1.664              1.390
 Vibration     4          0.809              1.361              0.797
 Vibration     5          0.887              1.179              0.582

 Normal termination of Gaussian 09 at Wed Jun 22 04:18:49 2016.
