 Gaussian 09, Revision E.01,
 Gaussian 09:  EM64L-G09RevE.01 30-Nov-2015

 ---------------------------------------------
 #p b3lyp/6-311++G(3df,2p) freq symmetry=Loose
 ---------------------------------------------

 ---------
 b3lyp opt
 ---------
 Symbolic Z-matrix:
 Charge =  0 Multiplicity = 3

                         Standard orientation:
 ---------------------------------------------------------------------
 Center     Atomic      Atomic             Coordinates (Angstroms)
 Number     Number       Type             X           Y           Z
 ---------------------------------------------------------------------
      1          6           0       -0.000000    1.874416   -0.563422
      2          1           0       -0.000000    1.826817   -1.642258
      3          1           0       -0.000000    2.849299   -0.093862
      4          6           0       -0.000000    0.767370    0.190106
      5          6           0       -0.000000   -0.767370    0.190106
      6          6           0        0.000000   -0.000000    1.325339
      7          6           0       -0.000000   -1.874416   -0.563422
      8          1           0       -0.000000   -2.849299   -0.093862
      9          1           0       -0.000000   -1.826817   -1.642258
 ---------------------------------------------------------------------

 SCF Done:  E(UB3LYP) =  -192.777574053     A.U. after   14 cycles

 The electronic state is 3-B1.
 Alpha  occ. eigenvalues --  -10.23486 -10.23275 -10.23265 -10.19194 -10.19194
 Alpha  occ. eigenvalues --   -0.92831  -0.76717  -0.74451  -0.54063  -0.52853
 Alpha  occ. eigenvalues --   -0.48439  -0.45869  -0.41479  -0.41403  -0.39366
 Alpha  occ. eigenvalues --   -0.28670  -0.25566  -0.21943
 Alpha virt. eigenvalues --   -0.00689   0.00893   0.00937   0.02430   0.02876
 Alpha virt. eigenvalues --    0.03716   0.04909   0.06435   0.06908   0.07077
 Alpha virt. eigenvalues --    0.08925   0.09272   0.09963   0.10481   0.11573

  Beta  occ. eigenvalues --  -10.23179 -10.23160 -10.21679 -10.18620 -10.18619
  Beta  occ. eigenvalues --   -0.90979  -0.75261  -0.72612  -0.52997  -0.50902
  Beta  occ. eigenvalues --   -0.47120  -0.45007  -0.39397  -0.38056  -0.36376
  Beta  occ. eigenvalues --   -0.25473
  Beta virt. eigenvalues --   -0.13430  -0.12215  -0.00514   0.01022   0.02615
  Beta virt. eigenvalues --    0.02959   0.03447   0.03828   0.05262   0.07106
  Beta virt. eigenvalues --    0.07213   0.08295   0.09022   0.10310   0.10951

 Mulliken charges and spin densities:
               1          2
     1  C   -0.552150   0.477614
     2  H    0.175812  -0.005775
     3  H    0.172409   0.013340
     4  C    0.380279  -0.081357
     5  C    0.380279  -0.081357
     6  C   -0.352702   1.192356
     7  C   -0.552150   0.477614
     8  H    0.172409   0.013340
     9  H    0.175812  -0.005775
 Sum of Mulliken charges =  -0.00000   2.00000

 Dipole moment (field-independent basis, Debye):
    X=             -0.0000    Y=             -0.0000    Z=             -1.3334  Tot=              1.3334
 Quadrupole moment (field-independent basis, Debye-Ang):
   XX=            -32.7818   YY=            -26.0017   ZZ=            -29.9516
   XY=              0.0000   XZ=             -0.0000   YZ=              0.0000

  Exact polarizability:  39.802   0.000 108.842   0.000  -0.000  62.338
 Approx polarizability:  56.277   0.000 170.183   0.000   0.000 104.236

                      1                      2                      3
                     A1                     B1                     A2
 Frequencies --    206.4447               340.2176               404.8987
 Red. masses --      2.6622                 2.8650                 1.5200
 Frc consts  --      0.0668                 0.1954                 0.1468
 IR Inten    --      1.7856                 1.9668                 0.0000

                      4                      5                      6
                     B2                     A2                     A1
 Frequencies --    443.0946               558.4951               650.0867
 Red. masses --      2.7920                 1.9941                 3.9343
 Frc consts  --      0.3230                 0.3665                 0.9796
 IR Inten    --      1.2605                 0.0000                21.7134

                      7                      8                      9
                     B1                     A2                     B1
 Frequencies --    672.6217               780.4044               785.0169
 Red. masses --      1.3182                 1.3591                 1.3325
 Frc consts  --      0.3514                 0.4877                 0.4838
 IR Inten    --      3.4495                 0.0000               109.6321

                     10                     11                     12
                     B2                     A1                     B2
 Frequencies --    921.6900              1022.0120              1056.6351
 Red. masses --      4.6040                 1.6345                 1.7247
 Frc consts  --      2.3044                 1.0059                 1.1345
 IR Inten    --     26.5542                13.4365                 6.6295

                     13                     14                     15
                     A1                     B2                     A1
 Frequencies --   1124.6578              1364.0180              1454.9257
 Red. masses --      4.6251                 2.3078                 1.1797
 Frc consts  --      3.4468                 2.5298                 1.4713
 IR Inten    --     20.0297               119.9335                 3.0280

                     16                     17                     18
                     B2                     A1                     B2
 Frequencies --   1486.3526              1740.1611              3137.2647
 Red. masses --      1.7862                10.5535                 1.0540
 Frc consts  --      2.3250                18.8289                 6.1119
 IR Inten    --     18.4764                73.4242                 2.7854

                     19                     20                     21
                     A1                     B2                     A1
 Frequencies --   3138.2442              3228.9736              3229.0951
 Red. masses --      1.0541                 1.1156                 1.1160
 Frc consts  --      6.1163                 6.8530                 6.8558
 IR Inten    --      0.3956                 0.2226                 1.2773

 - Thermochemistry -
 -------------------
 Temperature   298.150 Kelvin.  Pressure   1.00000 Atm.
 Atom     1 has atomic number  6 and mass  12.00000

 Molecular mass:    64.03130 amu.
 Principal axes and moments of inertia in atomic units:
                           1         2         3
     Eigenvalues --   124.39077 434.04812 558.43890
           X            0.00000   0.00000   1.00000
           Y            1.00000   0.00000  -0.00000
           Z           -0.00000   1.00000  -0.00000
 This molecule is an asymmetric top.
 Rotational symmetry number  2.
 Rotational temperatures (Kelvin)      0.69630     0.19955     0.15510
 Rotational constants (GHZ):          14.50864     4.15793     3.23176
 Zero-point vibrational energy     165953.8 (Joules/Mol)
                                   39.66391 (Kcal/Mol)
 Warning -- explicit consideration of   5 degrees of freedom as
           vibrations may cause significant error
 Vibrational temperatures:    297.03   489.50   582.56   637.51   803.55
          (Kelvin)            935.33   967.75  1122.83  1129.46  1326.10
                             1470.45  1520.26  1618.13  1962.52  2093.31
                             2138.53  2503.70  4513.82  4515.23  4645.77
                             4645.94

 Zero-point correction=                           0.063208 (Hartree/Particle)
 Thermal correction to Energy=                    0.068306
 Thermal correction to Enthalpy=                  0.069250
 Thermal correction to Gibbs Free Energy=         0.035404
 Sum of electronic and zero-point Energies=           -192.714366
 Sum of electronic and thermal Energies=              -192.709268
 Sum of electronic and thermal Enthalpies=            -192.708324
 Sum of electronic and thermal Free Energies=         -192.742170

                     E (Thermal)             CV                S
                      KCal/Mol        Cal/Mol-Kelvin    Cal/Mol-Kelvin
 Total                   42.862             18.235             71.235
 Electronic               0.000              0.000              2.183
 Translational            0.889              2.981             38.389
 Rotational               0.889              2.981             23.537
 Vibrational             41.085             12.274              7.126
 Vibration     1          0.641              1.831              2.075
 Vibration     2          0.720              1.595              1.211
 Vibration     3          0.770              1.460              0.945
 Vibration     4          0.803              1.376              0.817
 Vibration     5          0.914              1.121              0.527

 Optimization completed.
    -- Stationary point found.
 Normal termination of Gaussian 09 at Wed Jul 20 05:13:47 2016.
