 Gaussian 09, Revision E.01,
 Gaussian 09:  EM64L-G09RevE.01 30-Nov-2015

 ---------------------------------------------
 #p b3lyp/6-311++G(3df,2p) freq symmetry=Loose
 ---------------------------------------------

 ---------
 b3lyp opt
 ---------
 Symbolic Z-matrix:
 Charge =  0 Multiplicity = 1

                         Standard orientation:
 ---------------------------------------------------------------------
 Center     Atomic      Atomic             Coordinates (Angstroms)
 Number     Number       Type             X           Y           Z
 ---------------------------------------------------------------------
      1          6           0       -0.000000   -0.666550    1.506023
      2          6           0        0.000000    0.666550    1.506023
      3          6           0        0.000000   -0.000000    0.179158
      4          6           0       -0.000000   -0.738905   -1.143445
      5          1           0        0.912986   -1.279562   -1.356469
      6          1           0       -0.912986   -1.279562   -1.356469
      7          6           0        0.000000    0.738905   -1.143445
      8          1           0       -0.912986    1.279562   -1.356469
      9          1           0        0.912986    1.279562   -1.356469
 ---------------------------------------------------------------------

 SCF Done:  E(RB3LYP) =  -192.733380059     A.U. after   11 cycles

 The electronic state is 1-A1.
 Alpha  occ. eigenvalues --  -10.28946 -10.23388 -10.23359 -10.20289 -10.20203
 Alpha  occ. eigenvalues --   -0.94560  -0.86467  -0.66288  -0.57721  -0.53626
 Alpha  occ. eigenvalues --   -0.46759  -0.46491  -0.42136  -0.37090  -0.35797
 Alpha  occ. eigenvalues --   -0.27695  -0.25502
 Alpha virt. eigenvalues --   -0.07847  -0.02378  -0.01767   0.00615   0.00898
 Alpha virt. eigenvalues --    0.01334   0.03120   0.04650   0.05384   0.05689
 Alpha virt. eigenvalues --    0.07292   0.08136   0.08552   0.10587   0.11463

 Mulliken charges:
               1
     1  C   -0.275642
     2  C   -0.275642
     3  C    0.323283
     4  C   -0.237786
     5  H    0.175893
     6  H    0.175893
     7  C   -0.237786
     8  H    0.175893
     9  H    0.175893
 Sum of Mulliken charges =  -0.00000

 Dipole moment (field-independent basis, Debye):
    X=              0.0000    Y=             -0.0000    Z=             -4.6405  Tot=              4.6405
 Quadrupole moment (field-independent basis, Debye-Ang):
   XX=            -28.2031   YY=            -33.1290   ZZ=            -34.0902
   XY=              0.0000   XZ=             -0.0000   YZ=             -0.0000

  Exact polarizability:  41.290   0.000  54.897  -0.000  -0.000  76.619
 Approx polarizability:  62.869  -0.000  82.555   0.000   0.000 131.750

                      1                      2                      3
                     A2                     B2                     B1
 Frequencies --    145.7105               190.5068               338.7392
 Red. masses --      4.3904                 4.6821                 2.8169
 Frc consts  --      0.0549                 0.1001                 0.1904
 IR Inten    --      0.0000                 0.1129                 3.6170

                      4                      5                      6
                     B2                     A1                     B1
 Frequencies --    574.9914               653.3757               740.9191
 Red. masses --     10.2825                 4.4115                 1.0435
 Frc consts  --      2.0030                 1.1096                 0.3375
 IR Inten    --      9.9822                 6.8231                 2.0739

                      7                      8                      9
                     B2                     A2                     A1
 Frequencies --    761.0229               835.4074               949.4744
 Red. masses --      8.0503                 1.1193                 6.9309
 Frc consts  --      2.7470                 0.4603                 3.6813
 IR Inten    --      1.2113                 0.0000                45.4440

                     10                     11                     12
                     B1                     A1                     B2
 Frequencies --   1053.8011              1060.1915              1069.4130
 Red. masses --      1.4644                 1.2630                 1.3391
 Frc consts  --      0.9582                 0.8364                 0.9023
 IR Inten    --      1.1343                 0.8740                 2.7890

                     13                     14                     15
                     A2                     A1                     B2
 Frequencies --   1190.5681              1283.5603              1443.8327
 Red. masses --      1.2873                 3.8726                 1.0827
 Frc consts  --      1.0751                 3.7591                 1.3299
 IR Inten    --      0.0000                 0.5045                 8.8262

                     16                     17                     18
                     A1                     A1                     A1
 Frequencies --   1467.1909              1581.4164              3119.5101
 Red. masses --      1.2492                11.5806                 1.0582
 Frc consts  --      1.5843                17.0637                 6.0674
 IR Inten    --      1.2275                 4.2526                 0.5572

                     19                     20                     21
                     B2                     A2                     B1
 Frequencies --   3120.0357              3198.6683              3214.0866
 Red. masses --      1.0483                 1.1190                 1.1158
 Frc consts  --      6.0124                 6.7457                 6.7911
 IR Inten    --      0.1609                 0.0000                 0.0744

 - Thermochemistry -
 -------------------
 Temperature   298.150 Kelvin.  Pressure   1.00000 Atm.
 Atom     1 has atomic number  6 and mass  12.00000

 Molecular mass:    64.03130 amu.
 Principal axes and moments of inertia in atomic units:
                           1         2         3
     Eigenvalues --   120.44162 344.69403 441.13619
           X            0.00000  -0.00000   1.00000
           Y            0.00000   1.00000   0.00000
           Z            1.00000  -0.00000   0.00000
 This molecule is an asymmetric top.
 Rotational symmetry number  2.
 Rotational temperatures (Kelvin)      0.71914     0.25128     0.19634
 Rotational constants (GHZ):          14.98436     5.23578     4.09112
 Zero-point vibrational energy     167431.9 (Joules/Mol)
                                   40.01718 (Kcal/Mol)
 Warning -- explicit consideration of   4 degrees of freedom as
           vibrations may cause significant error
 Vibrational temperatures:    209.64   274.10   487.37   827.28   940.06
          (Kelvin)           1066.02  1094.94  1201.96  1366.08  1516.18
                             1525.38  1538.64  1712.96  1846.75  2077.35
                             2110.96  2275.30  4488.27  4489.03  4602.16
                             4624.35

 Zero-point correction=                           0.063771 (Hartree/Particle)
 Thermal correction to Energy=                    0.068945
 Thermal correction to Enthalpy=                  0.069889
 Thermal correction to Gibbs Free Energy=         0.036826
 Sum of electronic and zero-point Energies=           -192.669609
 Sum of electronic and thermal Energies=              -192.664435
 Sum of electronic and thermal Enthalpies=            -192.663491
 Sum of electronic and thermal Free Energies=         -192.696554

                     E (Thermal)             CV                S
                      KCal/Mol        Cal/Mol-Kelvin    Cal/Mol-Kelvin
 Total                   43.263             17.371             69.586
 Electronic               0.000              0.000              0.000
 Translational            0.889              2.981             38.389
 Rotational               0.889              2.981             23.042
 Vibrational             41.486             11.409              8.155
 Vibration     1          0.617              1.907              2.728
 Vibration     2          0.634              1.853              2.223
 Vibration     3          0.719              1.598              1.218
 Vibration     4          0.931              1.085              0.495

 Optimization completed.
    -- Stationary point found.
 Normal termination of Gaussian 09 at Tue Jul 19 21:04:40 2016.
