 Gaussian 09, Revision E.01,
 Gaussian 09:  EM64L-G09RevE.01 30-Nov-2015

 ---------------------------------------------
 #p b3lyp/6-311++G(3df,2p) freq symmetry=Loose
 ---------------------------------------------

 ---------
 b3lyp opt
 ---------
 Symbolic Z-matrix:
 Charge =  1 Multiplicity = 2

                         Standard orientation:
 ---------------------------------------------------------------------
 Center     Atomic      Atomic             Coordinates (Angstroms)
 Number     Number       Type             X           Y           Z
 ---------------------------------------------------------------------
      1          6           0        1.938503   -0.610371    0.059875
      2          6           0       -1.898674   -0.252310    0.024278
      3          1           0       -2.243687   -1.277898   -0.006448
      4          1           0       -2.625836    0.547282    0.079621
      5          6           0       -0.564216    0.019120   -0.015296
      6          6           0        0.632081   -0.626319   -0.075489
      7          6           0        0.460327    1.074253   -0.006295
      8          1           0        0.743272    1.528624    0.934851
      9          1           0        0.718121    1.575753   -0.930459
 ---------------------------------------------------------------------

 SCF Done:  E(UB3LYP) =  -192.443494225     A.U. after   19 cycles

 The electronic state is 2-A.
 Alpha  occ. eigenvalues --  -10.49262 -10.49125 -10.48246 -10.47421 -10.47093
 Alpha  occ. eigenvalues --   -1.16584  -1.02221  -0.95054  -0.86070  -0.74657
 Alpha  occ. eigenvalues --   -0.72257  -0.71849  -0.63391  -0.58679  -0.57881
 Alpha  occ. eigenvalues --   -0.53689  -0.52335
 Alpha virt. eigenvalues --   -0.31889  -0.28869  -0.21582  -0.16228  -0.15540
 Alpha virt. eigenvalues --   -0.13452  -0.11408  -0.10804  -0.10211  -0.09105
 Alpha virt. eigenvalues --   -0.07095  -0.07033  -0.05717  -0.05068  -0.03925

  Beta  occ. eigenvalues --  -10.49272 -10.48567 -10.48267 -10.47072 -10.46437
  Beta  occ. eigenvalues --   -1.16061  -1.00145  -0.93423  -0.85958  -0.73998
  Beta  occ. eigenvalues --   -0.71749  -0.71568  -0.63098  -0.57465  -0.55966
  Beta  occ. eigenvalues --   -0.52440
  Beta virt. eigenvalues --   -0.42431  -0.28413  -0.27924  -0.21173  -0.15634
  Beta virt. eigenvalues --   -0.13739  -0.13220  -0.11139  -0.10673  -0.10103
  Beta virt. eigenvalues --   -0.09065  -0.06957  -0.06540  -0.05339  -0.04883

 Mulliken charges and spin densities:
               1          2
     1  C   -0.217975   0.324524
     2  C   -0.437132   0.431950
     3  H    0.248602  -0.014612
     4  H    0.248676  -0.013440
     5  C    0.722347  -0.006009
     6  C    0.490795   0.310388
     7  C   -0.571711  -0.023714
     8  H    0.261366  -0.005959
     9  H    0.255031  -0.003128
 Sum of Mulliken charges =   1.00000   1.00000

 Dipole moment (field-independent basis, Debye):
    X=             -3.1955    Y=              1.1592    Z=             -0.1675  Tot=              3.4034
 Quadrupole moment (field-independent basis, Debye-Ang):
   XX=            -17.9903   YY=            -21.2367   ZZ=            -26.2063
   XY=              2.5543   XZ=             -0.7287   YZ=              0.1729

  Exact polarizability:  92.105  -3.441  47.517  -2.742   0.201  33.953
 Approx polarizability: 162.948 -18.308  82.000  -1.011   0.601  49.425

                      1                      2                      3
                      A                      A                      A
 Frequencies --     98.1987               139.9990               365.1339
 Red. masses --      6.5833                 7.0155                 3.0022
 Frc consts  --      0.0374                 0.0810                 0.2358
 IR Inten    --     12.9296                 4.5638                23.5756

                      4                      5                      6
                      A                      A                      A
 Frequencies --    371.1595               491.5713               560.1764
 Red. masses --      2.8733                 1.1194                 6.8510
 Frc consts  --      0.2332                 0.1594                 1.2666
 IR Inten    --      1.6806                 7.1393                29.4850

                      7                      8                      9
                      A                      A                      A
 Frequencies --    900.6616               910.5194               920.5479
 Red. masses --      2.3612                 1.6561                 1.8850
 Frc consts  --      1.1285                 0.8090                 0.9411
 IR Inten    --     11.0088                 3.7268                 2.5584

                     10                     11                     12
                      A                      A                      A
 Frequencies --   1010.7934              1050.1192              1064.5188
 Red. masses --      1.2929                 1.3693                 1.2589
 Frc consts  --      0.7783                 0.8896                 0.8405
 IR Inten    --     20.7142                 4.3720                58.4076

                     13                     14                     15
                      A                      A                      A
 Frequencies --   1150.7070              1439.6519              1462.9063
 Red. masses --      2.3011                 1.5013                 1.1406
 Frc consts  --      1.7952                 1.8332                 1.4382
 IR Inten    --      7.9721               127.6708                 3.7036

                     16                     17                     18
                      A                      A                      A
 Frequencies --   1530.7943              1822.1303              3121.2092
 Red. masses --      2.7484                11.3912                 1.0485
 Frc consts  --      3.7946                22.2833                 6.0184
 IR Inten    --    119.1007                44.4054                24.1429

                     19                     20                     21
                      A                      A                      A
 Frequencies --   3146.1447              3241.0848              3255.8964
 Red. masses --      1.0552                 1.1249                 1.1222
 Frc consts  --      6.1540                 6.9625                 7.0094
 IR Inten    --     23.9093                22.2701                20.6841

 - Thermochemistry -
 -------------------
 Temperature   298.150 Kelvin.  Pressure   1.00000 Atm.
 Atom     1 has atomic number  6 and mass  12.00000

 Molecular mass:    64.03130 amu.
 Principal axes and moments of inertia in atomic units:
                           1         2         3
     Eigenvalues --   115.13460 408.76268 510.46191
           X            0.99907   0.04315  -0.00153
           Y           -0.04315   0.99907   0.00042
           Z            0.00155  -0.00035   1.00000
 This molecule is an asymmetric top.
 Rotational symmetry number  1.
 Rotational temperatures (Kelvin)      0.75228     0.21189     0.16968
 Rotational constants (GHZ):          15.67506     4.41513     3.53551
 Zero-point vibrational energy     167799.7 (Joules/Mol)
                                   40.10510 (Kcal/Mol)
 Warning -- explicit consideration of   6 degrees of freedom as
           vibrations may cause significant error
 Vibrational temperatures:    141.29   201.43   525.35   534.02   707.26
          (Kelvin)            805.97  1295.85  1310.03  1324.46  1454.30
                             1510.89  1531.60  1655.61  2071.34  2104.79
                             2202.47  2621.64  4490.72  4526.59  4663.19
                             4684.50

 Zero-point correction=                           0.063912 (Hartree/Particle)
 Thermal correction to Energy=                    0.069528
 Thermal correction to Enthalpy=                  0.070472
 Thermal correction to Gibbs Free Energy=         0.034904
 Sum of electronic and zero-point Energies=           -192.379583
 Sum of electronic and thermal Energies=              -192.373966
 Sum of electronic and thermal Enthalpies=            -192.373022
 Sum of electronic and thermal Free Energies=         -192.408590

                     E (Thermal)             CV                S
                      KCal/Mol        Cal/Mol-Kelvin    Cal/Mol-Kelvin
 Total                   43.630             18.255             74.860
 Electronic               0.000              0.000              1.377
 Translational            0.889              2.981             38.389
 Rotational               0.889              2.981             24.689
 Vibrational             41.852             12.294             10.405
 Vibration     1          0.604              1.950              3.490
 Vibration     2          0.615              1.913              2.804
 Vibration     3          0.738              1.544              1.100
 Vibration     4          0.743              1.531              1.075
 Vibration     5          0.847              1.269              0.680
 Vibration     6          0.916              1.117              0.523

 Optimization completed.
    -- Stationary point found.
 Normal termination of Gaussian 09 at Mon Jun 20 04:39:27 2016.
