 Gaussian 09, Revision E.01,
 Gaussian 09:  EM64L-G09RevE.01 30-Nov-2015

 ---------------------------------------------
 #p b3lyp/6-311++G(3df,2p) freq symmetry=Loose
 ---------------------------------------------

 ---------
 b3lyp opt
 ---------
 Symbolic Z-matrix:
 Charge =  1 Multiplicity = 4

                         Standard orientation:
 ---------------------------------------------------------------------
 Center     Atomic      Atomic             Coordinates (Angstroms)
 Number     Number       Type             X           Y           Z
 ---------------------------------------------------------------------
      1          6           0       -0.318312    1.276107    0.000232
      2          1           0       -0.417961    1.846250   -0.919009
      3          1           0       -0.418629    1.845077    0.919531
      4          1           0        2.683369    0.099798    0.001652
      5          6           0        0.546877    0.052589   -0.000055
      6          6           0       -0.805816   -0.157715   -0.001185
      7          6           0       -1.836656   -1.025480    0.000713
      8          6           0        1.789397   -0.512261    0.000126
      9          1           0        1.900284   -1.590562   -0.001162
 ---------------------------------------------------------------------

 SCF Done:  E(UB3LYP) =  -192.372489704     A.U. after   18 cycles

 The electronic state is 4-A.
 Alpha  occ. eigenvalues --  -10.51550 -10.48002 -10.46192 -10.45855 -10.42061
 Alpha  occ. eigenvalues --   -1.14180  -1.00148  -0.97290  -0.81592  -0.74084
 Alpha  occ. eigenvalues --   -0.69214  -0.68884  -0.65333  -0.61742  -0.56209
 Alpha  occ. eigenvalues --   -0.55747  -0.52122  -0.45688
 Alpha virt. eigenvalues --   -0.32161  -0.16841  -0.15638  -0.12617  -0.12044
 Alpha virt. eigenvalues --   -0.10474  -0.10311  -0.08584  -0.08062  -0.06403
 Alpha virt. eigenvalues --   -0.06003  -0.05364  -0.05352  -0.03482  -0.02397

  Beta  occ. eigenvalues --  -10.47767 -10.47574 -10.45921 -10.45189 -10.41772
  Beta  occ. eigenvalues --   -1.13126  -0.96896  -0.91845  -0.80593  -0.72942
  Beta  occ. eigenvalues --   -0.68468  -0.68245  -0.58858  -0.56168  -0.52943
  Beta virt. eigenvalues --   -0.40810  -0.40376  -0.28237  -0.26271  -0.15372
  Beta virt. eigenvalues --   -0.13073  -0.12396  -0.11457  -0.10053  -0.09817
  Beta virt. eigenvalues --   -0.08386  -0.07093  -0.06052  -0.05564  -0.04809

 Mulliken charges and spin densities:
               1          2
     1  C   -0.550616   0.170686
     2  H    0.224602  -0.018148
     3  H    0.224731  -0.018071
     4  H    0.247281  -0.006820
     5  C    0.336278   0.221278
     6  C    0.537186   0.055106
     7  C    0.054613   2.184845
     8  C   -0.304764   0.421072
     9  H    0.230688  -0.009948
 Sum of Mulliken charges =   1.00000   3.00000

 Dipole moment (field-independent basis, Debye):
    X=              1.0415    Y=             -0.4588    Z=              0.0011  Tot=              1.1380
 Quadrupole moment (field-independent basis, Debye-Ang):
   XX=            -12.9135   YY=            -20.0473   ZZ=            -26.1115
   XY=             -0.1997   XZ=             -0.0001   YZ=              0.0001

  Exact polarizability:  86.380   4.431  54.881   0.001  -0.008  31.861
 Approx polarizability: 158.461  17.928  86.240   0.005  -0.021  46.281

                      1                      2                      3
                      A                      A                      A
 Frequencies --    139.3709               243.8332               302.3854
 Red. masses --      1.9344                 3.7535                 1.9957
 Frc consts  --      0.0221                 0.1315                 0.1075
 IR Inten    --      2.5535                 1.0973                 4.0413

                      4                      5                      6
                      A                      A                      A
 Frequencies --    445.8430               485.8132               665.8993
 Red. masses --      3.5658                 1.7564                 5.7674
 Frc consts  --      0.4176                 0.2442                 1.5068
 IR Inten    --      5.9967                 3.1821                 1.6965

                      7                      8                      9
                      A                      A                      A
 Frequencies --    884.9109               919.4579               948.7564
 Red. masses --      4.4904                 1.3811                 2.7743
 Frc consts  --      2.0717                 0.6879                 1.4713
 IR Inten    --      5.1851                 0.3110                 1.6667

                     10                     11                     12
                      A                      A                      A
 Frequencies --    987.8367              1032.9347              1063.5887
 Red. masses --      1.2269                 1.4194                 1.3268
 Frc consts  --      0.7054                 0.8923                 0.8843
 IR Inten    --      5.3739                13.7842                52.1556

                     13                     14                     15
                      A                      A                      A
 Frequencies --   1142.9755              1260.9693              1436.1837
 Red. masses --      2.3447                 6.2839                 1.0882
 Frc consts  --      1.8047                 5.8869                 1.3224
 IR Inten    --      7.7428               139.6864                 8.6532

                     16                     17                     18
                      A                      A                      A
 Frequencies --   1481.3669              1757.2849              3083.1673
 Red. masses --      1.1970                10.6990                 1.0498
 Frc consts  --      1.5476                19.4660                 5.8798
 IR Inten    --      1.8932                20.0689                19.9636

                     19                     20                     21
                      A                      A                      A
 Frequencies --   3130.0016              3173.1941              3236.2695
 Red. masses --      1.0546                 1.1166                 1.1211
 Frc consts  --      6.0871                 6.6242                 6.9177
 IR Inten    --     15.8225                10.7511                12.6937

 - Thermochemistry -
 -------------------
 Temperature   298.150 Kelvin.  Pressure   1.00000 Atm.
 Atom     1 has atomic number  6 and mass  12.00000

 Molecular mass:    64.03130 amu.
 Principal axes and moments of inertia in atomic units:
                           1         2         3
     Eigenvalues --   165.69775 373.29147 526.82355
           X            0.99745  -0.07137   0.00001
           Y            0.07137   0.99745   0.00004
           Z           -0.00002  -0.00004   1.00000
 This molecule is an asymmetric top.
 Rotational symmetry number  1.
 Rotational temperatures (Kelvin)      0.52272     0.23203     0.16441
 Rotational constants (GHZ):          10.89177     4.83467     3.42570
 Zero-point vibrational energy     166412.8 (Joules/Mol)
                                   39.77361 (Kcal/Mol)
 Warning -- explicit consideration of   5 degrees of freedom as
           vibrations may cause significant error
 Vibrational temperatures:    200.52   350.82   435.06   641.47   698.98
          (Kelvin)            958.08  1273.19  1322.89  1365.05  1421.27
                             1486.16  1530.27  1644.48  1814.25  2066.35
                             2131.35  2528.34  4435.98  4503.37  4565.51
                             4656.26

 Zero-point correction=                           0.063383 (Hartree/Particle)
 Thermal correction to Energy=                    0.068719
 Thermal correction to Enthalpy=                  0.069663
 Thermal correction to Gibbs Free Energy=         0.034152
 Sum of electronic and zero-point Energies=           -192.309106
 Sum of electronic and thermal Energies=              -192.303771
 Sum of electronic and thermal Enthalpies=            -192.302826
 Sum of electronic and thermal Free Energies=         -192.338338

                     E (Thermal)             CV                S
                      KCal/Mol        Cal/Mol-Kelvin    Cal/Mol-Kelvin
 Total                   43.122             17.960             74.740
 Electronic               0.000              0.000              2.755
 Translational            0.889              2.981             38.389
 Rotational               0.889              2.981             24.992
 Vibrational             41.344             11.998              8.604
 Vibration     1          0.615              1.914              2.812
 Vibration     2          0.659              1.773              1.775
 Vibration     3          0.694              1.669              1.404
 Vibration     4          0.805              1.370              0.808
 Vibration     5          0.842              1.282              0.695

 Normal termination of Gaussian 09 at Mon Jun 20 06:10:23 2016.
