 Gaussian 09, Revision E.01,
 Gaussian 09:  EM64L-G09RevE.01 30-Nov-2015

 ---------------------------------------------
 #p b3lyp/6-311++G(3df,2p) freq symmetry=Loose
 ---------------------------------------------

 ---------
 b3lyp opt
 ---------
 Symbolic Z-matrix:
 Charge =  2 Multiplicity = 1

                         Standard orientation:
 ---------------------------------------------------------------------
 Center     Atomic      Atomic             Coordinates (Angstroms)
 Number     Number       Type             X           Y           Z
 ---------------------------------------------------------------------
      1          6           0        2.233271   -0.471817   -0.000139
      2          1           0        2.008294   -1.535712    0.000278
      3          1           0        3.276763   -0.159488   -0.000210
      4          6           0       -0.069778    0.217978    0.000361
      5          6           0       -1.341974    0.000421    0.000151
      6          6           0       -2.566731   -0.178417   -0.000421
      7          1           0       -3.643870   -0.334413    0.000677
      8          6           0        1.225957    0.506633   -0.000004
      9          1           0        1.474345    1.580823   -0.000432
 ---------------------------------------------------------------------

 SCF Done:  E(RB3LYP) =  -192.013947432     A.U. after   13 cycles

 The electronic state is 1-A.
 Alpha  occ. eigenvalues --  -10.76417 -10.73648 -10.69146 -10.66934 -10.66426
 Alpha  occ. eigenvalues --   -1.31135  -1.25584  -1.17160  -1.09268  -0.98352
 Alpha  occ. eigenvalues --   -0.95714  -0.90823  -0.83989  -0.83699  -0.79954
 Alpha  occ. eigenvalues --   -0.74554
 Alpha virt. eigenvalues --   -0.60186  -0.59623  -0.45331  -0.36507  -0.31398
 Alpha virt. eigenvalues --   -0.31086  -0.28750  -0.28246  -0.26599  -0.24099
 Alpha virt. eigenvalues --   -0.24041  -0.23348  -0.21889  -0.20634  -0.19576

 Mulliken charges:
               1
     1  C   -0.281793
     2  H    0.264420
     3  H    0.290206
     4  C    0.037445
     5  C    0.366780
     6  C    0.403762
     7  H    0.424065
     8  C    0.232721
     9  H    0.262394
 Sum of Mulliken charges =   2.00000

 Dipole moment (field-independent basis, Debye):
    X=             -0.9305    Y=             -0.6051    Z=              0.0002  Tot=              1.1099
 Quadrupole moment (field-independent basis, Debye-Ang):
   XX=             31.2148   YY=            -18.6207   ZZ=            -25.6335
   XY=              0.8375   XZ=             -0.0029   YZ=             -0.0013

  Exact polarizability: 117.123   0.756  33.867   0.004   0.000  25.581
 Approx polarizability: 296.983   9.261  51.307   0.033   0.005  36.266

                      1                      2                      3
                      A                      A                      A
 Frequencies --    133.4711               177.4728               271.2765
 Red. masses --      3.2187                 2.4959                 3.9595
 Frc consts  --      0.0338                 0.0463                 0.1717
 IR Inten    --     12.2815                19.1942                11.0633

                      4                      5                      6
                      A                      A                      A
 Frequencies --    349.9172               617.1472               628.3305
 Red. masses --      1.7432                 4.9965                 3.8026
 Frc consts  --      0.1258                 1.1212                 0.8845
 IR Inten    --      0.1712                 7.5371                 6.7626

                      7                      8                      9
                      A                      A                      A
 Frequencies --    765.3416               828.0401               833.3469
 Red. masses --      1.3122                 1.2133                 3.1520
 Frc consts  --      0.4529                 0.4902                 1.2897
 IR Inten    --     25.8928                41.6309                 2.5673

                     10                     11                     12
                      A                      A                      A
 Frequencies --    889.7763              1030.9250              1152.2330
 Red. masses --      1.3685                 1.3517                 1.3688
 Frc consts  --      0.6383                 0.8464                 1.0707
 IR Inten    --      8.6973                 4.5680                 6.5605

                     13                     14                     15
                      A                      A                      A
 Frequencies --   1218.7541              1332.0624              1504.1755
 Red. masses --      1.6339                 2.2918                 1.2696
 Frc consts  --      1.4299                 2.3960                 1.6925
 IR Inten    --    116.9935               248.3902                36.3696

                     16                     17                     18
                      A                      A                      A
 Frequencies --   1732.9843              2183.8956              2975.8925
 Red. masses --      8.3781                 7.0859                 1.0825
 Frc consts  --     14.8247                19.9119                 5.6481
 IR Inten    --    187.0741              1680.5726               210.8775

                     19                     20                     21
                      A                      A                      A
 Frequencies --   3099.6166              3214.8681              3221.6220
 Red. masses --      1.0582                 1.1249                 1.1712
 Frc consts  --      5.9900                 6.8498                 7.1621
 IR Inten    --     75.6164                65.5112               251.1699

 - Thermochemistry -
 -------------------
 Temperature   298.150 Kelvin.  Pressure   1.00000 Atm.
 Atom     1 has atomic number  6 and mass  12.00000

 Molecular mass:    64.03130 amu.
 Principal axes and moments of inertia in atomic units:
                           1         2         3
     Eigenvalues --    41.90383 746.07123 787.97503
           X            1.00000  -0.00040  -0.00002
           Y            0.00040   1.00000  -0.00011
           Z            0.00002   0.00011   1.00000
 This molecule is an asymmetric top.
 Rotational symmetry number  1.
 Rotational temperatures (Kelvin)      2.06697     0.11609     0.10992
 Rotational constants (GHZ):          43.06864     2.41899     2.29035
 Zero-point vibrational energy     168441.1 (Joules/Mol)
                                   40.25838 (Kcal/Mol)
 Warning -- explicit consideration of   5 degrees of freedom as
           vibrations may cause significant error
 Vibrational temperatures:    192.03   255.34   390.31   503.45   887.94
          (Kelvin)            904.03  1101.15  1191.36  1199.00  1280.19
                             1483.27  1657.80  1753.51  1916.54  2164.17
                             2493.37  3142.13  4281.64  4459.65  4625.47
                             4635.19

 Zero-point correction=                           0.064156 (Hartree/Particle)
 Thermal correction to Energy=                    0.069743
 Thermal correction to Enthalpy=                  0.070687
 Thermal correction to Gibbs Free Energy=         0.036052
 Sum of electronic and zero-point Energies=           -191.949792
 Sum of electronic and thermal Energies=              -191.944205
 Sum of electronic and thermal Enthalpies=            -191.943261
 Sum of electronic and thermal Free Energies=         -191.977895

                     E (Thermal)             CV                S
                      KCal/Mol        Cal/Mol-Kelvin    Cal/Mol-Kelvin
 Total                   43.764             18.469             72.894
 Electronic               0.000              0.000              0.000
 Translational            0.889              2.981             38.389
 Rotational               0.889              2.981             24.714
 Vibrational             41.987             12.508              9.791
 Vibration     1          0.613              1.920              2.895
 Vibration     2          0.628              1.870              2.355
 Vibration     3          0.675              1.726              1.588
 Vibration     4          0.727              1.575              1.167
 Vibration     5          0.977              0.996              0.421

 Optimization completed.
    -- Stationary point found.
 Normal termination of Gaussian 09 at Mon Jun 20 08:25:13 2016.
