 Gaussian 09, Revision E.01,
 Gaussian 09:  EM64L-G09RevE.01 30-Nov-2015

 ---------------------------------------------
 #p b3lyp/6-311++G(3df,2p) freq symmetry=Loose
 ---------------------------------------------

 ---------
 b3lyp opt
 ---------
 Symbolic Z-matrix:
 Charge =  1 Multiplicity = 4

                         Standard orientation:
 ---------------------------------------------------------------------
 Center     Atomic      Atomic             Coordinates (Angstroms)
 Number     Number       Type             X           Y           Z
 ---------------------------------------------------------------------
      1          6           0        0.000000   -0.000000    2.246957
      2          6           0        0.000000    1.267530   -1.021735
      3          1           0        0.000000    1.325909   -2.101307
      4          1           0        0.000000    2.180438   -0.446073
      5          6           0        0.000000   -0.000000    1.015858
      6          6           0       -0.000000    0.000000   -0.370218
      7          6           0       -0.000000   -1.267530   -1.021735
      8          1           0       -0.000000   -2.180438   -0.446073
      9          1           0       -0.000000   -1.325909   -2.101307
 ---------------------------------------------------------------------

 SCF Done:  E(UB3LYP) =  -192.404851537     A.U. after   15 cycles

 The electronic state is 4-B2.
 Alpha  occ. eigenvalues --  -10.52414 -10.47521 -10.47101 -10.42730 -10.42728
 Alpha  occ. eigenvalues --   -1.09428  -1.02560  -0.92893  -0.86038  -0.72916
 Alpha  occ. eigenvalues --   -0.69008  -0.66055  -0.63313  -0.62463  -0.62363
 Alpha  occ. eigenvalues --   -0.55788  -0.54769  -0.44257
 Alpha virt. eigenvalues --   -0.29311  -0.22456  -0.15346  -0.14420  -0.12015
 Alpha virt. eigenvalues --   -0.11466  -0.09185  -0.08962  -0.08158  -0.07938
 Alpha virt. eigenvalues --   -0.06968  -0.05010  -0.04796  -0.03930  -0.02931

  Beta  occ. eigenvalues --  -10.49430 -10.47425 -10.46908 -10.41661 -10.41660
  Beta  occ. eigenvalues --   -1.07750  -0.98243  -0.89846  -0.84187  -0.71754
  Beta  occ. eigenvalues --   -0.68281  -0.62421  -0.61598  -0.58768  -0.53504
  Beta virt. eigenvalues --   -0.42172  -0.42087  -0.30230  -0.22419  -0.19593
  Beta virt. eigenvalues --   -0.14995  -0.11740  -0.11299  -0.10809  -0.08768
  Beta virt. eigenvalues --   -0.07805  -0.07677  -0.07623  -0.05984  -0.03751

 Mulliken charges and spin densities:
               1          2
     1  C    0.145257   1.462954
     2  C   -0.544820   0.736165
     3  H    0.229832  -0.020796
     4  H    0.228944  -0.023044
     5  C    0.129400   0.041149
     6  C    0.897431   0.111247
     7  C   -0.544820   0.736165
     8  H    0.228944  -0.023044
     9  H    0.229832  -0.020796
 Sum of Mulliken charges =   1.00000   3.00000

 Dipole moment (field-independent basis, Debye):
    X=             -0.0000    Y=              0.0000    Z=              0.2286  Tot=              0.2286
 Quadrupole moment (field-independent basis, Debye-Ang):
   XX=            -28.1198   YY=            -19.4767   ZZ=            -11.1760
   XY=              0.0000   XZ=              0.0000   YZ=             -0.0000

  Exact polarizability:  30.555   0.000  65.301  -0.000   0.000  79.307
 Approx polarizability:  43.850   0.000  88.823   0.000   0.000 129.830

                      1                      2                      3
                     B2                     B1                     A2
 Frequencies --    129.8622               232.8934               259.9014
 Red. masses --      5.9425                 2.2215                 1.0219
 Frc consts  --      0.0590                 0.0710                 0.0407
 IR Inten    --      0.7958                 4.2500                 0.0000

                      4                      5                      6
                     A1                     B1                     B2
 Frequencies --    389.9263               431.3545               467.3436
 Red. masses --      2.3268                 1.5061                 5.0297
 Frc consts  --      0.2084                 0.1651                 0.6472
 IR Inten    --      0.2815                 3.0533                11.9429

                      7                      8                      9
                     B1                     A2                     A1
 Frequencies --    578.4361               814.5683               831.8017
 Red. masses --      3.8561                 1.2902                 4.4326
 Frc consts  --      0.7602                 0.5044                 1.8070
 IR Inten    --      6.8800                 0.0000                 8.2636

                     10                     11                     12
                     B1                     B2                     A1
 Frequencies --    866.6015               980.6674              1012.4476
 Red. masses --      1.5733                 1.3047                 1.7328
 Frc consts  --      0.6962                 0.7393                 1.0465
 IR Inten    --     52.1441                 9.2954                18.0036

                     13                     14                     15
                     A1                     B2                     B2
 Frequencies --   1344.7737              1346.8923              1477.8116
 Red. masses --      3.9397                 3.7466                 1.2720
 Frc consts  --      4.1977                 4.0045                 1.6367
 IR Inten    --     43.2530                19.5545                57.4420

                     16                     17                     18
                     A1                     A1                     B2
 Frequencies --   1497.8269              2116.0374              3153.5292
 Red. masses --      1.1961                11.9372                 1.0510
 Frc consts  --      1.5810                31.4920                 6.1579
 IR Inten    --      3.1573                33.7713                48.7015

                     19                     20                     21
                     A1                     B2                     A1
 Frequencies --   3158.6764              3273.4683              3274.7802
 Red. masses --      1.0539                 1.1215                 1.1235
 Frc consts  --      6.1952                 7.0807                 7.0989
 IR Inten    --      2.7972                 4.3466                15.0136

 - Thermochemistry -
 -------------------
 Temperature   298.150 Kelvin.  Pressure   1.00000 Atm.
 Atom     1 has atomic number  6 and mass  12.00000

 Molecular mass:    64.03130 amu.
 Principal axes and moments of inertia in atomic units:
                           1         2         3
     Eigenvalues --   184.57328 387.71368 572.28696
           X            0.00000  -0.00000   1.00000
           Y            0.00000   1.00000   0.00000
           Z            1.00000  -0.00000   0.00000
 This molecule is an asymmetric top.
 Rotational symmetry number  2.
 Rotational temperatures (Kelvin)      0.46927     0.22340     0.15135
 Rotational constants (GHZ):           9.77791     4.65483     3.15356
 Zero-point vibrational energy     165321.5 (Joules/Mol)
                                   39.51279 (Kcal/Mol)
 Warning -- explicit consideration of   7 degrees of freedom as
           vibrations may cause significant error
 Vibrational temperatures:    186.84   335.08   373.94   561.02   620.62
          (Kelvin)            672.40   832.24  1171.98  1196.78  1246.84
                             1410.96  1456.68  1934.83  1937.88  2126.24
                             2155.04  3044.50  4537.22  4544.63  4709.78
                             4711.67

 Zero-point correction=                           0.062968 (Hartree/Particle)
 Thermal correction to Energy=                    0.068793
 Thermal correction to Enthalpy=                  0.069737
 Thermal correction to Gibbs Free Energy=         0.033941
 Sum of electronic and zero-point Energies=           -192.341884
 Sum of electronic and thermal Energies=              -192.336058
 Sum of electronic and thermal Enthalpies=            -192.335114
 Sum of electronic and thermal Free Energies=         -192.370910

                     E (Thermal)             CV                S
                      KCal/Mol        Cal/Mol-Kelvin    Cal/Mol-Kelvin
 Total                   43.168             19.671             75.339
 Electronic               0.000              0.000              2.755
 Translational            0.889              2.981             38.389
 Rotational               0.889              2.981             23.841
 Vibrational             41.391             13.709             10.354
 Vibration     1          0.612              1.923              2.948
 Vibration     2          0.654              1.791              1.857
 Vibration     3          0.668              1.746              1.662
 Vibration     4          0.758              1.492              1.000
 Vibration     5          0.792              1.402              0.854
 Vibration     6          0.825              1.323              0.745
 Vibration     7          0.935              1.078              0.488

 Optimization completed.
    -- Stationary point found.
 Normal termination of Gaussian 09 at Wed Jul 20 10:30:41 2016.
