 Gaussian 09, Revision E.01,
 Gaussian 09:  EM64L-G09RevE.01 30-Nov-2015

 ------------------------------------------------------
 #p b3lyp/6-311++G(3df,2p) freq IOp(2/17=3) IOp(2/18=3)
 ------------------------------------------------------

 ---------
 b3lyp opt
 ---------
 Symbolic Z-matrix:
 Charge =  1 Multiplicity = 2

                         Standard orientation:
 ---------------------------------------------------------------------
 Center     Atomic      Atomic             Coordinates (Angstroms)
 Number     Number       Type             X           Y           Z
 ---------------------------------------------------------------------
      1          6           0        0.737485   -0.000000   -1.361627
      2          6           0       -0.737485    0.000000   -1.361627
      3          6           0       -0.000000    0.000000   -0.043046
      4          1           0        1.282329    0.921706   -1.546001
      5          1           0       -1.282329   -0.921706   -1.546001
      6          1           0       -1.282329    0.921706   -1.546001
      7          1           0        1.282329   -0.921706   -1.546001
      8          6           0        0.000000    0.000000    1.233667
      9          6           0        0.000000    0.000000    2.563369
 ---------------------------------------------------------------------

 SCF Done:  E(UB3LYP) =  -192.443037082     A.U. after   15 cycles

 The electronic state is 2-B1.
 Alpha  occ. eigenvalues --  -10.51800 -10.50521 -10.46906 -10.45456 -10.45427
 Alpha  occ. eigenvalues --   -1.15440  -1.05110  -0.93239  -0.86960  -0.76590
 Alpha  occ. eigenvalues --   -0.74436  -0.63790  -0.62283  -0.61411  -0.58480
 Alpha  occ. eigenvalues --   -0.54121  -0.52043
 Alpha virt. eigenvalues --   -0.37496  -0.26165  -0.17122  -0.16773  -0.14139
 Alpha virt. eigenvalues --   -0.13465  -0.12326  -0.09819  -0.08400  -0.07963
 Alpha virt. eigenvalues --   -0.07658  -0.06106  -0.06039  -0.05158  -0.02852

  Beta  occ. eigenvalues --  -10.51750 -10.49762 -10.46493 -10.45288 -10.45257
  Beta  occ. eigenvalues --   -1.14690  -1.03154  -0.91757  -0.86222  -0.75906
  Beta  occ. eigenvalues --   -0.74329  -0.62133  -0.60904  -0.60805  -0.57997
  Beta  occ. eigenvalues --   -0.52674
  Beta virt. eigenvalues --   -0.41731  -0.36919  -0.21830  -0.16704  -0.16659
  Beta virt. eigenvalues --   -0.13947  -0.13205  -0.12207  -0.09691  -0.07838
  Beta virt. eigenvalues --   -0.07725  -0.07636  -0.06048  -0.05376  -0.04942

 Mulliken charges and spin densities:
               1          2
     1  C   -0.235727   0.074094
     2  C   -0.235727   0.074094
     3  C   -0.168950   0.188190
     4  H    0.238396  -0.000318
     5  H    0.238396  -0.000318
     6  H    0.238396  -0.000318
     7  H    0.238396  -0.000318
     8  C    0.834623   0.326690
     9  C   -0.147805   0.338203
 Sum of Mulliken charges =   1.00000   1.00000

 Dipole moment (field-independent basis, Debye):
    X=              0.0000    Y=             -0.0000    Z=             -2.8141  Tot=              2.8141
 Quadrupole moment (field-independent basis, Debye-Ang):
   XX=            -22.7251   YY=            -24.2275   ZZ=            -19.8148
   XY=              0.0000   XZ=              0.0000   YZ=              0.0000

  Exact polarizability:  43.666   0.000  35.550   0.000   0.000  90.175
 Approx polarizability:  60.966  -0.000  52.477  -0.000  -0.000 169.840

                      1                      2                      3
                     B1                     B2                     B1
 Frequencies --     93.3034               141.4356               260.8446
 Red. masses --      6.2492                 6.0556                 6.9830
 Frc consts  --      0.0321                 0.0714                 0.2799
 IR Inten    --      6.4237                 2.0693                20.7973

                      4                      5                      6
                     B2                     B1                     A1
 Frequencies --    345.7084               581.9038               609.8644
 Red. masses --      3.2642                 7.4255                 6.1368
 Frc consts  --      0.2299                 1.4814                 1.3448
 IR Inten    --      0.2080                 0.1593                19.7636

                      7                      8                      9
                     B2                     A2                     B2
 Frequencies --    743.8834               850.3896              1002.0348
 Red. masses --      1.0554                 1.1027                 1.4567
 Frc consts  --      0.3441                 0.4698                 0.8617
 IR Inten    --      4.2434                 0.0000                 0.4917

                     10                     11                     12
                     A1                     A1                     B1
 Frequencies --   1061.3679              1083.1312              1098.8183
 Red. masses --      2.5675                 1.4710                 1.3173
 Frc consts  --      1.7041                 1.0168                 0.9371
 IR Inten    --    111.8776                 7.4198                10.4250

                     13                     14                     15
                     A2                     A1                     B1
 Frequencies --   1192.6572              1333.9971              1419.4738
 Red. masses --      1.2806                 5.0046                 1.0826
 Frc consts  --      1.0732                 5.2472                 1.2852
 IR Inten    --      0.0000               166.2026                26.5806

                     16                     17                     18
                     A1                     A1                     B1
 Frequencies --   1446.3940              1918.9121              3087.0141
 Red. masses --      1.2727                11.1205                 1.0467
 Frc consts  --      1.5687                24.1260                 5.8767
 IR Inten    --      0.5515               161.3449                43.2121

                     19                     20                     21
                     A1                     A2                     B2
 Frequencies --   3090.3171              3173.5845              3187.5375
 Red. masses --      1.0581                 1.1193                 1.1156
 Frc consts  --      5.9534                 6.6417                 6.6782
 IR Inten    --     65.4871                 0.0000                54.5017

 - Thermochemistry -
 -------------------
 Temperature   298.150 Kelvin.  Pressure   1.00000 Atm.
 Atom     1 has atomic number  6 and mass  12.00000

 Molecular mass:    64.03130 amu.
 Principal axes and moments of inertia in atomic units:
                           1         2         3
     Eigenvalues --    82.51635 550.31693 608.37322
           X            0.00000   1.00000  -0.00000
           Y            0.00000   0.00000   1.00000
           Z            1.00000   0.00000  -0.00000
 This molecule is an asymmetric top.
 Rotational symmetry number  2.
 Rotational temperatures (Kelvin)      1.04966     0.15739     0.14237
 Rotational constants (GHZ):          21.87132     3.27946     2.96650
 Zero-point vibrational energy     165817.8 (Joules/Mol)
                                   39.63141 (Kcal/Mol)
 Warning -- explicit consideration of   6 degrees of freedom as
           vibrations may cause significant error
 Vibrational temperatures:    134.24   203.49   375.30   497.40   837.23
          (Kelvin)            877.46  1070.28  1223.52  1441.70  1527.07
                             1558.38  1580.95  1715.97  1919.32  2042.30
                             2081.04  2760.88  4441.52  4446.27  4566.07
                             4586.15

 Zero-point correction=                           0.063157 (Hartree/Particle)
 Thermal correction to Energy=                    0.068877
 Thermal correction to Enthalpy=                  0.069821
 Thermal correction to Gibbs Free Energy=         0.034580
 Sum of electronic and zero-point Energies=           -192.379880
 Sum of electronic and thermal Energies=              -192.374160
 Sum of electronic and thermal Enthalpies=            -192.373216
 Sum of electronic and thermal Free Energies=         -192.408457

                     E (Thermal)             CV                S
                      KCal/Mol        Cal/Mol-Kelvin    Cal/Mol-Kelvin
 Total                   43.221             18.369             74.170
 Electronic               0.000              0.000              1.377
 Translational            0.889              2.981             38.389
 Rotational               0.889              2.981             23.450
 Vibrational             41.443             12.408             10.954
 Vibration     1          0.602              1.954              3.590
 Vibration     2          0.615              1.912              2.784
 Vibration     3          0.669              1.744              1.656
 Vibration     4          0.724              1.584              1.186
 Vibration     5          0.939              1.070              0.482
 Vibration     6          0.969              1.011              0.433

 Optimization completed.
    -- Stationary point found.
 Normal termination of Gaussian 09 at Thu Jan 31 07:12:57 2019.
