 Gaussian 09, Revision E.01,
 Gaussian 09:  EM64L-G09RevE.01 30-Nov-2015

 ---------------------------------------------
 #p b3lyp/6-311++G(3df,2p) freq symmetry=Loose
 ---------------------------------------------

 ---------
 b3lyp opt
 ---------
 Symbolic Z-matrix:
 Charge =  0 Multiplicity = 1

                         Standard orientation:
 ---------------------------------------------------------------------
 Center     Atomic      Atomic             Coordinates (Angstroms)
 Number     Number       Type             X           Y           Z
 ---------------------------------------------------------------------
      1          6           0        1.353845   -0.000022    0.001308
      2          1           0        1.975145   -0.000175   -0.891223
      3          1           0        1.966143   -0.000145    0.899526
      4          6           0        0.304382   -1.039843   -0.002207
      5          6           0        0.304430    1.039997   -0.002121
      6          6           0       -1.006281   -0.724114    0.000751
      7          1           0       -1.820668   -1.433181    0.000747
      8          6           0       -1.006338    0.724085    0.000651
      9          1           0       -1.820842    1.432879    0.000657
 ---------------------------------------------------------------------

 SCF Done:  E(RB3LYP) =  -192.774424576     A.U. after   11 cycles

 The electronic state is 1-A.
 Alpha  occ. eigenvalues --  -10.22808 -10.21243 -10.21242 -10.19287 -10.19251
 Alpha  occ. eigenvalues --   -0.90177  -0.75057  -0.69264  -0.56906  -0.51628
 Alpha  occ. eigenvalues --   -0.47918  -0.46520  -0.43879  -0.40816  -0.33647
 Alpha  occ. eigenvalues --   -0.23213  -0.22954
 Alpha virt. eigenvalues --   -0.11223  -0.04844  -0.00532   0.01269   0.02405
 Alpha virt. eigenvalues --    0.02578   0.04913   0.05227   0.05586   0.06800
 Alpha virt. eigenvalues --    0.07689   0.09373   0.11293   0.11509   0.11682

 Mulliken charges:
               1
     1  C   -0.217453
     2  H    0.187302
     3  H    0.188404
     4  C   -0.103025
     5  C   -0.103637
     6  C   -0.159331
     7  H    0.183464
     8  C   -0.159243
     9  H    0.183518
 Sum of Mulliken charges =  -0.00000

 Dipole moment (field-independent basis, Debye):
    X=              0.1824    Y=             -0.0012    Z=              0.0166  Tot=              0.1832
 Quadrupole moment (field-independent basis, Debye-Ang):
   XX=            -24.4609   YY=            -32.9635   ZZ=            -31.3808
   XY=             -0.0010   XZ=              0.0104   YZ=              0.0000

  Exact polarizability:  66.372   0.002  78.631  -0.051  -0.000  42.281
 Approx polarizability: 110.049   0.012 231.697  -0.149   0.006  61.463

                      1                      2                      3
                      A                      A                      A
 Frequencies --     71.4597               562.0011               567.9597
 Red. masses --      2.5966                 2.9403                 6.5352
 Frc consts  --      0.0078                 0.5472                 1.2421
 IR Inten    --     54.1657                18.2306               325.6906

                      4                      5                      6
                      A                      A                      A
 Frequencies --    671.5290               731.3679               776.2263
 Red. masses --      7.4974                 7.9805                 1.3235
 Frc consts  --      1.9920                 2.5151                 0.4698
 IR Inten    --     13.0378                 8.1241                 2.8002

                      7                      8                      9
                      A                      A                      A
 Frequencies --    866.2591               889.3442              1024.1181
 Red. masses --      1.4177                 1.3683                 2.0191
 Frc consts  --      0.6268                 0.6377                 1.2477
 IR Inten    --      0.0009                34.0307                 2.4105

                     10                     11                     12
                      A                      A                      A
 Frequencies --   1065.0195              1090.7494              1110.3044
 Red. masses --      3.2710                 1.1191                 1.1548
 Frc consts  --      2.1860                 0.7845                 0.8387
 IR Inten    --      0.2570                 0.0011                 0.1845

                     13                     14                     15
                      A                      A                      A
 Frequencies --   1235.9950              1344.1769              1400.7027
 Red. masses --      1.2721                 2.2353                 1.1152
 Frc consts  --      1.1450                 2.3796                 1.2891
 IR Inten    --      2.2458                 6.5990                23.4768

                     16                     17                     18
                      A                      A                      A
 Frequencies --   1551.1855              1584.1897              3093.4921
 Red. masses --      8.9687                 5.8493                 1.0578
 Frc consts  --     12.7148                 8.6490                 5.9641
 IR Inten    --      2.1688                 0.6422                 0.8316

                     19                     20                     21
                      A                      A                      A
 Frequencies --   3142.5785              3183.7036              3196.9671
 Red. masses --      1.1054                 1.0889                 1.0993
 Frc consts  --      6.4322                 6.5026                 6.6199
 IR Inten    --      0.7231                12.5733                17.7278

 - Thermochemistry -
 -------------------
 Temperature   298.150 Kelvin.  Pressure   1.00000 Atm.
 Atom     1 has atomic number  6 and mass  12.00000

 Molecular mass:    64.03130 amu.
 Principal axes and moments of inertia in atomic units:
                           1         2         3
     Eigenvalues --   158.17494 230.85894 377.49137
           X            1.00000  -0.00002   0.00009
           Y            0.00002   1.00000  -0.00000
           Z           -0.00009   0.00000   1.00000
 This molecule is an asymmetric top.
 Rotational symmetry number  1.
 Rotational temperatures (Kelvin)      0.54758     0.37518     0.22945
 Rotational constants (GHZ):          11.40978     7.81751     4.78088
 Zero-point vibrational energy     174411.5 (Joules/Mol)
                                   41.68535 (Kcal/Mol)
 Warning -- explicit consideration of   3 degrees of freedom as
           vibrations may cause significant error
 Vibrational temperatures:    102.81   808.59   817.17   966.18  1052.27
          (Kelvin)           1116.82  1246.35  1279.57  1473.48  1532.32
                             1569.34  1597.48  1778.32  1933.97  2015.30
                             2231.81  2279.29  4450.84  4521.46  4580.63
                             4599.72

 Zero-point correction=                           0.066430 (Hartree/Particle)
 Thermal correction to Energy=                    0.070993
 Thermal correction to Enthalpy=                  0.071937
 Thermal correction to Gibbs Free Energy=         0.039064
 Sum of electronic and zero-point Energies=           -192.707995
 Sum of electronic and thermal Energies=              -192.703432
 Sum of electronic and thermal Enthalpies=            -192.702488
 Sum of electronic and thermal Free Energies=         -192.735361

                     E (Thermal)             CV                S
                      KCal/Mol        Cal/Mol-Kelvin    Cal/Mol-Kelvin
 Total                   44.549             15.308             69.188
 Electronic               0.000              0.000              0.000
 Translational            0.889              2.981             38.389
 Rotational               0.889              2.981             24.137
 Vibrational             42.771              9.347              6.662
 Vibration     1          0.598              1.968              4.113
 Vibration     2          0.918              1.114              0.520
 Vibration     3          0.924              1.101              0.508

 Normal termination of Gaussian 09 at Wed Jun 22 03:07:20 2016.
