 Gaussian 09, Revision E.01,
 Gaussian 09:  EM64L-G09RevE.01 30-Nov-2015

 ---------------------------------------------
 #p b3lyp/6-311++G(3df,2p) freq symmetry=Loose
 ---------------------------------------------

 ---------
 b3lyp opt
 ---------
 Symbolic Z-matrix:
 Charge =  1 Multiplicity = 4

                         Standard orientation:
 ---------------------------------------------------------------------
 Center     Atomic      Atomic             Coordinates (Angstroms)
 Number     Number       Type             X           Y           Z
 ---------------------------------------------------------------------
      1          6           0        0.000000    1.305944    0.000000
      2          1           0        0.879510    1.959749    0.000000
      3          1           0       -0.878445    1.961255    0.000000
      4          6           0       -0.000285    0.325533    1.120040
      5          6           0       -0.000285    0.325533   -1.120040
      6          6           0        0.000077   -0.992483    0.713139
      7          1           0        0.000304   -1.876632    1.336147
      8          6           0        0.000077   -0.992483   -0.713139
      9          1           0        0.000304   -1.876632   -1.336147
 ---------------------------------------------------------------------

 SCF Done:  E(UB3LYP) =  -192.466802043     A.U. after   13 cycles

 The electronic state is 4-A'.
 Alpha  occ. eigenvalues --  -10.49411 -10.49406 -10.45526 -10.45486 -10.43214
 Alpha  occ. eigenvalues --   -1.15215  -0.98107  -0.96859  -0.80924  -0.77566
 Alpha  occ. eigenvalues --   -0.73162  -0.69800  -0.65270  -0.65183  -0.57652
 Alpha  occ. eigenvalues --   -0.54871  -0.50874  -0.49668
 Alpha virt. eigenvalues --   -0.31082  -0.20027  -0.15595  -0.12700  -0.11608
 Alpha virt. eigenvalues --   -0.11144  -0.10628  -0.10107  -0.08391  -0.07387
 Alpha virt. eigenvalues --   -0.05398  -0.04391  -0.03586  -0.03056  -0.02382

  Beta  occ. eigenvalues --  -10.46993 -10.46991 -10.45246 -10.45205 -10.43103
  Beta  occ. eigenvalues --   -1.12193  -0.96999  -0.92137  -0.79484  -0.74357
  Beta  occ. eigenvalues --   -0.69409  -0.67839  -0.64162  -0.63423  -0.55565
  Beta virt. eigenvalues --   -0.38837  -0.36860  -0.30575  -0.25601  -0.16253
  Beta virt. eigenvalues --   -0.15363  -0.12565  -0.11424  -0.10610  -0.10303
  Beta virt. eigenvalues --   -0.08969  -0.07880  -0.07318  -0.04790  -0.03429

 Mulliken charges and spin densities:
               1          2
     1  C   -0.331985  -0.091364
     2  H    0.208951   0.002730
     3  H    0.208807   0.002753
     4  C    0.234220   1.496452
     5  C    0.234220   1.496452
     6  C   -0.019978   0.034054
     7  H    0.242872   0.012435
     8  C   -0.019978   0.034054
     9  H    0.242872   0.012435
 Sum of Mulliken charges =   1.00000   3.00000

 Dipole moment (field-independent basis, Debye):
    X=              0.0007    Y=             -0.3010    Z=              0.0000  Tot=              0.3010
 Quadrupole moment (field-independent basis, Debye-Ang):
   XX=            -26.4181   YY=            -14.8159   ZZ=            -22.6795
   XY=             -0.0009   XZ=              0.0000   YZ=              0.0000

  Exact polarizability:  31.088  -0.002  55.881   0.000  -0.000  51.449
 Approx polarizability:  47.400  -0.004  89.015   0.000   0.000  88.797

                      1                      2                      3
                     A'                     A"                     A"
 Frequencies --    348.1227               502.9665               752.9645
 Red. masses --      1.6602                 2.8552                 7.6873
 Frc consts  --      0.1185                 0.4256                 2.5679
 IR Inten    --     12.4107                 0.0000                 0.2289

                      4                      5                      6
                     A'                     A'                     A'
 Frequencies --    799.9473               813.4689               879.6914
 Red. masses --      1.4471                 6.3861                 1.7750
 Frc consts  --      0.5456                 2.4898                 0.8093
 IR Inten    --     40.4609                 0.4336                 2.5368

                      7                      8                      9
                     A"                     A"                     A'
 Frequencies --    882.8150               979.9374               993.5125
 Red. masses --      2.3174                 1.4271                 3.4501
 Frc consts  --      1.0641                 0.8074                 2.0064
 IR Inten    --      5.4654                 0.0000                 9.1589

                     10                     11                     12
                     A'                     A"                     A"
 Frequencies --   1072.6605              1101.3294              1196.2801
 Red. masses --      1.9189                 1.0892                 1.3668
 Frc consts  --      1.3009                 0.7784                 1.1525
 IR Inten    --      0.8714                 0.0001                13.4311

                     13                     14                     15
                     A"                     A'                     A'
 Frequencies --   1261.7638              1300.5161              1358.8805
 Red. masses --      1.9037                 2.6461                 1.6719
 Frc consts  --      1.7857                 2.6368                 1.8189
 IR Inten    --     26.5611                 6.7459               101.7590

                     16                     17                     18
                     A'                     A"                     A'
 Frequencies --   1418.6981              1421.4562              3023.2127
 Red. masses --      2.2276                 3.5805                 1.0599
 Frc consts  --      2.6416                 4.2625                 5.7077
 IR Inten    --      0.0505                95.8117                61.7894

                     19                     20                     21
                     A'                     A"                     A'
 Frequencies --   3050.4173              3201.8794              3214.4956
 Red. masses --      1.0994                 1.0922                 1.1000
 Frc consts  --      6.0275                 6.5972                 6.6971
 IR Inten    --     28.9602                18.9635                43.5535

 - Thermochemistry -
 -------------------
 Temperature   298.150 Kelvin.  Pressure   1.00000 Atm.
 Atom     1 has atomic number  6 and mass  12.00000

 Molecular mass:    64.03130 amu.
 Principal axes and moments of inertia in atomic units:
                           1         2         3
     Eigenvalues --   169.51548 225.16459 383.55767
           X           -0.00007   0.00000   1.00000
           Y            1.00000   0.00000   0.00007
           Z            0.00000   1.00000  -0.00000
 This molecule is an asymmetric top.
 Rotational symmetry number  1.
 Rotational temperatures (Kelvin)      0.51095     0.38467     0.22582
 Rotational constants (GHZ):          10.64647     8.01521     4.70527
 Zero-point vibrational energy     176897.9 (Joules/Mol)
                                   42.27961 (Kcal/Mol)
 Warning -- explicit consideration of   2 degrees of freedom as
           vibrations may cause significant error
 Vibrational temperatures:    500.87   723.66  1083.35  1150.94  1170.40
          (Kelvin)           1265.68  1270.17  1409.91  1429.44  1543.32
                             1584.57  1721.18  1815.39  1871.15  1955.12
                             2041.19  2045.16  4349.72  4388.86  4606.78
                             4624.94

 Zero-point correction=                           0.067377 (Hartree/Particle)
 Thermal correction to Energy=                    0.071351
 Thermal correction to Enthalpy=                  0.072295
 Thermal correction to Gibbs Free Energy=         0.039698
 Sum of electronic and zero-point Energies=           -192.399425
 Sum of electronic and thermal Energies=              -192.395451
 Sum of electronic and thermal Enthalpies=            -192.394507
 Sum of electronic and thermal Free Energies=         -192.427104

                     E (Thermal)             CV                S
                      KCal/Mol        Cal/Mol-Kelvin    Cal/Mol-Kelvin
 Total                   44.773             14.057             68.605
 Electronic               0.000              0.000              2.755
 Translational            0.889              2.981             38.389
 Rotational               0.889              2.981             24.197
 Vibrational             42.996              8.096              3.264
 Vibration     1          0.726              1.579              1.175
 Vibration     2          0.858              1.243              0.651

 Optimization completed.
    -- Stationary point found.
 Normal termination of Gaussian 09 at Thu Jul 21 00:05:43 2016.
