 Gaussian 09, Revision E.01,
 Gaussian 09:  EM64L-G09RevE.01 30-Nov-2015

 ---------------------------------------------
 #p b3lyp/6-311++G(3df,2p) freq symmetry=Loose
 ---------------------------------------------

 ---------
 b3lyp opt
 ---------
 Symbolic Z-matrix:
 Charge =  3 Multiplicity = 2

                         Standard orientation:
 ---------------------------------------------------------------------
 Center     Atomic      Atomic             Coordinates (Angstroms)
 Number     Number       Type             X           Y           Z
 ---------------------------------------------------------------------
      1          6           0       -2.591270    0.001224    0.000000
      2          6           0       -1.330779    0.205234    0.000000
      3          6           0       -0.000000    0.573640    0.000000
      4          1           0       -3.688685   -0.185104    0.000000
      5          1           0        0.175074    1.701679    0.000000
      6          6           0        1.167541   -0.106439   -0.000000
      7          6           0        2.362538   -0.635410   -0.000000
      8          1           0        3.300704    0.000361   -0.000000
      9          1           0        2.564726   -1.746430   -0.000000
 ---------------------------------------------------------------------

 SCF Done:  E(UB3LYP) =  -191.193302092     A.U. after   17 cycles

 The electronic state is 2-A'.
 Alpha  occ. eigenvalues --  -10.98610 -10.97923 -10.97377 -10.96506 -10.92140
 Alpha  occ. eigenvalues --   -1.55330  -1.49755  -1.43480  -1.31134  -1.19481
 Alpha  occ. eigenvalues --   -1.17961  -1.16103  -1.09365  -1.06459  -1.02210
 Alpha  occ. eigenvalues --   -0.98861
 Alpha virt. eigenvalues --   -0.82672  -0.79203  -0.70316  -0.66928  -0.56128
 Alpha virt. eigenvalues --   -0.53348  -0.48875  -0.46197  -0.45374  -0.42171
 Alpha virt. eigenvalues --   -0.41981  -0.40335  -0.39678  -0.38675  -0.37565

  Beta  occ. eigenvalues --  -10.97876 -10.97710 -10.97424 -10.95719 -10.92181
  Beta  occ. eigenvalues --   -1.54387  -1.47511  -1.42291  -1.30384  -1.18458
  Beta  occ. eigenvalues --   -1.17139  -1.15815  -1.09203  -1.06187  -0.98077
  Beta virt. eigenvalues --   -0.88032  -0.82450  -0.78981  -0.66415  -0.63932
  Beta virt. eigenvalues --   -0.55736  -0.52482  -0.47683  -0.45920  -0.45128
  Beta virt. eigenvalues --   -0.41961  -0.41688  -0.40202  -0.39680  -0.38123

 Mulliken charges and spin densities:
               1          2
     1  C    0.513489   0.495423
     2  C    0.254650   0.505558
     3  C    0.118795   0.077091
     4  H    0.491711  -0.015042
     5  H    0.320006   0.027995
     6  C    0.770174  -0.045944
     7  C   -0.232908  -0.046298
     8  H    0.389182   0.000969
     9  H    0.374901   0.000249
 Sum of Mulliken charges =   3.00000   1.00000

 Dipole moment (field-independent basis, Debye):
    X=             -0.1451    Y=             -0.4536    Z=             -0.0000  Tot=              0.4762
 Quadrupole moment (field-independent basis, Debye-Ang):
   XX=             57.7854   YY=            -11.1827   ZZ=            -23.8996
   XY=             -7.9462   XZ=             -0.0000   YZ=              0.0000

  Exact polarizability: 108.220 -10.227  33.664   0.000   0.000  22.842
 Approx polarizability: 219.104 -23.267  54.898  -0.000   0.000  31.692

                      1                      2                      3
                     A'                     A"                     A"
 Frequencies --    151.9409               232.4794               295.3750
 Red. masses --      3.2550                 1.9754                 4.9656
 Frc consts  --      0.0443                 0.0629                 0.2553
 IR Inten    --     16.1517                56.7391                 0.4741

                      4                      5                      6
                     A'                     A'                     A"
 Frequencies --    331.7831               474.7869               563.1358
 Red. masses --      2.2770                 2.5204                 1.5540
 Frc consts  --      0.1477                 0.3348                 0.2903
 IR Inten    --      5.1458                18.8789                11.0972

                      7                      8                      9
                     A'                     A'                     A"
 Frequencies --    716.1611               736.2416               796.0113
 Red. masses --      2.7426                 1.3788                 1.3032
 Frc consts  --      0.8288                 0.4403                 0.4865
 IR Inten    --      1.4440                14.3213                22.9686

                     10                     11                     12
                     A"                     A'                     A"
 Frequencies --    830.8207               875.7844               960.9805
 Red. masses --      1.4712                 4.1919                 1.3699
 Frc consts  --      0.5983                 1.8943                 0.7454
 IR Inten    --     12.5162                10.4367                42.4812

                     13                     14                     15
                     A'                     A'                     A'
 Frequencies --   1035.8021              1168.1465              1306.2681
 Red. masses --      1.3622                 1.1117                 4.2266
 Frc consts  --      0.8611                 0.8938                 4.2492
 IR Inten    --      1.5865               198.6623                63.6312

                     16                     17                     18
                     A'                     A'                     A'
 Frequencies --   1669.7256              1871.3989              2606.4692
 Red. masses --      8.5737                 6.0347                 1.0714
 Frc consts  --     14.0834                12.4519                 4.2887
 IR Inten    --    495.4251               793.4490               567.4448

                     19                     20                     21
                     A'                     A'                     A'
 Frequencies --   2699.4552              2740.3056              2977.4694
 Red. masses --      1.0681                 1.0951                 1.1727
 Frc consts  --      4.5857                 4.8452                 6.1256
 IR Inten    --    940.6537               481.8070               499.1876

 - Thermochemistry -
 -------------------
 Temperature   298.150 Kelvin.  Pressure   1.00000 Atm.
 Atom     1 has atomic number  6 and mass  12.00000

 Molecular mass:    64.03130 amu.
 Principal axes and moments of inertia in atomic units:
                           1         2         3
     Eigenvalues --    43.09184 785.01546 828.10730
           X            0.99180   0.12782   0.00000
           Y           -0.12782   0.99180   0.00000
           Z            0.00000  -0.00000   1.00000
 This molecule is an asymmetric top.
 Rotational symmetry number  1.
 Rotational temperatures (Kelvin)      2.00998     0.11033     0.10459
 Rotational constants (GHZ):          41.88128     2.29899     2.17936
 Zero-point vibrational energy     149775.7 (Joules/Mol)
                                   35.79725 (Kcal/Mol)
 Warning -- explicit consideration of   6 degrees of freedom as
           vibrations may cause significant error
 Vibrational temperatures:    218.61   334.49   424.98   477.36   683.11
          (Kelvin)            810.23  1030.39  1059.29  1145.28  1195.36
                             1260.06  1382.63  1490.29  1680.70  1879.43
                             2402.36  2692.52  3750.12  3883.91  3942.68
                             4283.91

 Zero-point correction=                           0.057047 (Hartree/Particle)
 Thermal correction to Energy=                    0.062786
 Thermal correction to Enthalpy=                  0.063730
 Thermal correction to Gibbs Free Energy=         0.028368
 Sum of electronic and zero-point Energies=           -191.136256
 Sum of electronic and thermal Energies=              -191.130516
 Sum of electronic and thermal Enthalpies=            -191.129572
 Sum of electronic and thermal Free Energies=         -191.164934

                     E (Thermal)             CV                S
                      KCal/Mol        Cal/Mol-Kelvin    Cal/Mol-Kelvin
 Total                   39.399             19.914             74.426
 Electronic               0.000              0.000              1.377
 Translational            0.889              2.981             38.389
 Rotational               0.889              2.981             24.841
 Vibrational             37.621             13.952              9.818
 Vibration     1          0.619              1.901              2.648
 Vibration     2          0.653              1.791              1.860
 Vibration     3          0.690              1.682              1.443
 Vibration     4          0.714              1.612              1.251
 Vibration     5          0.832              1.306              0.724
 Vibration     6          0.919              1.111              0.518

 Optimization completed.
    -- Stationary point found.
 Normal termination of Gaussian 09 at Wed Jul 20 02:04:07 2016.
