 Gaussian 09, Revision E.01,
 Gaussian 09:  EM64L-G09RevE.01 30-Nov-2015

 ---------------------------------------------
 #p b3lyp/6-311++G(3df,2p) freq symmetry=Loose
 ---------------------------------------------

 ---------
 b3lyp opt
 ---------
 Symbolic Z-matrix:
 Charge =  3 Multiplicity = 4

                         Standard orientation:
 ---------------------------------------------------------------------
 Center     Atomic      Atomic             Coordinates (Angstroms)
 Number     Number       Type             X           Y           Z
 ---------------------------------------------------------------------
      1          6           0       -0.756646   -0.058029    0.274762
      2          6           0        0.350618   -1.037113   -0.145503
      3          6           0        1.437612   -0.102974   -0.037795
      4          1           0       -0.984294   -0.158658    1.401236
      5          1           0        2.263545   -0.059554   -0.851729
      6          1           0        2.278812   -0.237858    0.755856
      7          6           0       -2.114085   -0.008210   -0.278951
      8          6           0        0.420354    0.946765    0.020648
      9          1           0        0.414826    2.013436   -0.304335
 ---------------------------------------------------------------------

 SCF Done:  E(UB3LYP) =  -190.915635129     A.U. after   23 cycles

 The electronic state is 4-A.
 Alpha  occ. eigenvalues --  -11.09485 -11.04897 -11.01753 -10.98940 -10.92037
 Alpha  occ. eigenvalues --   -1.65141  -1.50030  -1.36054  -1.34375  -1.23010
 Alpha  occ. eigenvalues --   -1.18324  -1.15644  -1.14664  -1.11758  -1.07819
 Alpha  occ. eigenvalues --   -1.01390  -0.97478
 Alpha virt. eigenvalues --   -0.85958  -0.83242  -0.82241  -0.57206  -0.54389
 Alpha virt. eigenvalues --   -0.52832  -0.50832  -0.49137  -0.46665  -0.45509
 Alpha virt. eigenvalues --   -0.44438  -0.43636  -0.41671  -0.40867  -0.38529

  Beta  occ. eigenvalues --  -11.05797 -11.02996 -11.01353 -10.98583 -10.91941
  Beta  occ. eigenvalues --   -1.63461  -1.46511  -1.33642  -1.31380  -1.20972
  Beta  occ. eigenvalues --   -1.14933  -1.13470  -1.12885  -1.09229
  Beta virt. eigenvalues --   -0.88785  -0.84236  -0.81344  -0.80705  -0.79399
  Beta virt. eigenvalues --   -0.76278  -0.54331  -0.53043  -0.51998  -0.50008
  Beta virt. eigenvalues --   -0.48489  -0.45157  -0.44727  -0.43947  -0.41901

 Mulliken charges and spin densities:
               1          2
     1  C    0.333181   0.082991
     2  C    0.491569   0.970637
     3  C   -0.022175  -0.005299
     4  H    0.355274  -0.008811
     5  H    0.338250   0.003116
     6  H    0.356505  -0.014112
     7  C    0.449001   1.747319
     8  C    0.314214   0.188546
     9  H    0.384182   0.035613
 Sum of Mulliken charges =   3.00000   3.00000

 Dipole moment (field-independent basis, Debye):
    X=             -0.1246    Y=              0.9280    Z=              0.3368  Tot=              0.9950
 Quadrupole moment (field-independent basis, Debye-Ang):
   XX=             16.5561   YY=            -12.5326   ZZ=            -15.9811
   XY=              0.0562   XZ=             -0.1491   YZ=             -1.2314

  Exact polarizability:  61.095  -0.192  36.523   0.265  -0.132  29.031
 Approx polarizability: 104.916   0.018  66.519   2.043   1.396  47.903

                      1                      2                      3
                      A                      A                      A
 Frequencies --    227.9321               351.3760               401.9010
 Red. masses --      2.1061                 4.6899                 2.6193
 Frc consts  --      0.0645                 0.3412                 0.2493
 IR Inten    --     25.8018                 2.3306                18.8879

                      4                      5                      6
                      A                      A                      A
 Frequencies --    477.3426               663.8600               694.2895
 Red. masses --      1.4874                 5.8388                 1.5669
 Frc consts  --      0.1997                 1.5161                 0.4450
 IR Inten    --     83.1076                29.6804                20.6487

                      7                      8                      9
                      A                      A                      A
 Frequencies --    744.8220               747.1530               800.5857
 Red. masses --      2.3887                 1.2962                 1.7593
 Frc consts  --      0.7808                 0.4263                 0.6644
 IR Inten    --    217.2814                84.8433               261.7085

                     10                     11                     12
                      A                      A                      A
 Frequencies --    851.8843               881.8772               943.6247
 Red. masses --      2.3231                 1.4328                 2.1912
 Frc consts  --      0.9933                 0.6565                 1.1496
 IR Inten    --     48.8119                 3.4682                 6.4626

                     13                     14                     15
                      A                      A                      A
 Frequencies --   1048.9169              1062.1853              1129.7636
 Red. masses --      1.6807                 1.5316                 2.3134
 Frc consts  --      1.0895                 1.0181                 1.7397
 IR Inten    --     15.8513                12.7743                16.8751

                     16                     17                     18
                      A                      A                      A
 Frequencies --   1141.9384              1247.3407              2353.6242
 Red. masses --      2.4782                 2.8184                 1.0697
 Frc consts  --      1.9040                 2.5836                 3.4912
 IR Inten    --    137.1984                 9.3213               411.7179

                     19                     20                     21
                      A                      A                      A
 Frequencies --   2485.1313              2539.3092              2902.7571
 Red. masses --      1.0752                 1.0863                 1.1015
 Frc consts  --      3.9124                 4.1269                 5.4682
 IR Inten    --   1133.8729               597.7575               316.1048

 - Thermochemistry -
 -------------------
 Temperature   298.150 Kelvin.  Pressure   1.00000 Atm.
 Atom     1 has atomic number  6 and mass  12.00000

 Molecular mass:    64.03130 amu.
 Principal axes and moments of inertia in atomic units:
                           1         2         3
     Eigenvalues --   119.32960 377.26842 457.94283
           X            0.99984   0.00469  -0.01742
           Y           -0.00541   0.99912  -0.04162
           Z            0.01721   0.04171   0.99898
 This molecule is an asymmetric top.
 Rotational symmetry number  1.
 Rotational temperatures (Kelvin)      0.72584     0.22958     0.18914
 Rotational constants (GHZ):          15.12400     4.78371     3.94097
 Zero-point vibrational energy     141743.2 (Joules/Mol)
                                   33.87744 (Kcal/Mol)
 Warning -- explicit consideration of   4 degrees of freedom as
           vibrations may cause significant error
 Vibrational temperatures:    327.94   505.55   578.25   686.79   955.15
          (Kelvin)            998.93  1071.63  1074.99  1151.86  1225.67
                             1268.82  1357.66  1509.16  1528.25  1625.48
                             1642.99  1794.64  3386.34  3575.55  3653.50
                             4176.41

 Zero-point correction=                           0.053987 (Hartree/Particle)
 Thermal correction to Energy=                    0.059044
 Thermal correction to Enthalpy=                  0.059988
 Thermal correction to Gibbs Free Energy=         0.025531
 Sum of electronic and zero-point Energies=           -190.861648
 Sum of electronic and thermal Energies=              -190.856591
 Sum of electronic and thermal Enthalpies=            -190.855647
 Sum of electronic and thermal Free Energies=         -190.890104

                     E (Thermal)             CV                S
                      KCal/Mol        Cal/Mol-Kelvin    Cal/Mol-Kelvin
 Total                   37.051             18.838             72.521
 Electronic               0.000              0.000              2.755
 Translational            0.889              2.981             38.389
 Rotational               0.889              2.981             24.537
 Vibrational             35.273             12.877              6.840
 Vibration     1          0.651              1.798              1.895
 Vibration     2          0.728              1.572              1.160
 Vibration     3          0.768              1.466              0.956
 Vibration     4          0.834              1.300              0.717

 Optimization completed.
    -- Stationary point found.
 Normal termination of Gaussian 09 at Mon Jun 20 12:56:59 2016.
