 Gaussian 09, Revision E.01,
 Gaussian 09:  EM64L-G09RevE.01 30-Nov-2015

 ---------------------------------------------
 #p b3lyp/6-311++G(3df,2p) freq symmetry=Loose
 ---------------------------------------------

 ---------
 b3lyp opt
 ---------
 Symbolic Z-matrix:
 Charge =  3 Multiplicity = 2

                         Standard orientation:
 ---------------------------------------------------------------------
 Center     Atomic      Atomic             Coordinates (Angstroms)
 Number     Number       Type             X           Y           Z
 ---------------------------------------------------------------------
      1          6           0        1.385333    1.297016   -0.217601
      2          6           0       -1.880764    0.120883   -0.338134
      3          1           0       -2.799889    0.554477    0.129078
      4          1           0       -1.945893   -0.082970   -1.426699
      5          6           0       -0.795516   -0.149686    0.511838
      6          1           0       -0.994098   -0.654582    1.480490
      7          6           0        0.766511    0.016125    0.243567
      8          1           0        1.343763   -0.089273    1.255213
      9          6           0        1.257122   -1.238946   -0.439350
 ---------------------------------------------------------------------

 SCF Done:  E(UB3LYP) =  -190.914391333     A.U. after   32 cycles

 The electronic state is 2-A.
 Alpha  occ. eigenvalues --  -11.09815 -11.09278 -10.97124 -10.96819 -10.93701
 Alpha  occ. eigenvalues --   -1.58055  -1.47590  -1.37772  -1.30339  -1.19913
 Alpha  occ. eigenvalues --   -1.17961  -1.12099  -1.09001  -1.04828  -1.02818
 Alpha  occ. eigenvalues --   -0.97567
 Alpha virt. eigenvalues --   -0.85768  -0.84765  -0.82985  -0.81839  -0.75063
 Alpha virt. eigenvalues --   -0.56399  -0.52780  -0.48601  -0.47871  -0.46585
 Alpha virt. eigenvalues --   -0.44619  -0.42772  -0.41883  -0.41150  -0.39663

  Beta  occ. eigenvalues --  -11.09637 -11.09068 -10.96859 -10.96293 -10.93310
  Beta  occ. eigenvalues --   -1.57332  -1.45389  -1.36973  -1.29031  -1.19591
  Beta  occ. eigenvalues --   -1.16895  -1.11339  -1.07757  -1.04746  -1.02384
  Beta virt. eigenvalues --   -0.87183  -0.85061  -0.83321  -0.81917  -0.80243
  Beta virt. eigenvalues --   -0.71053  -0.56269  -0.51195  -0.48151  -0.47573
  Beta virt. eigenvalues --   -0.46246  -0.44064  -0.42263  -0.41402  -0.40844

 Mulliken charges and spin densities:
               1          2
     1  C    0.544402   0.095174
     2  C    0.040783   0.224807
     3  H    0.326399   0.011165
     4  H    0.328558   0.012676
     5  C    0.319968   0.534752
     6  H    0.335740  -0.001223
     7  C    0.260171   0.004646
     8  H    0.329358   0.002235
     9  C    0.514621   0.115767
 Sum of Mulliken charges =   3.00000   1.00000

 Dipole moment (field-independent basis, Debye):
    X=             -0.3115    Y=              0.1939    Z=              0.3887  Tot=              0.5345
 Quadrupole moment (field-independent basis, Debye-Ang):
   XX=             14.4046   YY=            -13.5158   ZZ=            -13.3519
   XY=             -0.6704   XZ=              2.2587   YZ=             -0.8649

  Exact polarizability:  81.212  -4.094  47.503  -2.613   0.697  37.123
 Approx polarizability: 130.687 -15.205 102.078  -7.901   5.480  63.120

                      1                      2                      3
                      A                      A                      A
 Frequencies --    119.3537               214.3245               249.8735
 Red. masses --      3.0742                 4.5958                 3.9058
 Frc consts  --      0.0258                 0.1244                 0.1437
 IR Inten    --      1.0934                32.0173                13.0665

                      4                      5                      6
                      A                      A                      A
 Frequencies --    346.1232               382.7356               475.3313
 Red. masses --      5.5615                 1.2665                 4.0893
 Frc consts  --      0.3926                 0.1093                 0.5444
 IR Inten    --      1.3426               111.6216                 6.8120

                      7                      8                      9
                      A                      A                      A
 Frequencies --    612.3667               706.4270               713.7012
 Red. masses --      4.8525                 1.3993                 1.3213
 Frc consts  --      1.0721                 0.4114                 0.3965
 IR Inten    --     53.2067               122.1136                 6.7485

                     10                     11                     12
                      A                      A                      A
 Frequencies --    807.2983               905.4922               959.8879
 Red. masses --      3.6518                 1.5750                 1.7095
 Frc consts  --      1.4023                 0.7608                 0.9280
 IR Inten    --    132.2131                22.6427               123.3860

                     13                     14                     15
                      A                      A                      A
 Frequencies --   1052.0268              1098.2237              1188.0524
 Red. masses --      1.4431                 1.8842                 2.5535
 Frc consts  --      0.9410                 1.3389                 2.1235
 IR Inten    --     84.5679               212.8660                57.5318

                     16                     17                     18
                      A                      A                      A
 Frequencies --   1290.8178              1334.5969              2390.4047
 Red. masses --      1.3822                 1.1099                 1.0722
 Frc consts  --      1.3569                 1.1647                 3.6096
 IR Inten    --     34.7804                74.2637               438.3765

                     19                     20                     21
                      A                      A                      A
 Frequencies --   2815.2163              2909.8913              2948.8571
 Red. masses --      1.0559                 1.0877                 1.1086
 Frc consts  --      4.9304                 5.4262                 5.6797
 IR Inten    --    633.3771               252.3924               232.3985

 - Thermochemistry -
 -------------------
 Temperature   298.150 Kelvin.  Pressure   1.00000 Atm.
 Atom     1 has atomic number  6 and mass  12.00000

 Molecular mass:    64.03130 amu.
 Principal axes and moments of inertia in atomic units:
                           1         2         3
     Eigenvalues --   191.70461 454.39633 547.18217
           X            0.99962  -0.01015   0.02552
           Y            0.01104   0.99932  -0.03508
           Z           -0.02515   0.03535   0.99906
 This molecule is an asymmetric top.
 Rotational symmetry number  1.
 Rotational temperatures (Kelvin)      0.45181     0.19061     0.15829
 Rotational constants (GHZ):           9.41418     3.97173     3.29825
 Zero-point vibrational energy     140686.8 (Joules/Mol)
                                   33.62496 (Kcal/Mol)
 Warning -- explicit consideration of   7 degrees of freedom as
           vibrations may cause significant error
 Vibrational temperatures:    171.72   308.36   359.51   497.99   550.67
          (Kelvin)            683.89   881.06  1016.39  1026.86  1161.52
                             1302.80  1381.06  1513.63  1580.10  1709.34
                             1857.20  1920.18  3439.25  4050.46  4186.68
                             4242.74

 Zero-point correction=                           0.053585 (Hartree/Particle)
 Thermal correction to Energy=                    0.059713
 Thermal correction to Enthalpy=                  0.060657
 Thermal correction to Gibbs Free Energy=         0.024253
 Sum of electronic and zero-point Energies=           -190.860807
 Sum of electronic and thermal Energies=              -190.854678
 Sum of electronic and thermal Enthalpies=            -190.853734
 Sum of electronic and thermal Free Energies=         -190.890139

                     E (Thermal)             CV                S
                      KCal/Mol        Cal/Mol-Kelvin    Cal/Mol-Kelvin
 Total                   37.471             21.158             76.620
 Electronic               0.000              0.000              1.377
 Translational            0.889              2.981             38.389
 Rotational               0.889              2.981             25.370
 Vibrational             35.693             15.197             11.484
 Vibration     1          0.609              1.933              3.111
 Vibration     2          0.644              1.819              2.007
 Vibration     3          0.663              1.763              1.731
 Vibration     4          0.724              1.583              1.184
 Vibration     5          0.752              1.507              1.028
 Vibration     6          0.832              1.305              0.723
 Vibration     7          0.972              1.006              0.429

 Optimization completed.
    -- Stationary point found.
 Normal termination of Gaussian 09 at Mon Jun 20 10:31:46 2016.
