 Gaussian 09, Revision E.01,
 Gaussian 09:  EM64L-G09RevE.01 30-Nov-2015

 ---------------------------------------------
 #p b3lyp/6-311++G(3df,2p) freq symmetry=Loose
 ---------------------------------------------

 ---------
 b3lyp opt
 ---------
 Symbolic Z-matrix:
 Charge =  0 Multiplicity = 3

                         Standard orientation:
 ---------------------------------------------------------------------
 Center     Atomic      Atomic             Coordinates (Angstroms)
 Number     Number       Type             X           Y           Z
 ---------------------------------------------------------------------
      1          6           0       -1.457327   -1.816956    0.000000
      2          1           0       -0.640073   -2.524079    0.000000
      3          1           0       -2.464050   -2.208595    0.000000
      4          6           0       -1.235685   -0.473294    0.000000
      5          1           0       -2.101663    0.188604    0.000000
      6          6           0        0.000000    0.133522    0.000000
      7          6           0        1.025651    0.912026   -0.000000
      8          6           0        2.048962    1.628618   -0.000000
      9          1           0        2.916184    2.240567   -0.000000
 ---------------------------------------------------------------------

 SCF Done:  E(UB3LYP) =  -192.825388165     A.U. after   17 cycles

 The electronic state is 3-A".
 Alpha  occ. eigenvalues --  -10.21202 -10.20580 -10.20339 -10.19545 -10.19172
 Alpha  occ. eigenvalues --   -0.83281  -0.78507  -0.70948  -0.62303  -0.53960
 Alpha  occ. eigenvalues --   -0.51423  -0.46316  -0.40059  -0.38037  -0.35170
 Alpha  occ. eigenvalues --   -0.30955  -0.21687  -0.20976
 Alpha virt. eigenvalues --   -0.02424  -0.00585   0.00553   0.01693   0.02861
 Alpha virt. eigenvalues --    0.04805   0.05538   0.06210   0.06821   0.08093
 Alpha virt. eigenvalues --    0.09047   0.09186   0.09207   0.10512   0.11982

  Beta  occ. eigenvalues --  -10.20939 -10.20159 -10.19518 -10.18832 -10.18443
  Beta  occ. eigenvalues --   -0.81469  -0.77262  -0.67344  -0.61011  -0.52725
  Beta  occ. eigenvalues --   -0.50665  -0.45383  -0.39268  -0.35383  -0.32032
  Beta  occ. eigenvalues --   -0.28587
  Beta virt. eigenvalues --   -0.10441  -0.09404  -0.00587  -0.00421   0.00699
  Beta virt. eigenvalues --    0.01755   0.02940   0.05226   0.05661   0.06311
  Beta virt. eigenvalues --    0.07335   0.08681   0.09311   0.10108   0.10291

 Mulliken charges and spin densities:
               1          2
     1  C   -0.601509   0.514848
     2  H    0.156233  -0.012772
     3  H    0.182833  -0.013796
     4  C    0.192592  -0.246795
     5  H    0.144513   0.050453
     6  C   -0.174698   1.015952
     7  C   -0.509810  -0.264170
     8  C    0.287535   0.986420
     9  H    0.322311  -0.030139
 Sum of Mulliken charges =  -0.00000   2.00000

 Dipole moment (field-independent basis, Debye):
    X=             -0.3626    Y=             -0.1121    Z=              0.0000  Tot=              0.3795
 Quadrupole moment (field-independent basis, Debye-Ang):
   XX=            -24.2377   YY=            -26.8212   ZZ=            -32.6500
   XY=              3.5262   XZ=              0.0000   YZ=             -0.0000

  Exact polarizability:  96.112  44.618  87.026  -0.000  -0.000  39.442
 Approx polarizability: 152.785  77.506 136.357  -0.000  -0.000  54.616

                      1                      2                      3
                     A'                     A"                     A'
 Frequencies --     69.2175               152.0286               220.9711
 Red. masses --      4.0443                 3.4320                 1.3727
 Frc consts  --      0.0114                 0.0467                 0.0395
 IR Inten    --      2.9522                 5.0529                48.2252

                      4                      5                      6
                     A"                     A'                     A"
 Frequencies --    384.8267               389.1925               440.1327
 Red. masses --      1.5333                 3.8593                 3.0367
 Frc consts  --      0.1338                 0.3444                 0.3466
 IR Inten    --     43.1425                 5.4190                 5.0467

                      7                      8                      9
                     A'                     A"                     A'
 Frequencies --    459.1017               618.9190               789.0093
 Red. masses --      3.6496                 1.5725                 3.3096
 Frc consts  --      0.4532                 0.3549                 1.2139
 IR Inten    --      0.4565                 4.9746                 1.1448

                     10                     11                     12
                     A"                     A"                     A'
 Frequencies --    878.2106               940.0027              1066.0074
 Red. masses --      1.3079                 1.2080                 1.4425
 Frc consts  --      0.5943                 0.6289                 0.9658
 IR Inten    --     47.9728                10.9696                 0.3658

                     13                     14                     15
                     A'                     A'                     A'
 Frequencies --   1266.1801              1378.3175              1520.4476
 Red. masses --      1.7991                 1.5473                 1.5222
 Frc consts  --      1.6994                 1.7319                 2.0733
 IR Inten    --      0.9957                 5.2783                14.2373

                     16                     17                     18
                     A'                     A'                     A'
 Frequencies --   1576.2877              1800.2944              3072.2161
 Red. masses --      8.1365                 8.5078                 1.0839
 Frc consts  --     11.9113                16.2463                 6.0277
 IR Inten    --      0.0675                 0.8420                10.3581

                     19                     20                     21
                     A'                     A'                     A'
 Frequencies --   3147.7638              3242.5692              3445.4414
 Red. masses --      1.0555                 1.1181                 1.1195
 Frc consts  --      6.1621                 6.9267                 7.8301
 IR Inten    --      3.1384                 4.7777               102.4504

 - Thermochemistry -
 -------------------
 Temperature   298.150 Kelvin.  Pressure   1.00000 Atm.
 Atom     1 has atomic number  6 and mass  12.00000

 Molecular mass:    64.03130 amu.
 Principal axes and moments of inertia in atomic units:
                           1         2         3
     Eigenvalues --    33.61153 776.88991 810.50144
           X            0.74934  -0.66218   0.00000
           Y            0.66218   0.74934   0.00000
           Z           -0.00000   0.00000   1.00000
 This molecule is an asymmetric top.
 Rotational symmetry number  1.
 Rotational temperatures (Kelvin)      2.57691     0.11149     0.10686
 Rotational constants (GHZ):          53.69411     2.32303     2.22670
 Zero-point vibrational energy     160641.4 (Joules/Mol)
                                   38.39421 (Kcal/Mol)
 Warning -- explicit consideration of   8 degrees of freedom as
           vibrations may cause significant error
 Vibrational temperatures:     99.59   218.73   317.93   553.68   559.96
          (Kelvin)            633.25   660.54   890.49  1135.21  1263.55
                             1352.45  1533.74  1821.75  1983.09  2187.58
                             2267.92  2590.22  4420.23  4528.92  4665.33
                             4957.22

 Zero-point correction=                           0.061185 (Hartree/Particle)
 Thermal correction to Energy=                    0.067550
 Thermal correction to Enthalpy=                  0.068494
 Thermal correction to Gibbs Free Energy=         0.031159
 Sum of electronic and zero-point Energies=           -192.764203
 Sum of electronic and thermal Energies=              -192.757839
 Sum of electronic and thermal Enthalpies=            -192.756894
 Sum of electronic and thermal Free Energies=         -192.794229

                     E (Thermal)             CV                S
                      KCal/Mol        Cal/Mol-Kelvin    Cal/Mol-Kelvin
 Total                   42.388             20.741             78.578
 Electronic               0.000              0.000              2.183
 Translational            0.889              2.981             38.389
 Rotational               0.889              2.981             24.563
 Vibrational             40.611             14.779             13.443
 Vibration     1          0.598              1.969              4.175
 Vibration     2          0.619              1.900              2.647
 Vibration     3          0.648              1.809              1.951
 Vibration     4          0.754              1.503              1.020
 Vibration     5          0.757              1.493              1.003
 Vibration     6          0.800              1.383              0.826
 Vibration     7          0.817              1.341              0.769
 Vibration     8          0.979              0.992              0.418

 Optimization completed.
    -- Stationary point found.
 Normal termination of Gaussian 09 at Mon Jun 20 03:01:06 2016.
