 Gaussian 09, Revision E.01,
 Gaussian 09:  EM64L-G09RevE.01 30-Nov-2015

 ------------------------------------------------------
 #p b3lyp/6-311++G(3df,2p) freq IOp(2/17=3) IOp(2/18=3)
 ------------------------------------------------------

 ---------
 b3lyp opt
 ---------
 Symbolic Z-matrix:
 Charge =  3 Multiplicity = 4

                         Standard orientation:
 ---------------------------------------------------------------------
 Center     Atomic      Atomic             Coordinates (Angstroms)
 Number     Number       Type             X           Y           Z
 ---------------------------------------------------------------------
      1          6           0        0.567385   -0.832678    0.000000
      2          1           0        1.106749   -1.614057    0.734807
      3          1           0        1.106749   -1.614057   -0.734807
      4          6           0        1.214991    0.565890    0.000000
      5          1           0        2.288224    0.865854    0.000000
      6          6           0        0.000000    1.132399    0.000000
      7          6           0       -1.299707    0.594447    0.000000
      8          6           0       -0.957017   -0.790546    0.000000
      9          1           0       -1.655890   -1.654824    0.000000
 ---------------------------------------------------------------------

 SCF Done:  E(UB3LYP) =  -190.983211723     A.U. after   16 cycles

 The electronic state is 4-A'.
 Alpha  occ. eigenvalues --  -11.10165 -11.05111 -11.00717 -11.00386 -11.00291
 Alpha  occ. eigenvalues --   -1.69409  -1.52380  -1.47655  -1.33865  -1.26292
 Alpha  occ. eigenvalues --   -1.23291  -1.19086  -1.17767  -1.13741  -1.08222
 Alpha  occ. eigenvalues --   -1.05915  -1.01461
 Alpha virt. eigenvalues --   -0.88669  -0.80398  -0.71587  -0.57151  -0.56432
 Alpha virt. eigenvalues --   -0.56110  -0.55512  -0.51025  -0.49348  -0.46874
 Alpha virt. eigenvalues --   -0.43093  -0.42580  -0.41818  -0.40526  -0.39681

  Beta  occ. eigenvalues --  -11.09291 -11.02451 -11.00240 -10.99767 -10.99733
  Beta  occ. eigenvalues --   -1.66062  -1.48916  -1.44355  -1.31195  -1.24034
  Beta  occ. eigenvalues --   -1.21662  -1.15786  -1.12557  -1.11918
  Beta virt. eigenvalues --   -0.96062  -0.89391  -0.89383  -0.82503  -0.74025
  Beta virt. eigenvalues --   -0.63492  -0.55872  -0.54813  -0.53170  -0.53071
  Beta virt. eigenvalues --   -0.49997  -0.48314  -0.45504  -0.42744  -0.41660

 Mulliken charges and spin densities:
               1          2
     1  C   -0.136590   0.301772
     2  H    0.342840   0.124412
     3  H    0.342840   0.124412
     4  C    0.231825   0.314749
     5  H    0.408373  -0.003504
     6  C    0.866602   0.392163
     7  C    0.445361   1.393858
     8  C    0.144058   0.347067
     9  H    0.354692   0.005070
 Sum of Mulliken charges =   3.00000   3.00000

 Dipole moment (field-independent basis, Debye):
    X=              2.1547    Y=             -1.8538    Z=             -0.0000  Tot=              2.8424
 Quadrupole moment (field-independent basis, Debye-Ang):
   XX=              2.7406   YY=              0.8345   ZZ=            -20.9818
   XY=              0.0222   XZ=             -0.0000   YZ=              0.0000

  Exact polarizability:  49.835  -1.605  49.837   0.000  -0.000  23.892
 Approx polarizability:  96.289 -12.812 110.053   0.000  -0.000  36.861

                      1                      2                      3
                     A"                     A'                     A"
 Frequencies --    184.3536               335.5369               387.0521
 Red. masses --      2.2351                 1.6096                 2.9662
 Frc consts  --      0.0448                 0.1068                 0.2618
 IR Inten    --      4.7628               202.7075                17.9834

                      4                      5                      6
                     A"                     A'                     A'
 Frequencies --    566.7637               612.6749               647.8855
 Red. masses --      1.5616                 7.6867                 2.9117
 Frc consts  --      0.2956                 1.7000                 0.7201
 IR Inten    --    102.7655                44.1133               323.9133

                      7                      8                      9
                     A"                     A'                     A"
 Frequencies --    699.6096               774.5167               828.7843
 Red. masses --      1.0565                 2.6831                 1.4128
 Frc consts  --      0.3047                 0.9483                 0.5717
 IR Inten    --      2.9288                 8.1078                10.3543

                     10                     11                     12
                     A'                     A"                     A'
 Frequencies --    858.3728               873.1229              1037.8735
 Red. masses --      1.6025                 1.4804                 2.8821
 Frc consts  --      0.6957                 0.6650                 1.8292
 IR Inten    --      1.9668                 0.2217                48.4867

                     13                     14                     15
                     A'                     A'                     A'
 Frequencies --   1066.0185              1113.2894              1174.4839
 Red. masses --      2.3351                 1.5823                 1.6041
 Frc consts  --      1.5635                 1.1554                 1.3037
 IR Inten    --     83.2371                46.4421               115.5630

                     16                     17                     18
                     A'                     A'                     A"
 Frequencies --   1259.8387              1496.7647              1924.6672
 Red. masses --      3.4952                 7.3953                 1.0465
 Frc consts  --      3.2685                 9.7615                 2.2840
 IR Inten    --    101.8273                21.3462               436.8848

                     19                     20                     21
                     A'                     A'                     A'
 Frequencies --   2289.0720              2893.3151              2923.6106
 Red. masses --      1.1165                 1.1063                 1.1022
 Frc consts  --      3.4470                 5.4565                 5.5505
 IR Inten    --   1040.8956               785.2658               168.4165

 - Thermochemistry -
 -------------------
 Temperature   298.150 Kelvin.  Pressure   1.00000 Atm.
 Atom     1 has atomic number  6 and mass  12.00000

 Molecular mass:    64.03130 amu.
 Principal axes and moments of inertia in atomic units:
                           1         2         3
     Eigenvalues --   171.57507 232.70445 396.50650
           X            0.97480  -0.22307   0.00000
           Y            0.22307   0.97480   0.00000
           Z            0.00000  -0.00000   1.00000
 This molecule is an asymmetric top.
 Rotational symmetry number  1.
 Rotational temperatures (Kelvin)      0.50482     0.37221     0.21844
 Rotational constants (GHZ):          10.51867     7.75551     4.55161
 Zero-point vibrational energy     143238.5 (Joules/Mol)
                                   34.23482 (Kcal/Mol)
 Warning -- explicit consideration of   5 degrees of freedom as
           vibrations may cause significant error
 Vibrational temperatures:    265.24   482.76   556.88   815.45   881.50
          (Kelvin)            932.16  1006.58  1114.36  1192.43  1235.01
                             1256.23  1493.27  1533.76  1601.77  1689.82
                             1812.62  2153.51  2769.16  3293.46  4162.83
                             4206.42

 Zero-point correction=                           0.054557 (Hartree/Particle)
 Thermal correction to Energy=                    0.059656
 Thermal correction to Enthalpy=                  0.060601
 Thermal correction to Gibbs Free Energy=         0.026104
 Sum of electronic and zero-point Energies=           -190.928655
 Sum of electronic and thermal Energies=              -190.923555
 Sum of electronic and thermal Enthalpies=            -190.922611
 Sum of electronic and thermal Free Energies=         -190.957108

                     E (Thermal)             CV                S
                      KCal/Mol        Cal/Mol-Kelvin    Cal/Mol-Kelvin
 Total                   37.435             18.595             72.604
 Electronic               0.000              0.000              2.755
 Translational            0.889              2.981             38.389
 Rotational               0.889              2.981             24.274
 Vibrational             35.657             12.633              7.186
 Vibration     1          0.631              1.861              2.284
 Vibration     2          0.717              1.605              1.233
 Vibration     3          0.755              1.498              1.011
 Vibration     4          0.923              1.103              0.511
 Vibration     5          0.972              1.005              0.428

 Optimization completed.
    -- Stationary point found.
 Normal termination of Gaussian 09 at Thu Jan 31 08:54:21 2019.
