 Gaussian 09, Revision E.01,
 Gaussian 09:  EM64L-G09RevE.01 30-Nov-2015

 ---------------------------------------------
 #p b3lyp/6-311++G(3df,2p) freq symmetry=Loose
 ---------------------------------------------

 ---------
 b3lyp opt
 ---------
 Symbolic Z-matrix:
 Charge =  2 Multiplicity = 1

                         Standard orientation:
 ---------------------------------------------------------------------
 Center     Atomic      Atomic             Coordinates (Angstroms)
 Number     Number       Type             X           Y           Z
 ---------------------------------------------------------------------
      1          6           0       -0.657221    0.044843    0.038549
      2          6           0        0.726194   -0.351391    0.515700
      3          6           0        1.540904   -0.820850   -0.499657
      4          6           0        0.372595    1.109710   -0.103049
      5          1           0        0.663829    1.346200   -1.131049
      6          1           0        0.429012    1.893124    0.655465
      7          1           0        0.939437   -0.476010    1.588581
      8          6           0       -1.840607   -0.336314   -0.102083
      9          1           0       -2.883471   -0.639300   -0.209755
 ---------------------------------------------------------------------

 SCF Done:  E(RB3LYP) =  -191.849693184     A.U. after   14 cycles

 The electronic state is 1-A.
 Alpha  occ. eigenvalues --  -10.80359 -10.76217 -10.72211 -10.71938 -10.71853
 Alpha  occ. eigenvalues --   -1.40302  -1.25905  -1.18028  -1.05975  -1.01821
 Alpha  occ. eigenvalues --   -0.99242  -0.90054  -0.87324  -0.84530  -0.79832
 Alpha  occ. eigenvalues --   -0.77368
 Alpha virt. eigenvalues --   -0.63219  -0.57342  -0.55705  -0.47029  -0.37132
 Alpha virt. eigenvalues --   -0.32723  -0.31290  -0.29432  -0.28325  -0.26575
 Alpha virt. eigenvalues --   -0.25462  -0.24233  -0.23643  -0.22081  -0.21320

 Mulliken charges:
               1
     1  C    0.218613
     2  C    0.285454
     3  C    0.017212
     4  C   -0.591270
     5  H    0.303999
     6  H    0.316471
     7  H    0.288715
     8  C    0.707259
     9  H    0.453546
 Sum of Mulliken charges =   2.00000

 Dipole moment (field-independent basis, Debye):
    X=             -2.0842    Y=              0.0208    Z=              0.8912  Tot=              2.2669
 Quadrupole moment (field-independent basis, Debye-Ang):
   XX=             -0.1898   YY=            -15.6622   ZZ=            -20.5365
   XY=              2.7746   XZ=              3.0487   YZ=             -1.3224

  Exact polarizability:  59.872   0.590  41.215  -0.187   0.687  32.703
 Approx polarizability: 110.627   1.307  73.400  -0.168   2.699  51.507

                      1                      2                      3
                      A                      A                      A
 Frequencies --     88.4666               175.0534               189.3335
 Red. masses --      5.5541                 5.1616                 3.0884
 Frc consts  --      0.0256                 0.0932                 0.0652
 IR Inten    --      9.7014                 2.9831                16.0701

                      4                      5                      6
                      A                      A                      A
 Frequencies --    337.1478               518.8385               680.8021
 Red. masses --      3.8068                 8.3384                 1.2667
 Frc consts  --      0.2550                 1.3225                 0.3459
 IR Inten    --     20.2659                83.1967                49.8017

                      7                      8                      9
                      A                      A                      A
 Frequencies --    707.0878               795.1563               920.1961
 Red. masses --      5.0668                 1.1264                 1.3295
 Frc consts  --      1.4926                 0.4196                 0.6633
 IR Inten    --     16.4870                32.0469                 1.8750

                     10                     11                     12
                      A                      A                      A
 Frequencies --    942.6550               986.1868              1011.7431
 Red. masses --      2.3476                 1.4592                 1.3946
 Frc consts  --      1.2291                 0.8362                 0.8411
 IR Inten    --     16.6407                 1.6863                 5.4046

                     13                     14                     15
                      A                      A                      A
 Frequencies --   1031.7207              1092.8661              1384.7275
 Red. masses --      1.3278                 1.2173                 1.5789
 Frc consts  --      0.8328                 0.8566                 1.7838
 IR Inten    --     24.5805                 1.0536               104.0733

                     16                     17                     18
                      A                      A                      A
 Frequencies --   1407.7182              1881.8649              2997.1305
 Red. masses --      2.1191                 6.0884                 1.0831
 Frc consts  --      2.4742                12.7036                 5.7325
 IR Inten    --    183.6152               316.6248               235.1232

                     19                     20                     21
                      A                      A                      A
 Frequencies --   3026.0113              3144.5549              3182.8409
 Red. masses --      1.0538                 1.1247                 1.1515
 Frc consts  --      5.6851                 6.5526                 6.8731
 IR Inten    --    119.2032               125.3272               277.7730

 - Thermochemistry -
 -------------------
 Temperature   298.150 Kelvin.  Pressure   1.00000 Atm.
 Atom     1 has atomic number  6 and mass  12.00000

 Molecular mass:    64.03130 amu.
 Principal axes and moments of inertia in atomic units:
                           1         2         3
     Eigenvalues --   151.06979 368.14229 442.84625
           X            0.99852   0.05122   0.01820
           Y           -0.05049   0.99798  -0.03854
           Z           -0.02014   0.03756   0.99909
 This molecule is an asymmetric top.
 Rotational symmetry number  1.
 Rotational temperatures (Kelvin)      0.57334     0.23527     0.19558
 Rotational constants (GHZ):          11.94641     4.90229     4.07532
 Zero-point vibrational energy     158517.8 (Joules/Mol)
                                   37.88666 (Kcal/Mol)
 Warning -- explicit consideration of   5 degrees of freedom as
           vibrations may cause significant error
 Vibrational temperatures:    127.28   251.86   272.41   485.08   746.49
          (Kelvin)            979.52  1017.34  1144.05  1323.96  1356.27
                             1418.90  1455.67  1484.41  1572.39  1992.31
                             2025.39  2707.58  4312.20  4353.75  4524.31
                             4579.39

 Zero-point correction=                           0.060376 (Hartree/Particle)
 Thermal correction to Energy=                    0.066285
 Thermal correction to Enthalpy=                  0.067229
 Thermal correction to Gibbs Free Energy=         0.031733
 Sum of electronic and zero-point Energies=           -191.789317
 Sum of electronic and thermal Energies=              -191.783408
 Sum of electronic and thermal Enthalpies=            -191.782464
 Sum of electronic and thermal Free Energies=         -191.817960

                     E (Thermal)             CV                S
                      KCal/Mol        Cal/Mol-Kelvin    Cal/Mol-Kelvin
 Total                   41.595             19.335             74.708
 Electronic               0.000              0.000              0.000
 Translational            0.889              2.981             38.389
 Rotational               0.889              2.981             24.713
 Vibrational             39.817             13.374             11.606
 Vibration     1          0.601              1.957              3.694
 Vibration     2          0.627              1.873              2.381
 Vibration     3          0.633              1.855              2.234
 Vibration     4          0.718              1.601              1.226
 Vibration     5          0.874              1.208              0.613

 Optimization completed.
    -- Stationary point found.
 Normal termination of Gaussian 09 at Mon Jun 20 08:03:22 2016.
