 Gaussian 09, Revision E.01,
 Gaussian 09:  EM64L-G09RevE.01 30-Nov-2015

 ---------------------------------------------
 #p b3lyp/6-311++G(3df,2p) freq symmetry=Loose
 ---------------------------------------------

 ---------
 b3lyp opt
 ---------
 Symbolic Z-matrix:
 Charge =  2 Multiplicity = 1

                         Standard orientation:
 ---------------------------------------------------------------------
 Center     Atomic      Atomic             Coordinates (Angstroms)
 Number     Number       Type             X           Y           Z
 ---------------------------------------------------------------------
      1          6           0        0.647572   -0.822217    0.000084
      2          6           0       -0.511691    0.019614   -0.000718
      3          6           0        0.671100    0.828974    0.000705
      4          6           0       -1.903626    0.030155   -0.001474
      5          1           0       -2.363181    1.019164   -0.009775
      6          1           0       -2.271704   -0.643723   -0.824808
      7          1           0       -2.266459   -0.619845    0.844974
      8          6           0        1.769684   -0.011268   -0.000261
      9          1           0        2.863108   -0.027149   -0.000406
 ---------------------------------------------------------------------

 SCF Done:  E(RB3LYP) =  -191.932342645     A.U. after   13 cycles

 The electronic state is 1-A.
 Alpha  occ. eigenvalues --  -10.80947 -10.78817 -10.78706 -10.78679 -10.63972
 Alpha  occ. eigenvalues --   -1.51385  -1.27965  -1.17492  -1.07893  -1.01180
 Alpha  occ. eigenvalues --   -0.96121  -0.94101  -0.93317  -0.85013  -0.84314
 Alpha  occ. eigenvalues --   -0.78940
 Alpha virt. eigenvalues --   -0.63709  -0.58021  -0.54050  -0.42693  -0.33652
 Alpha virt. eigenvalues --   -0.31955  -0.31306  -0.28952  -0.27361  -0.26175
 Alpha virt. eigenvalues --   -0.25699  -0.25309  -0.23394  -0.22027  -0.21272

 Mulliken charges:
               1
     1  C    0.997637
     2  C   -0.119523
     3  C    0.999284
     4  C   -0.605292
     5  H    0.260347
     6  H    0.290436
     7  H    0.291472
     8  C   -0.508508
     9  H    0.394148
 Sum of Mulliken charges =   2.00000

 Dipole moment (field-independent basis, Debye):
    X=              0.5082    Y=             -0.4353    Z=              0.0172  Tot=              0.6694
 Quadrupole moment (field-independent basis, Debye-Ang):
   XX=              9.8333   YY=            -22.0662   ZZ=            -22.5744
   XY=              0.9509   XZ=             -0.0403   YZ=             -0.0069

  Exact polarizability:  70.795   1.889  40.462  -0.060   0.000  26.778
 Approx polarizability: 124.709   6.266 100.663  -0.194   0.005  42.535

                      1                      2                      3
                      A                      A                      A
 Frequencies --    105.8448               248.6178               356.8736
 Red. masses --      1.1996                 2.8127                 2.6621
 Frc consts  --      0.0079                 0.1024                 0.1998
 IR Inten    --     26.5157                 6.2842                 9.8675

                      4                      5                      6
                      A                      A                      A
 Frequencies --    522.2758               687.5448               699.0408
 Red. masses --      2.2175                 4.3017                 5.6800
 Frc consts  --      0.3564                 1.1981                 1.6353
 IR Inten    --      1.1237                20.0728                10.2266

                      7                      8                      9
                      A                      A                      A
 Frequencies --    840.2043               887.4991               889.6365
 Red. masses --      2.0288                 2.4622                 1.8680
 Frc consts  --      0.8439                 1.1426                 0.8710
 IR Inten    --      3.2319                43.2226                35.4473

                     10                     11                     12
                      A                      A                      A
 Frequencies --    987.0928              1047.1343              1122.9285
 Red. masses --      1.7615                 1.2843                 1.1398
 Frc consts  --      1.0112                 0.8297                 0.8468
 IR Inten    --    158.4402                10.7609               289.6082

                     13                     14                     15
                      A                      A                      A
 Frequencies --   1218.6884              1247.5668              1392.1574
 Red. masses --      7.6941                 1.0574                 1.1617
 Frc consts  --      6.7327                 0.9697                 1.3266
 IR Inten    --      4.5921                31.3574                 7.1783

                     16                     17                     18
                      A                      A                      A
 Frequencies --   1480.5825              1603.6324              2720.4507
 Red. masses --      6.3997                 9.5914                 1.0739
 Frc consts  --      8.2656                14.5325                 4.6826
 IR Inten    --    202.7941               489.7729               178.3174

                     19                     20                     21
                      A                      A                      A
 Frequencies --   2775.2192              3111.4187              3142.7158
 Red. masses --      1.0554                 1.0950                 1.1267
 Frc consts  --      4.7892                 6.2454                 6.5565
 IR Inten    --    712.6806                80.4578               228.6786

 - Thermochemistry -
 -------------------
 Temperature   298.150 Kelvin.  Pressure   1.00000 Atm.
 Atom     1 has atomic number  6 and mass  12.00000

 Molecular mass:    64.03130 amu.
 Principal axes and moments of inertia in atomic units:
                           1         2         3
     Eigenvalues --    70.10343 428.77629 488.84268
           X            0.99999   0.00393  -0.00017
           Y           -0.00393   0.99999  -0.00017
           Z            0.00017   0.00017   1.00000
 This molecule is an asymmetric top.
 Rotational symmetry number  1.
 Rotational temperatures (Kelvin)      1.23551     0.20200     0.17718
 Rotational constants (GHZ):          25.74398     4.20905     3.69187
 Zero-point vibrational energy     162017.0 (Joules/Mol)
                                   38.72299 (Kcal/Mol)
 Warning -- explicit consideration of   4 degrees of freedom as
           vibrations may cause significant error
 Vibrational temperatures:    152.29   357.71   513.46   751.44   989.22
          (Kelvin)           1005.76  1208.87  1276.91  1279.99  1420.20
                             1506.59  1615.64  1753.42  1794.97  2003.00
                             2130.23  2307.27  3914.12  3992.92  4476.63
                             4521.66

 Zero-point correction=                           0.061709 (Hartree/Particle)
 Thermal correction to Energy=                    0.066864
 Thermal correction to Enthalpy=                  0.067808
 Thermal correction to Gibbs Free Energy=         0.034143
 Sum of electronic and zero-point Energies=           -191.870634
 Sum of electronic and thermal Energies=              -191.865478
 Sum of electronic and thermal Enthalpies=            -191.864534
 Sum of electronic and thermal Free Energies=         -191.898200

                     E (Thermal)             CV                S
                      KCal/Mol        Cal/Mol-Kelvin    Cal/Mol-Kelvin
 Total                   41.958             17.328             70.856
 Electronic               0.000              0.000              0.000
 Translational            0.889              2.981             38.389
 Rotational               0.889              2.981             24.200
 Vibrational             40.181             11.366              8.266
 Vibration     1          0.605              1.945              3.344
 Vibration     2          0.662              1.765              1.740
 Vibration     3          0.732              1.561              1.136
 Vibration     4          0.877              1.201              0.605

 Normal termination of Gaussian 09 at Mon Jun 20 08:14:46 2016.
