 Gaussian 09, Revision E.01,
 Gaussian 09:  EM64L-G09RevE.01 30-Nov-2015

 ---------------------------------------------
 #p b3lyp/6-311++G(3df,2p) freq symmetry=Loose
 ---------------------------------------------

 ---------
 b3lyp opt
 ---------
 Symbolic Z-matrix:
 Charge =  0 Multiplicity = 1

                         Standard orientation:
 ---------------------------------------------------------------------
 Center     Atomic      Atomic             Coordinates (Angstroms)
 Number     Number       Type             X           Y           Z
 ---------------------------------------------------------------------
      1          1           0       -1.601287    0.894914   -0.877273
      2          1           0        0.716112    2.061956   -0.000716
      3          6           0       -0.884806   -0.971046   -0.001165
      4          1           0        2.310632   -0.061883   -0.000405
      5          6           0        0.409351    1.023052   -0.000348
      6          6           0        0.322224   -1.183542    0.000700
      7          6           0        1.233583   -0.050863    0.000056
      8          6           0       -1.051464    0.551224    0.000368
      9          1           0       -1.598791    0.892063    0.880722
 ---------------------------------------------------------------------

 SCF Done:  E(RB3LYP) =  -192.795789645     A.U. after   13 cycles

 The electronic state is 1-A.
 Alpha  occ. eigenvalues --  -10.22206 -10.21284 -10.19599 -10.18751 -10.17205
 Alpha  occ. eigenvalues --   -0.88465  -0.72630  -0.71363  -0.57469  -0.50753
 Alpha  occ. eigenvalues --   -0.48244  -0.46101  -0.40066  -0.38958  -0.33342
 Alpha  occ. eigenvalues --   -0.26882  -0.24623
 Alpha virt. eigenvalues --   -0.11790  -0.03488  -0.00726   0.01365   0.02259
 Alpha virt. eigenvalues --    0.02447   0.05650   0.05884   0.06663   0.06747
 Alpha virt. eigenvalues --    0.07783   0.09458   0.10070   0.11385   0.11549

 Mulliken charges:
               1
     1  H    0.145659
     2  H    0.161594
     3  C   -0.387015
     4  H    0.194460
     5  C   -0.208300
     6  C    0.453038
     7  C   -0.171185
     8  C   -0.334183
     9  H    0.145931
 Sum of Mulliken charges =  -0.00000

 Dipole moment (field-independent basis, Debye):
    X=              0.5802    Y=              2.1000    Z=              0.0022  Tot=              2.1787
 Quadrupole moment (field-independent basis, Debye-Ang):
   XX=            -27.3153   YY=            -30.6981   ZZ=            -31.3981
   XY=             -2.5489   XZ=             -0.0075   YZ=             -0.0019

  Exact polarizability:  65.419  -0.916  61.601   0.013   0.001  39.183
 Approx polarizability: 132.392 -10.526  98.584   0.075  -0.007  57.344

                      1                      2                      3
                      A                      A                      A
 Frequencies --    161.2434               252.8164               425.4423
 Red. masses --      3.0467                 9.8693                 2.3353
 Frc consts  --      0.0467                 0.3717                 0.2490
 IR Inten    --      7.6757               166.4141                 4.0084

                      4                      5                      6
                      A                      A                      A
 Frequencies --    715.1050               771.6177               863.6123
 Red. masses --      1.2136                 7.2647                 1.6095
 Frc consts  --      0.3657                 2.5484                 0.7073
 IR Inten    --     43.7536                 4.6611                 8.3284

                      7                      8                      9
                      A                      A                      A
 Frequencies --    893.8333               937.1650               950.2527
 Red. masses --      2.6152                 1.4192                 4.6301
 Frc consts  --      1.2310                 0.7344                 2.4633
 IR Inten    --      1.9137                 0.0550                44.5461

                     10                     11                     12
                      A                      A                      A
 Frequencies --   1069.1387              1113.9621              1124.6578
 Red. masses --      5.7306                 1.1495                 1.0943
 Frc consts  --      3.8594                 0.8404                 0.8155
 IR Inten    --     15.4610                 2.4045                 4.5093

                     13                     14                     15
                      A                      A                      A
 Frequencies --   1209.0058              1318.7605              1413.4674
 Red. masses --      1.3211                 1.5377                 1.1033
 Frc consts  --      1.1377                 1.5756                 1.2988
 IR Inten    --      0.2423                 5.5048                 6.5296

                     16                     17                     18
                      A                      A                      A
 Frequencies --   1549.6953              2036.2618              3051.5155
 Red. masses --      4.7582                11.5594                 1.0583
 Frc consts  --      6.7326                28.2393                 5.8061
 IR Inten    --      1.7607                 0.8830                 9.2731

                     19                     20                     21
                      A                      A                      A
 Frequencies --   3088.2274              3165.7735              3238.4006
 Red. masses --      1.1022                 1.0910                 1.0982
 Frc consts  --      6.1933                 6.4422                 6.7856
 IR Inten    --      1.2319                11.4995                12.7607

 - Thermochemistry -
 -------------------
 Temperature   298.150 Kelvin.  Pressure   1.00000 Atm.
 Atom     1 has atomic number  1 and mass   1.00783

 Molecular mass:    64.03130 amu.
 Principal axes and moments of inertia in atomic units:
                           1         2         3
     Eigenvalues --   182.77535 204.29219 375.94442
           X            0.96505  -0.26206  -0.00009
           Y            0.26206   0.96505  -0.00001
           Z            0.00009  -0.00001   1.00000
 This molecule is an asymmetric top.
 Rotational symmetry number  1.
 Rotational temperatures (Kelvin)      0.47388     0.42397     0.23039
 Rotational constants (GHZ):           9.87410     8.83412     4.80055
 Zero-point vibrational energy     175551.7 (Joules/Mol)
                                   41.95787 (Kcal/Mol)
 Warning -- explicit consideration of   3 degrees of freedom as
           vibrations may cause significant error
 Vibrational temperatures:    231.99   363.75   612.12  1028.88  1110.18
          (Kelvin)           1242.54  1286.03  1348.37  1367.20  1538.25
                             1602.74  1618.13  1739.49  1897.40  2033.66
                             2229.66  2929.72  4390.44  4443.26  4554.84
                             4659.33

 Zero-point correction=                           0.066864 (Hartree/Particle)
 Thermal correction to Energy=                    0.071603
 Thermal correction to Enthalpy=                  0.072548
 Thermal correction to Gibbs Free Energy=         0.039763
 Sum of electronic and zero-point Energies=           -192.728926
 Sum of electronic and thermal Energies=              -192.724186
 Sum of electronic and thermal Enthalpies=            -192.723242
 Sum of electronic and thermal Free Energies=         -192.756027

                     E (Thermal)             CV                S
                      KCal/Mol        Cal/Mol-Kelvin    Cal/Mol-Kelvin
 Total                   44.932             15.818             69.002
 Electronic               0.000              0.000              0.000
 Translational            0.889              2.981             38.389
 Rotational               0.889              2.981             24.155
 Vibrational             43.154              9.857              6.458
 Vibration     1          0.622              1.890              2.535
 Vibration     2          0.664              1.758              1.711
 Vibration     3          0.787              1.415              0.874

 Normal termination of Gaussian 09 at Wed Jun 22 02:46:17 2016.
