 Gaussian 09, Revision E.01,
 Gaussian 09:  EM64L-G09RevE.01 30-Nov-2015

 ---------------------------------------------
 #p b3lyp/6-311++G(3df,2p) freq symmetry=Loose
 ---------------------------------------------

 ---------
 b3lyp opt
 ---------
 Symbolic Z-matrix:
 Charge =  3 Multiplicity = 4

                         Standard orientation:
 ---------------------------------------------------------------------
 Center     Atomic      Atomic             Coordinates (Angstroms)
 Number     Number       Type             X           Y           Z
 ---------------------------------------------------------------------
      1          1           0        1.931608   -0.783990    0.884516
      2          6           0       -0.071580   -0.857139   -0.000245
      3          6           0        0.827117    1.022316    0.000355
      4          6           0       -0.644703    1.068965   -0.000388
      5          6           0        1.270300   -0.440018   -0.000048
      6          1           0        1.933186   -0.782342   -0.884225
      7          6           0       -1.346020   -0.347833    0.000149
      8          1           0       -2.037408   -0.554961    0.902767
      9          1           0       -2.038068   -0.556458   -0.902000
 ---------------------------------------------------------------------

 SCF Done:  E(UB3LYP) =  -190.950619145     A.U. after   16 cycles

 The electronic state is 4-A.
 Alpha  occ. eigenvalues --  -11.12637 -11.07902 -11.06733 -10.97158 -10.96374
 Alpha  occ. eigenvalues --   -1.69610  -1.52635  -1.47326  -1.29561  -1.27478
 Alpha  occ. eigenvalues --   -1.21377  -1.21122  -1.19882  -1.12441  -1.08400
 Alpha  occ. eigenvalues --   -1.03988  -1.00213
 Alpha virt. eigenvalues --   -0.87506  -0.86840  -0.80608  -0.59086  -0.56829
 Alpha virt. eigenvalues --   -0.53950  -0.50013  -0.49579  -0.48971  -0.48632
 Alpha virt. eigenvalues --   -0.46953  -0.43496  -0.41309  -0.39374  -0.38908

  Beta  occ. eigenvalues --  -11.12174 -11.05276 -11.04035 -10.97043 -10.96213
  Beta  occ. eigenvalues --   -1.67357  -1.51231  -1.42262  -1.28014  -1.22444
  Beta  occ. eigenvalues --   -1.19243  -1.18998  -1.17841  -1.11534
  Beta virt. eigenvalues --   -0.92571  -0.89570  -0.86255  -0.80492  -0.79737
  Beta virt. eigenvalues --   -0.70743  -0.57314  -0.55559  -0.51961  -0.49218
  Beta virt. eigenvalues --   -0.49012  -0.48491  -0.47475  -0.43151  -0.42503

 Mulliken charges and spin densities:
               1          2
     1  H    0.363688   0.026715
     2  C    0.981726   0.220351
     3  C    0.591238   1.340318
     4  C    0.490473   1.337223
     5  C   -0.265776   0.010913
     6  H    0.363586   0.026658
     7  C   -0.269874   0.000705
     8  H    0.372490   0.018536
     9  H    0.372449   0.018583
 Sum of Mulliken charges =   3.00000   3.00000

 Dipole moment (field-independent basis, Debye):
    X=             -0.3019    Y=             -1.9184    Z=              0.0001  Tot=              1.9420
 Quadrupole moment (field-independent basis, Debye-Ang):
   XX=              8.6736   YY=             -9.9678   ZZ=            -17.2559
   XY=             -0.6601   XZ=             -0.0014   YZ=              0.0001

  Exact polarizability:  58.933  -1.500  39.979   0.003  -0.000  27.027
 Approx polarizability: 122.550  -7.360  81.240   0.015   0.000  42.555

                      1                      2                      3
                      A                      A                      A
 Frequencies --    159.2252               303.4906               328.3138
 Red. masses --      9.7583                 1.4563                 1.9468
 Frc consts  --      0.1458                 0.0790                 0.1236
 IR Inten    --     33.0444                58.0633                 0.5746

                      4                      5                      6
                      A                      A                      A
 Frequencies --    587.5273               594.8598               671.0453
 Red. masses --      4.8980                 1.4678                 9.3137
 Frc consts  --      0.9961                 0.3060                 2.4710
 IR Inten    --      1.0178                 0.0050                 5.6802

                      7                      8                      9
                      A                      A                      A
 Frequencies --    722.7144               790.1526               847.8166
 Red. masses --      1.6204                 3.0733                 1.4375
 Frc consts  --      0.4987                 1.1305                 0.6088
 IR Inten    --     21.1972                 6.6921                 0.8552

                     10                     11                     12
                      A                      A                      A
 Frequencies --    931.8434               943.7826              1011.6187
 Red. masses --      2.4757                 1.1880                 1.4584
 Frc consts  --      1.2666                 0.6235                 0.8794
 IR Inten    --     69.6326               602.0850                 5.7622

                     13                     14                     15
                      A                      A                      A
 Frequencies --   1012.9861              1066.1378              1100.7896
 Red. masses --      1.5100                 1.2611                 1.5628
 Frc consts  --      0.9129                 0.8445                 1.1157
 IR Inten    --    138.0851               164.8910                22.9894

                     16                     17                     18
                      A                      A                      A
 Frequencies --   1219.3807              1399.1677              2414.4542
 Red. masses --      5.8327                 7.4475                 1.0840
 Frc consts  --      5.1097                 8.5901                 3.7230
 IR Inten    --     48.7409               113.2418                54.0021

                     19                     20                     21
                      A                      A                      A
 Frequencies --   2445.8717              2448.2779              2542.5633
 Red. masses --      1.0532                 1.0929                 1.0664
 Frc consts  --      3.7123                 3.8597                 4.0618
 IR Inten    --   2120.6418               932.2568               211.1343

 - Thermochemistry -
 -------------------
 Temperature   298.150 Kelvin.  Pressure   1.00000 Atm.
 Atom     1 has atomic number  1 and mass   1.00783

 Molecular mass:    64.03130 amu.
 Principal axes and moments of inertia in atomic units:
                           1         2         3
     Eigenvalues --   156.38691 262.45996 395.86490
           X            0.99968  -0.02517  -0.00003
           Y            0.02517   0.99968  -0.00002
           Z            0.00003   0.00002   1.00000
 This molecule is an asymmetric top.
 Rotational symmetry number  1.
 Rotational temperatures (Kelvin)      0.55384     0.33001     0.21880
 Rotational constants (GHZ):          11.54023     6.87625     4.55898
 Zero-point vibrational energy     140812.5 (Joules/Mol)
                                   33.65501 (Kcal/Mol)
 Warning -- explicit consideration of   5 degrees of freedom as
           vibrations may cause significant error
 Vibrational temperatures:    229.09   436.65   472.37   845.32   855.87
          (Kelvin)            965.48  1039.82  1136.85  1219.82  1340.71
                             1357.89  1455.49  1457.46  1533.93  1583.79
                             1754.41  2013.09  3473.86  3519.06  3522.52
                             3658.18

 Zero-point correction=                           0.053633 (Hartree/Particle)
 Thermal correction to Energy=                    0.058840
 Thermal correction to Enthalpy=                  0.059784
 Thermal correction to Gibbs Free Energy=         0.024996
 Sum of electronic and zero-point Energies=           -190.896986
 Sum of electronic and thermal Energies=              -190.891779
 Sum of electronic and thermal Enthalpies=            -190.890835
 Sum of electronic and thermal Free Energies=         -190.925623

                     E (Thermal)             CV                S
                      KCal/Mol        Cal/Mol-Kelvin    Cal/Mol-Kelvin
 Total                   36.923             18.680             73.218
 Electronic               0.000              0.000              2.755
 Translational            0.889              2.981             38.389
 Rotational               0.889              2.981             24.300
 Vibrational             35.145             12.719              7.774
 Vibration     1          0.621              1.892              2.559
 Vibration     2          0.695              1.667              1.398
 Vibration     3          0.712              1.619              1.268
 Vibration     4          0.945              1.058              0.472
 Vibration     5          0.953              1.043              0.459

 Normal termination of Gaussian 09 at Mon Jun 20 13:14:46 2016.
