 Gaussian 09, Revision E.01,
 Gaussian 09:  EM64L-G09RevE.01 30-Nov-2015

 ---------------------------------------------
 #p b3lyp/6-311++G(3df,2p) freq symmetry=Loose
 ---------------------------------------------

 ---------
 b3lyp opt
 ---------
 Symbolic Z-matrix:
 Charge =  1 Multiplicity = 4

                         Standard orientation:
 ---------------------------------------------------------------------
 Center     Atomic      Atomic             Coordinates (Angstroms)
 Number     Number       Type             X           Y           Z
 ---------------------------------------------------------------------
      1          6           0       -1.767156   -1.548265   -0.000000
      2          1           0       -1.067277   -2.371905   -0.000000
      3          1           0       -2.828239   -1.751949   -0.000000
      4          6           0       -1.309325   -0.194492   -0.000000
      5          1           0       -2.063833    0.592688    0.000000
      6          6           0        0.000000    0.190362    0.000000
      7          6           0        1.161381    0.700061    0.000000
      8          6           0        2.354802    1.169527    0.000000
      9          1           0        3.321135    1.628006    0.000000
 ---------------------------------------------------------------------

 SCF Done:  E(UB3LYP) =  -192.464517141     A.U. after   17 cycles

 The electronic state is 4-A'.
 Alpha  occ. eigenvalues --  -10.47738 -10.45111 -10.44958 -10.43657 -10.43043
 Alpha  occ. eigenvalues --   -1.06967  -1.02265  -0.93919  -0.85860  -0.75600
 Alpha  occ. eigenvalues --   -0.73860  -0.68640  -0.62456  -0.61745  -0.57601
 Alpha  occ. eigenvalues --   -0.55081  -0.43652  -0.43490
 Alpha virt. eigenvalues --   -0.27481  -0.16581  -0.13455  -0.12093  -0.11680
 Alpha virt. eigenvalues --   -0.11182  -0.11092  -0.08890  -0.07754  -0.06965
 Alpha virt. eigenvalues --   -0.06519  -0.05474  -0.04698  -0.04229  -0.03114

  Beta  occ. eigenvalues --  -10.47419 -10.45163 -10.43116 -10.42553 -10.41711
  Beta  occ. eigenvalues --   -1.03883  -0.99125  -0.89588  -0.83572  -0.73894
  Beta  occ. eigenvalues --   -0.72541  -0.67101  -0.61535  -0.55864  -0.54043
  Beta virt. eigenvalues --   -0.43540  -0.30690  -0.30634  -0.20911  -0.15288
  Beta virt. eigenvalues --   -0.12322  -0.11865  -0.10612  -0.10347  -0.08939
  Beta virt. eigenvalues --   -0.07687  -0.07169  -0.06117  -0.05988  -0.04036

 Mulliken charges and spin densities:
               1          2
     1  C   -0.453550   0.733287
     2  H    0.216697  -0.018027
     3  H    0.245855  -0.016842
     4  C    0.134312   0.265371
     5  H    0.218785   0.028620
     6  C    0.123215   0.793009
     7  C   -0.200270   0.130461
     8  C    0.335360   1.118386
     9  H    0.379595  -0.034266
 Sum of Mulliken charges =   1.00000   3.00000

 Dipole moment (field-independent basis, Debye):
    X=             -0.3749    Y=             -0.1480    Z=             -0.0000  Tot=              0.4030
 Quadrupole moment (field-independent basis, Debye-Ang):
   XX=             -1.3606   YY=            -17.8914   ZZ=            -27.9405
   XY=             12.3677   XZ=              0.0000   YZ=             -0.0000

  Exact polarizability: 112.379  40.985  62.118   0.000   0.000  30.646
 Approx polarizability: 218.969  84.949  98.384   0.000   0.000  43.318

                      1                      2                      3
                     A'                     A'                     A"
 Frequencies --     54.8619               109.5516               113.0604
 Red. masses --      5.3243                 1.3123                 3.3305
 Frc consts  --      0.0094                 0.0093                 0.0251
 IR Inten    --      0.2259                48.4405                10.9557

                      4                      5                      6
                     A"                     A'                     A"
 Frequencies --    163.8359               374.2293               411.8250
 Red. masses --      1.1314                 3.6494                 1.2144
 Frc consts  --      0.0179                 0.3011                 0.1213
 IR Inten    --      1.3957                 8.1206                19.6895

                      7                      8                      9
                     A'                     A"                     A"
 Frequencies --    450.3336               467.5897               805.4464
 Red. masses --      3.7177                 7.4056                 1.2426
 Frc consts  --      0.4442                 0.9540                 0.4749
 IR Inten    --      4.8024                 7.8585                28.6446

                     10                     11                     12
                     A'                     A"                     A'
 Frequencies --    806.4146               924.0221              1054.3279
 Red. masses --      3.0539                 1.6854                 1.6446
 Frc consts  --      1.1701                 0.8479                 1.0771
 IR Inten    --      8.3564                 5.3715                 1.0096

                     13                     14                     15
                     A'                     A'                     A'
 Frequencies --   1138.1211              1328.7451              1473.6536
 Red. masses --      3.2479                 1.4013                 1.1841
 Frc consts  --      2.4787                 1.4577                 1.5150
 IR Inten    --     11.8396                43.5223                15.0726

                     16                     17                     18
                     A'                     A'                     A'
 Frequencies --   1550.8852              1941.2129              3099.5313
 Red. masses --      4.6007                11.2048                 1.0869
 Frc consts  --      6.5197                24.8771                 6.1521
 IR Inten    --    172.9257               511.4699                 9.8509

                     19                     20                     21
                     A'                     A'                     A'
 Frequencies --   3152.9344              3273.9781              3365.3010
 Red. masses --      1.0509                 1.1235                 1.1134
 Frc consts  --      6.1549                 7.0954                 7.4293
 IR Inten    --     27.1759                10.0757               252.7501

 - Thermochemistry -
 -------------------
 Temperature   298.150 Kelvin.  Pressure   1.00000 Atm.
 Atom     1 has atomic number  6 and mass  12.00000

 Molecular mass:    64.03130 amu.
 Principal axes and moments of inertia in atomic units:
                           1         2         3
     Eigenvalues --    38.59184 779.06047 817.65230
           X            0.86313  -0.50498   0.00000
           Y            0.50498   0.86313   0.00000
           Z            0.00000  -0.00000   1.00000
 This molecule is an asymmetric top.
 Rotational symmetry number  1.
 Rotational temperatures (Kelvin)      2.24436     0.11118     0.10593
 Rotational constants (GHZ):          46.76484     2.31656     2.20722
 Zero-point vibrational energy     155872.6 (Joules/Mol)
                                   37.25444 (Kcal/Mol)
 Warning -- explicit consideration of   8 degrees of freedom as
           vibrations may cause significant error
 Vibrational temperatures:     78.93   157.62   162.67   235.72   538.43
          (Kelvin)            592.52   647.93   672.76  1158.86  1160.25
                             1329.46  1516.94  1637.50  1911.77  2120.26
                             2231.38  2792.97  4459.53  4536.36  4710.52
                             4841.91

 Zero-point correction=                           0.059369 (Hartree/Particle)
 Thermal correction to Energy=                    0.066492
 Thermal correction to Enthalpy=                  0.067436
 Thermal correction to Gibbs Free Energy=         0.027659
 Sum of electronic and zero-point Energies=           -192.405148
 Sum of electronic and thermal Energies=              -192.398025
 Sum of electronic and thermal Enthalpies=            -192.397081
 Sum of electronic and thermal Free Energies=         -192.436858

                     E (Thermal)             CV                S
                      KCal/Mol        Cal/Mol-Kelvin    Cal/Mol-Kelvin
 Total                   41.725             21.971             83.718
 Electronic               0.000              0.000              2.755
 Translational            0.889              2.981             38.389
 Rotational               0.889              2.981             24.712
 Vibrational             39.947             16.009             17.862
 Vibration     1          0.596              1.976              4.634
 Vibration     2          0.606              1.942              3.277
 Vibration     3          0.607              1.939              3.216
 Vibration     4          0.623              1.887              2.505
 Vibration     5          0.745              1.525              1.062
 Vibration     6          0.776              1.445              0.920
 Vibration     7          0.809              1.360              0.795
 Vibration     8          0.825              1.322              0.744

 Normal termination of Gaussian 09 at Mon Jun 20 07:18:56 2016.
