 Gaussian 09, Revision E.01,
 Gaussian 09:  EM64L-G09RevE.01 30-Nov-2015

 ---------------------------------------------
 #p b3lyp/6-311++G(3df,2p) freq symmetry=Loose
 ---------------------------------------------

 ---------
 b3lyp opt
 ---------
 Symbolic Z-matrix:
 Charge =  0 Multiplicity = 3

                         Standard orientation:
 ---------------------------------------------------------------------
 Center     Atomic      Atomic             Coordinates (Angstroms)
 Number     Number       Type             X           Y           Z
 ---------------------------------------------------------------------
      1          6           0        0.772537   -0.000000   -0.868729
      2          6           0       -0.772537    0.000000   -0.868729
      3          6           0       -1.070172    0.000000    0.608210
      4          6           0       -0.000000    0.000000    1.421706
      5          6           0        1.070172   -0.000000    0.608210
      6          1           0        1.220292    0.872394   -1.350985
      7          1           0       -1.220292   -0.872394   -1.350985
      8          1           0       -1.220292    0.872394   -1.350985
      9          1           0        1.220292   -0.872394   -1.350985
 ---------------------------------------------------------------------

 SCF Done:  E(UB3LYP) =  -192.721026834     A.U. after   13 cycles

 The electronic state is 3-B1.
 Alpha  occ. eigenvalues --  -10.24011 -10.24005 -10.21317 -10.21298 -10.18187
 Alpha  occ. eigenvalues --   -0.90017  -0.75122  -0.72122  -0.58109  -0.51136
 Alpha  occ. eigenvalues --   -0.49860  -0.46230  -0.41018  -0.40403  -0.32773
 Alpha  occ. eigenvalues --   -0.32507  -0.23578  -0.23079
 Alpha virt. eigenvalues --   -0.11684  -0.01594   0.00674   0.01302   0.03629
 Alpha virt. eigenvalues --    0.03883   0.04688   0.06062   0.06436   0.06478
 Alpha virt. eigenvalues --    0.08318   0.10647   0.11360   0.11652   0.11904

  Beta  occ. eigenvalues --  -10.22777 -10.22774 -10.21049 -10.21031 -10.16992
  Beta  occ. eigenvalues --   -0.88349  -0.73914  -0.70390  -0.55890  -0.49602
  Beta  occ. eigenvalues --   -0.49127  -0.43982  -0.40223  -0.39688  -0.31543
  Beta  occ. eigenvalues --   -0.25616
  Beta virt. eigenvalues --   -0.10288  -0.09992  -0.09309  -0.01531   0.00792
  Beta virt. eigenvalues --    0.01628   0.03965   0.04686   0.05610   0.06196
  Beta virt. eigenvalues --    0.06859   0.07069   0.08398   0.10900   0.11598

 Mulliken charges and spin densities:
               1          2
     1  C   -0.180391   0.075026
     2  C   -0.180391   0.075026
     3  C   -0.081056   0.696191
     4  C   -0.066659   0.481499
     5  C   -0.081056   0.696191
     6  H    0.147389  -0.005984
     7  H    0.147389  -0.005984
     8  H    0.147389  -0.005984
     9  H    0.147389  -0.005984
 Sum of Mulliken charges =  -0.00000   2.00000

 Dipole moment (field-independent basis, Debye):
    X=             -0.0000    Y=             -0.0000    Z=             -3.6910  Tot=              3.6910
 Quadrupole moment (field-independent basis, Debye-Ang):
   XX=            -32.6325   YY=            -28.9013   ZZ=            -33.2216
   XY=             -0.0000   XZ=             -0.0000   YZ=              0.0000

  Exact polarizability:  75.947  -0.000  42.832   0.000   0.000  65.286
 Approx polarizability: 143.868   0.000  63.088   0.000  -0.000  96.563

                      1                      2                      3
                     B2                     A2                     B2
 Frequencies --     90.2402               162.3024               644.5846
 Red. masses --      6.2212                 1.7474                 1.1883
 Frc consts  --      0.0298                 0.0271                 0.2909
 IR Inten    --     14.9019                 0.0000                 0.2244

                      4                      5                      6
                     A1                     B1                     A2
 Frequencies --    684.0253               697.5846               877.4546
 Red. masses --     11.4993                 7.2075                 1.7690
 Frc consts  --      3.1700                 2.0665                 0.8025
 IR Inten    --     19.3881                63.8526                 0.0000

                      7                      8                      9
                     B1                     A1                     A1
 Frequencies --    897.4380               924.1665               943.3222
 Red. masses --      3.6103                 3.5110                 4.6130
 Frc consts  --      1.7132                 1.7668                 2.4185
 IR Inten    --      7.1445                 0.6981                 7.0445

                     10                     11                     12
                     B2                     A2                     A1
 Frequencies --   1091.9800              1149.5549              1208.4706
 Red. masses --      1.0827                 1.1723                 1.4293
 Frc consts  --      0.7607                 0.9128                 1.2298
 IR Inten    --      1.9367                 0.0000                30.9695

                     13                     14                     15
                     B1                     B1                     A1
 Frequencies --   1259.3614              1414.4322              1430.2964
 Red. masses --      1.5062                 1.1160                 1.2677
 Frc consts  --      1.4075                 1.3155                 1.5280
 IR Inten    --      6.3207                32.4762                33.6758

                     16                     17                     18
                     A1                     B1                     B1
 Frequencies --   1489.0621              1558.9969              3033.5132
 Red. masses --      4.2884                 7.8749                 1.0592
 Frc consts  --      5.6024                11.2768                 5.7425
 IR Inten    --      1.7481               116.1905                 4.6869

                     19                     20                     21
                     A1                     A2                     B2
 Frequencies --   3037.2792              3058.8905              3069.7002
 Red. masses --      1.0609                 1.1020                 1.1011
 Frc consts  --      5.7661                 6.0753                 6.1134
 IR Inten    --      2.0755                 0.0000                 1.8483

 - Thermochemistry -
 -------------------
 Temperature   298.150 Kelvin.  Pressure   1.00000 Atm.
 Atom     1 has atomic number  6 and mass  12.00000

 Molecular mass:    64.03130 amu.
 Principal axes and moments of inertia in atomic units:
                           1         2         3
     Eigenvalues --   181.69988 218.62951 378.41656
           X            0.00000   1.00000  -0.00000
           Y            0.00000   0.00000   1.00000
           Z            1.00000   0.00000  -0.00000
 This molecule is an asymmetric top.
 Rotational symmetry number  2.
 Rotational temperatures (Kelvin)      0.47669     0.39617     0.22888
 Rotational constants (GHZ):           9.93254     8.25479     4.76919
 Zero-point vibrational energy     171799.6 (Joules/Mol)
                                   41.06110 (Kcal/Mol)
 Warning -- explicit consideration of   2 degrees of freedom as
           vibrations may cause significant error
 Vibrational temperatures:    129.84   233.52   927.41   984.16  1003.67
          (Kelvin)           1262.46  1291.21  1329.67  1357.23  1571.11
                             1653.95  1738.72  1811.94  2035.05  2057.87
                             2142.43  2243.05  4364.54  4369.96  4401.06
                             4416.61

 Zero-point correction=                           0.065435 (Hartree/Particle)
 Thermal correction to Energy=                    0.070320
 Thermal correction to Enthalpy=                  0.071264
 Thermal correction to Gibbs Free Energy=         0.037345
 Sum of electronic and zero-point Energies=           -192.655592
 Sum of electronic and thermal Energies=              -192.650707
 Sum of electronic and thermal Enthalpies=            -192.649763
 Sum of electronic and thermal Free Energies=         -192.683682

                     E (Thermal)             CV                S
                      KCal/Mol        Cal/Mol-Kelvin    Cal/Mol-Kelvin
 Total                   44.126             15.617             71.389
 Electronic               0.000              0.000              2.183
 Translational            0.889              2.981             38.389
 Rotational               0.889              2.981             22.846
 Vibrational             42.349              9.655              7.971
 Vibration     1          0.602              1.956              3.655
 Vibration     2          0.622              1.889              2.523

 Optimization completed.
    -- Stationary point found.
 Normal termination of Gaussian 09 at Wed Jul 20 11:49:30 2016.
