 Gaussian 09, Revision E.01,
 Gaussian 09:  EM64L-G09RevE.01 30-Nov-2015

 ---------------------------------------------
 #p b3lyp/6-311++G(3df,2p) freq symmetry=Loose
 ---------------------------------------------

 ---------
 b3lyp opt
 ---------
 Symbolic Z-matrix:
 Charge =  1 Multiplicity = 4

                         Standard orientation:
 ---------------------------------------------------------------------
 Center     Atomic      Atomic             Coordinates (Angstroms)
 Number     Number       Type             X           Y           Z
 ---------------------------------------------------------------------
      1          6           0       -0.187356    0.731469    0.000000
      2          6           0       -0.187356   -0.566193    0.854402
      3          1           0       -1.160520    1.213681    0.000000
      4          6           0        0.973829    1.570950    0.000000
      5          1           0        1.966075    1.142456    0.000000
      6          1           0        0.866642    2.645240    0.000000
      7          6           0       -0.187356   -0.566193   -0.854402
      8          6           0       -0.561085   -1.566530   -0.000000
      9          1           0       -0.776246   -2.622403   -0.000000
 ---------------------------------------------------------------------

 SCF Done:  E(UB3LYP) =  -192.380630903     A.U. after   16 cycles

 The electronic state is 4-A'.
 Alpha  occ. eigenvalues --  -10.52017 -10.52015 -10.46955 -10.46885 -10.41462
 Alpha  occ. eigenvalues --   -1.20390  -1.00673  -0.87623  -0.84392  -0.78179
 Alpha  occ. eigenvalues --   -0.72256  -0.67511  -0.66878  -0.62296  -0.60535
 Alpha  occ. eigenvalues --   -0.58385  -0.47004  -0.44624
 Alpha virt. eigenvalues --   -0.28870  -0.25748  -0.14108  -0.12820  -0.12385
 Alpha virt. eigenvalues --   -0.11977  -0.09954  -0.08822  -0.07596  -0.07284
 Alpha virt. eigenvalues --   -0.06872  -0.06794  -0.03872  -0.03463  -0.03397

  Beta  occ. eigenvalues --  -10.49767 -10.49765 -10.47036 -10.46970 -10.40279
  Beta  occ. eigenvalues --   -1.18195  -0.99004  -0.85601  -0.77384  -0.77371
  Beta  occ. eigenvalues --   -0.70921  -0.65916  -0.64143  -0.60499  -0.56760
  Beta virt. eigenvalues --   -0.42584  -0.31440  -0.29862  -0.23636  -0.21675
  Beta virt. eigenvalues --   -0.13691  -0.12732  -0.12009  -0.10587  -0.09572
  Beta virt. eigenvalues --   -0.08101  -0.07514  -0.06650  -0.05995  -0.05123

 Mulliken charges and spin densities:
               1          2
     1  C    0.338123  -0.334718
     2  C    0.031508   1.402795
     3  H    0.259206  -0.005225
     4  C   -0.674849   0.929742
     5  H    0.236324  -0.023746
     6  H    0.225359  -0.023672
     7  C    0.031508   1.402795
     8  C    0.230487  -0.358498
     9  H    0.322334   0.010526
 Sum of Mulliken charges =   1.00000   3.00000

 Dipole moment (field-independent basis, Debye):
    X=             -0.6686    Y=             -0.7676    Z=              0.0000  Tot=              1.0179
 Quadrupole moment (field-independent basis, Debye-Ang):
   XX=            -23.3063   YY=            -12.1834   ZZ=            -25.9721
   XY=              4.5315   XZ=              0.0000   YZ=              0.0000

  Exact polarizability:  42.669  13.625  64.127  -0.000   0.000  39.748
 Approx polarizability:  61.859  20.810  94.433   0.000   0.000  76.599

                      1                      2                      3
                     A'                     A"                     A"
 Frequencies --    266.1167               295.4759               368.7839
 Red. masses --      2.8529                 1.2437                 3.4528
 Frc consts  --      0.1190                 0.0640                 0.2767
 IR Inten    --     13.0071                 0.1554                 4.4564

                      4                      5                      6
                     A"                     A'                     A'
 Frequencies --    534.0861               539.0855               759.7311
 Red. masses --      3.7022                 3.9364                 4.2645
 Frc consts  --      0.6222                 0.6740                 1.4502
 IR Inten    --      0.0000                33.7999                31.4423

                      7                      8                      9
                     A"                     A'                     A"
 Frequencies --    819.7871               837.7737               912.8524
 Red. masses --      1.4726                 1.3755                 1.9519
 Frc consts  --      0.5831                 0.5688                 0.9583
 IR Inten    --     26.6203                23.5638                26.1431

                     10                     11                     12
                     A'                     A"                     A'
 Frequencies --    922.1569              1065.4629              1096.1079
 Red. masses --      3.1030                 1.2173                 1.8358
 Frc consts  --      1.5547                 0.8142                 1.2995
 IR Inten    --     29.1528                 1.2944                 4.0599

                     13                     14                     15
                     A"                     A'                     A'
 Frequencies --   1134.6091              1180.5757              1364.3875
 Red. masses --      2.0603                 2.9269                 1.4080
 Frc consts  --      1.5627                 2.4035                 1.5443
 IR Inten    --     29.2100                29.8170                13.2166

                     16                     17                     18
                     A'                     A'                     A'
 Frequencies --   1483.2864              1510.1921              3137.2272
 Red. masses --      1.3037                 4.5421                 1.0885
 Frc consts  --      1.6900                 6.1034                 6.3123
 IR Inten    --     22.9927                 1.4332                22.1616

                     19                     20                     21
                     A'                     A'                     A'
 Frequencies --   3155.3093              3265.5142              3271.8608
 Red. masses --      1.0515                 1.1104                 1.1223
 Frc consts  --      6.1679                 6.9767                 7.0788
 IR Inten    --     19.0874               103.9941                10.2104

 - Thermochemistry -
 -------------------
 Temperature   298.150 Kelvin.  Pressure   1.00000 Atm.
 Atom     1 has atomic number  6 and mass  12.00000

 Molecular mass:    64.03130 amu.
 Principal axes and moments of inertia in atomic units:
                           1         2         3
     Eigenvalues --    91.37892 403.17140 436.92319
           X            0.39317   0.00000   0.91947
           Y            0.91947   0.00000  -0.39317
           Z           -0.00000   1.00000  -0.00000
 This molecule is an asymmetric top.
 Rotational symmetry number  1.
 Rotational temperatures (Kelvin)      0.94785     0.21483     0.19824
 Rotational constants (GHZ):          19.75008     4.47636     4.13057
 Zero-point vibrational energy     167001.0 (Joules/Mol)
                                   39.91419 (Kcal/Mol)
 Warning -- explicit consideration of   5 degrees of freedom as
           vibrations may cause significant error
 Vibrational temperatures:    382.88   425.12   530.60   768.43   775.62
          (Kelvin)           1093.08  1179.49  1205.37  1313.39  1326.78
                             1532.96  1577.05  1632.45  1698.58  1963.05
                             2134.12  2172.83  4513.76  4539.78  4698.34
                             4707.47

 Zero-point correction=                           0.063607 (Hartree/Particle)
 Thermal correction to Energy=                    0.068513
 Thermal correction to Enthalpy=                  0.069457
 Thermal correction to Gibbs Free Energy=         0.035304
 Sum of electronic and zero-point Energies=           -192.317024
 Sum of electronic and thermal Energies=              -192.312118
 Sum of electronic and thermal Enthalpies=            -192.311174
 Sum of electronic and thermal Free Energies=         -192.345327

                     E (Thermal)             CV                S
                      KCal/Mol        Cal/Mol-Kelvin    Cal/Mol-Kelvin
 Total                   42.993             17.471             71.881
 Electronic               0.000              0.000              2.755
 Translational            0.889              2.981             38.389
 Rotational               0.889              2.981             24.291
 Vibrational             41.215             11.509              6.446
 Vibration     1          0.672              1.735              1.621
 Vibration     2          0.690              1.682              1.442
 Vibration     3          0.741              1.536              1.085
 Vibration     4          0.889              1.175              0.578
 Vibration     5          0.894              1.164              0.567

 Optimization completed.
    -- Stationary point found.
 Normal termination of Gaussian 09 at Wed Jul 20 19:08:38 2016.
