 Gaussian 09, Revision E.01,
 Gaussian 09:  EM64L-G09RevE.01 30-Nov-2015

 ---------------------------------------------
 #p b3lyp/6-311++G(3df,2p) freq symmetry=Loose
 ---------------------------------------------

 ---------
 b3lyp opt
 ---------
 Symbolic Z-matrix:
 Charge =  3 Multiplicity = 4

                         Standard orientation:
 ---------------------------------------------------------------------
 Center     Atomic      Atomic             Coordinates (Angstroms)
 Number     Number       Type             X           Y           Z
 ---------------------------------------------------------------------
      1          6           0        2.363256    0.012026    0.000513
      2          6           0       -0.194786    0.461979   -0.000764
      3          1           0        2.944590    0.089812    0.955198
      4          1           0        2.946144    0.089796   -0.953214
      5          1           0       -0.134882    1.578154    0.000441
      6          6           0       -2.767490   -0.219365    0.000622
      7          6           0       -1.490668    0.031389   -0.000160
      8          6           0        0.977397   -0.335700   -0.000497
      9          1           0        0.917894   -1.459733   -0.000713
 ---------------------------------------------------------------------

 SCF Done:  E(UB3LYP) =  -191.075503180     A.U. after   15 cycles

 The electronic state is 4-A.
 Alpha  occ. eigenvalues --  -11.04447 -10.98568 -10.96952 -10.95433 -10.93345
 Alpha  occ. eigenvalues --   -1.55204  -1.50663  -1.42316  -1.29167  -1.20738
 Alpha  occ. eigenvalues --   -1.16042  -1.12391  -1.10429  -1.08487  -1.05845
 Alpha  occ. eigenvalues --   -1.02751  -0.96097
 Alpha virt. eigenvalues --   -0.80036  -0.77158  -0.71893  -0.61184  -0.51240
 Alpha virt. eigenvalues --   -0.49299  -0.47375  -0.45709  -0.43193  -0.42896
 Alpha virt. eigenvalues --   -0.40672  -0.39475  -0.37560  -0.37238  -0.36587

  Beta  occ. eigenvalues --  -11.00420 -10.97730 -10.96963 -10.94790 -10.93008
  Beta  occ. eigenvalues --   -1.52380  -1.46613  -1.39220  -1.27579  -1.19514
  Beta  occ. eigenvalues --   -1.14834  -1.11117  -1.07952  -1.01757
  Beta virt. eigenvalues --   -0.87145  -0.84845  -0.83197  -0.79909  -0.70735
  Beta virt. eigenvalues --   -0.62073  -0.56046  -0.50444  -0.48504  -0.46698
  Beta virt. eigenvalues --   -0.44154  -0.42647  -0.42514  -0.40330  -0.38918

 Mulliken charges and spin densities:
               1          2
     1  C   -0.008375   0.017434
     2  C    0.189533   0.237923
     3  H    0.353372   0.023952
     4  H    0.353378   0.023955
     5  H    0.283624   0.030166
     6  C    0.525197   1.872224
     7  C    0.727329   0.436310
     8  C    0.284936   0.367202
     9  H    0.291006  -0.009167
 Sum of Mulliken charges =   3.00000   3.00000

 Dipole moment (field-independent basis, Debye):
    X=              1.6124    Y=             -0.3746    Z=              0.0033  Tot=              1.6553
 Quadrupole moment (field-independent basis, Debye-Ang):
   XX=             50.0632   YY=            -14.7443   ZZ=            -20.8960
   XY=              0.8175   XZ=             -0.0004   YZ=              0.0026

  Exact polarizability:  97.667   1.895  30.511  -0.004   0.000  25.191
 Approx polarizability: 160.809   8.384  47.433  -0.019  -0.002  35.060

                      1                      2                      3
                      A                      A                      A
 Frequencies --    145.4996               182.5972               333.7807
 Red. masses --      3.0543                 5.1460                 1.1547
 Frc consts  --      0.0381                 0.1011                 0.0758
 IR Inten    --     10.3229                12.2062                 1.3543

                      4                      5                      6
                      A                      A                      A
 Frequencies --    344.6240               404.5905               532.3048
 Red. masses --      3.6344                 4.8999                 7.4904
 Frc consts  --      0.2543                 0.4726                 1.2505
 IR Inten    --      2.8722                 2.3543                 6.0191

                      7                      8                      9
                      A                      A                      A
 Frequencies --    696.2605               779.2430               811.2426
 Red. masses --      1.1378                 1.4322                 3.0124
 Frc consts  --      0.3250                 0.5124                 1.1681
 IR Inten    --     34.2214                31.7311                10.7603

                     10                     11                     12
                      A                      A                      A
 Frequencies --    969.9909               997.7689              1149.8281
 Red. masses --      1.7461                 2.3196                 1.8060
 Frc consts  --      0.9680                 1.3606                 1.4068
 IR Inten    --      1.2558                23.5440                43.5012

                     13                     14                     15
                      A                      A                      A
 Frequencies --   1200.6095              1279.9944              1323.3542
 Red. masses --      1.4356                 1.5252                 1.1321
 Frc consts  --      1.2192                 1.4722                 1.1681
 IR Inten    --     35.3392                38.7379                82.0878

                     16                     17                     18
                      A                      A                      A
 Frequencies --   1466.4100              1788.4827              2773.1075
 Red. masses --      3.7662                11.3152                 1.0792
 Frc consts  --      4.7716                21.3246                 4.8899
 IR Inten    --    107.6766                46.6831               328.4126

                     19                     20                     21
                      A                      A                      A
 Frequencies --   2784.5750              2820.5518              2878.1406
 Red. masses --      1.0495                 1.0790                 1.1182
 Frc consts  --      4.7947                 5.0574                 5.4575
 IR Inten    --    587.0004               402.6246               273.7386

 - Thermochemistry -
 -------------------
 Temperature   298.150 Kelvin.  Pressure   1.00000 Atm.
 Atom     1 has atomic number  6 and mass  12.00000

 Molecular mass:    64.03130 amu.
 Principal axes and moments of inertia in atomic units:
                           1         2         3
     Eigenvalues --    39.30838 774.99493 801.19545
           X            0.99999  -0.00478   0.00002
           Y            0.00478   0.99999   0.00026
           Z           -0.00002  -0.00026   1.00000
 This molecule is an asymmetric top.
 Rotational symmetry number  1.
 Rotational temperatures (Kelvin)      2.20344     0.11176     0.10811
 Rotational constants (GHZ):          45.91237     2.32871     2.25256
 Zero-point vibrational energy     153498.6 (Joules/Mol)
                                   36.68704 (Kcal/Mol)
 Warning -- explicit consideration of   6 degrees of freedom as
           vibrations may cause significant error
 Vibrational temperatures:    209.34   262.72   480.24   495.84   582.11
          (Kelvin)            765.87  1001.76  1121.16  1167.20  1395.60
                             1435.57  1654.34  1727.41  1841.62  1904.01
                             2109.83  2573.22  3989.88  4006.38  4058.14
                             4141.00

 Zero-point correction=                           0.058465 (Hartree/Particle)
 Thermal correction to Energy=                    0.064209
 Thermal correction to Enthalpy=                  0.065153
 Thermal correction to Gibbs Free Energy=         0.029072
 Sum of electronic and zero-point Energies=           -191.017039
 Sum of electronic and thermal Energies=              -191.011294
 Sum of electronic and thermal Enthalpies=            -191.010350
 Sum of electronic and thermal Free Energies=         -191.046431

                     E (Thermal)             CV                S
                      KCal/Mol        Cal/Mol-Kelvin    Cal/Mol-Kelvin
 Total                   40.292             19.363             75.938
 Electronic               0.000              0.000              2.755
 Translational            0.889              2.981             38.389
 Rotational               0.889              2.981             24.704
 Vibrational             38.514             13.401             10.090
 Vibration     1          0.617              1.908              2.730
 Vibration     2          0.630              1.863              2.302
 Vibration     3          0.715              1.608              1.242
 Vibration     4          0.723              1.586              1.191
 Vibration     5          0.770              1.460              0.946
 Vibration     6          0.887              1.179              0.582

 Normal termination of Gaussian 09 at Mon Jun 20 12:36:01 2016.
