 Gaussian 09, Revision E.01,
 Gaussian 09:  EM64L-G09RevE.01 30-Nov-2015

 ---------------------------------------------
 #p b3lyp/6-311++G(3df,2p) freq symmetry=Loose
 ---------------------------------------------

 ---------
 b3lyp opt
 ---------
 Symbolic Z-matrix:
 Charge =  3 Multiplicity = 2

                         Standard orientation:
 ---------------------------------------------------------------------
 Center     Atomic      Atomic             Coordinates (Angstroms)
 Number     Number       Type             X           Y           Z
 ---------------------------------------------------------------------
      1          6           0       -0.023021    0.641668   -0.000645
      2          1           0       -0.074662    1.573217    0.736312
      3          1           0       -3.468408   -0.870726   -0.000027
      4          1           0        3.492328   -0.856711    0.000996
      5          6           0        1.270580    0.023763   -0.000041
      6          6           0       -1.248055    0.000706   -0.000221
      7          6           0        2.459569   -0.445740   -0.000016
      8          1           0       -0.071411    1.576165   -0.732606
      9          6           0       -2.438713   -0.457388    0.000144
 ---------------------------------------------------------------------

 SCF Done:  E(UB3LYP) =  -191.093064639     A.U. after   35 cycles

 The electronic state is 2-A.
 Alpha  occ. eigenvalues --  -10.97530 -10.96722 -10.96421 -10.95169 -10.93960
 Alpha  occ. eigenvalues --   -1.54608  -1.48836  -1.43167  -1.27947  -1.21670
 Alpha  occ. eigenvalues --   -1.17695  -1.16752  -1.10508  -1.02568  -0.98020
 Alpha  occ. eigenvalues --   -0.97633
 Alpha virt. eigenvalues --   -0.89372  -0.70339  -0.66445  -0.66382  -0.65611
 Alpha virt. eigenvalues --   -0.55101  -0.48973  -0.47461  -0.47342  -0.45763
 Alpha virt. eigenvalues --   -0.44046  -0.42399  -0.39673  -0.38328  -0.37604

  Beta  occ. eigenvalues --  -10.96911 -10.96319 -10.95854 -10.95284 -10.93750
  Beta  occ. eigenvalues --   -1.53574  -1.46407  -1.42109  -1.27070  -1.21106
  Beta  occ. eigenvalues --   -1.17071  -1.16534  -1.10602  -0.97463  -0.97383
  Beta virt. eigenvalues --   -0.88507  -0.88104  -0.66627  -0.66256  -0.64692
  Beta virt. eigenvalues --   -0.63523  -0.54330  -0.48136  -0.47532  -0.46730
  Beta virt. eigenvalues --   -0.45600  -0.43714  -0.42098  -0.39571  -0.37924

 Mulliken charges and spin densities:
               1          2
     1  C   -0.482380   0.105623
     2  H    0.366160  -0.003759
     3  H    0.488551  -0.001675
     4  H    0.490017  -0.010989
     5  C    0.222169   0.522735
     6  C    0.244597   0.063543
     7  C    0.705463   0.336239
     8  H    0.365289  -0.003456
     9  C    0.600135  -0.008261
 Sum of Mulliken charges =   3.00000   1.00000

 Dipole moment (field-independent basis, Debye):
    X=              0.4088    Y=              0.5211    Z=              0.0082  Tot=              0.6623
 Quadrupole moment (field-independent basis, Debye-Ang):
   XX=             51.0005   YY=            -10.7495   ZZ=            -21.1162
   XY=              0.1825   XZ=             -0.0034   YZ=              0.0054

  Exact polarizability: 117.454   2.244  35.284  -0.012   0.008  25.403
 Approx polarizability: 374.858  19.950  60.366   0.002   0.017  37.690

                      1                      2                      3
                      A                      A                      A
 Frequencies --    143.2256               248.1092               313.8271
 Red. masses --      3.6146                 1.7361                 3.7740
 Frc consts  --      0.0437                 0.0630                 0.2190
 IR Inten    --      3.1063               110.0525                 2.1821

                      4                      5                      6
                      A                      A                      A
 Frequencies --    321.0919               518.3296               524.2257
 Red. masses --      4.1638                 2.2299                 2.5687
 Frc consts  --      0.2529                 0.3530                 0.4159
 IR Inten    --     15.9268                23.9810               210.5676

                      7                      8                      9
                      A                      A                      A
 Frequencies --    558.1030               712.6905               755.1577
 Red. masses --      1.5433                 1.2361                 1.2777
 Frc consts  --      0.2832                 0.3699                 0.4293
 IR Inten    --    220.6247                40.5065                27.1138

                     10                     11                     12
                      A                      A                      A
 Frequencies --    761.0555               857.2650               861.2618
 Red. masses --      1.3984                 4.2502                 1.3936
 Frc consts  --      0.4772                 1.8403                 0.6091
 IR Inten    --     11.8669                26.2509                14.0162

                     13                     14                     15
                      A                      A                      A
 Frequencies --    928.0914               968.1224              1251.7421
 Red. masses --      1.2282                 1.3488                 3.6258
 Frc consts  --      0.6233                 0.7448                 3.3472
 IR Inten    --      1.5224                17.8356               263.9203

                     16                     17                     18
                      A                      A                      A
 Frequencies --   1840.6883              1954.5902              2143.9234
 Red. masses --      6.0690                 5.5409                 1.0460
 Frc consts  --     12.1152                12.4722                 2.8327
 IR Inten    --   1561.3527               298.2557               379.9009

                     19                     20                     21
                      A                      A                      A
 Frequencies --   2347.2586              2990.5313              3011.2080
 Red. masses --      1.1039                 1.1729                 1.1724
 Frc consts  --      3.5836                 6.1801                 6.2635
 IR Inten    --    692.6342               633.6808               359.9448

 - Thermochemistry -
 -------------------
 Temperature   298.150 Kelvin.  Pressure   1.00000 Atm.
 Atom     1 has atomic number  6 and mass  12.00000

 Molecular mass:    64.03130 amu.
 Principal axes and moments of inertia in atomic units:
                           1         2         3
     Eigenvalues --    62.13723 741.16018 795.53167
           X            1.00000  -0.00107   0.00000
           Y            0.00107   1.00000   0.00019
           Z           -0.00000  -0.00019   1.00000
 This molecule is an asymmetric top.
 Rotational symmetry number  1.
 Rotational temperatures (Kelvin)      1.39391     0.11686     0.10888
 Rotational constants (GHZ):          29.04444     2.43502     2.26860
 Zero-point vibrational energy     143614.7 (Joules/Mol)
                                   34.32473 (Kcal/Mol)
 Warning -- explicit consideration of   7 degrees of freedom as
           vibrations may cause significant error
 Vibrational temperatures:    206.07   356.97   451.53   461.98   745.76
          (Kelvin)            754.24   802.98  1025.40  1086.50  1094.99
                             1233.41  1239.16  1335.31  1392.91  1800.98
                             2648.34  2812.22  3084.62  3377.18  4302.70
                             4332.45

 Zero-point correction=                           0.054700 (Hartree/Particle)
 Thermal correction to Energy=                    0.060599
 Thermal correction to Enthalpy=                  0.061543
 Thermal correction to Gibbs Free Energy=         0.025839
 Sum of electronic and zero-point Energies=           -191.038365
 Sum of electronic and thermal Energies=              -191.032466
 Sum of electronic and thermal Enthalpies=            -191.031521
 Sum of electronic and thermal Free Energies=         -191.067225

                     E (Thermal)             CV                S
                      KCal/Mol        Cal/Mol-Kelvin    Cal/Mol-Kelvin
 Total                   38.027             20.907             75.146
 Electronic               0.000              0.000              1.377
 Translational            0.889              2.981             38.389
 Rotational               0.889              2.981             25.108
 Vibrational             36.249             14.946             10.271
 Vibration     1          0.616              1.910              2.760
 Vibration     2          0.662              1.766              1.744
 Vibration     3          0.702              1.647              1.342
 Vibration     4          0.707              1.633              1.305
 Vibration     5          0.873              1.209              0.614
 Vibration     6          0.879              1.196              0.600
 Vibration     7          0.914              1.122              0.528

 Normal termination of Gaussian 09 at Mon Jun 20 10:50:06 2016.
