 Gaussian 09, Revision E.01,
 Gaussian 09:  EM64L-G09RevE.01 30-Nov-2015

 ------------------------------------------------------
 #p b3lyp/6-311++G(3df,2p) freq IOp(2/17=3) IOp(2/18=3)
 ------------------------------------------------------

 ---------
 b3lyp opt
 ---------
 Symbolic Z-matrix:
 Charge =  3 Multiplicity = 2

                         Standard orientation:
 ---------------------------------------------------------------------
 Center     Atomic      Atomic             Coordinates (Angstroms)
 Number     Number       Type             X           Y           Z
 ---------------------------------------------------------------------
      1          6           0        0.000000    1.404096    0.000000
      2          6           0        0.418320    0.023758    0.000000
      3          6           0       -0.476693   -1.092776    0.000000
      4          1           0       -1.072562    1.811814    0.000000
      5          1           0        1.497439   -0.181941    0.000000
      6          1           0       -1.624327   -1.029351    0.000000
      7          6           0       -0.344694   -2.374639    0.000000
      8          6           0        0.669545    2.521242    0.000000
      9          1           0       -0.399422   -3.490610    0.000000
 ---------------------------------------------------------------------

 SCF Done:  E(UB3LYP) =  -191.090160190     A.U. after   19 cycles

 The electronic state is 2-A'.
 Alpha  occ. eigenvalues --  -11.07432 -11.00412 -10.97400 -10.92163 -10.90153
 Alpha  occ. eigenvalues --   -1.54787  -1.50886  -1.40515  -1.24762  -1.21720
 Alpha  occ. eigenvalues --   -1.18299  -1.14513  -1.09179  -1.07490  -1.04785
 Alpha  occ. eigenvalues --   -0.99642
 Alpha virt. eigenvalues --   -0.83657  -0.81765  -0.78595  -0.67385  -0.59638
 Alpha virt. eigenvalues --   -0.51371  -0.50806  -0.48942  -0.46469  -0.42586
 Alpha virt. eigenvalues --   -0.40932  -0.40349  -0.40281  -0.39260  -0.38102

  Beta  occ. eigenvalues --  -11.04903 -11.00561 -10.97433 -10.92013 -10.90109
  Beta  occ. eigenvalues --   -1.54089  -1.49967  -1.39735  -1.24387  -1.21069
  Beta  occ. eigenvalues --   -1.18258  -1.13296  -1.07747  -1.04469  -0.98669
  Beta virt. eigenvalues --   -0.86888  -0.82557  -0.79175  -0.77350  -0.65968
  Beta virt. eigenvalues --   -0.59258  -0.51353  -0.50719  -0.48990  -0.46325
  Beta virt. eigenvalues --   -0.42560  -0.40817  -0.40374  -0.40148  -0.38737

 Mulliken charges and spin densities:
               1          2
     1  C    0.360788   0.073488
     2  C    0.536378  -0.067815
     3  C    0.078924   0.032180
     4  H    0.287497  -0.002422
     5  H    0.292138  -0.002276
     6  H    0.268487   0.001429
     7  C    0.369409  -0.079224
     8  C    0.304326   1.042455
     9  H    0.502053   0.002184
 Sum of Mulliken charges =   3.00000   1.00000

 Dipole moment (field-independent basis, Debye):
    X=             -0.5455    Y=             -0.8432    Z=              0.0000  Tot=              1.0043
 Quadrupole moment (field-independent basis, Debye-Ang):
   XX=            -10.1030   YY=             48.9214   ZZ=            -24.2594
   XY=             10.9291   XZ=              0.0000   YZ=              0.0000

  Exact polarizability:  36.002  11.736  92.355  -0.000  -0.002  24.387
 Approx polarizability:  62.070  30.263 193.136  -0.000  -0.000  33.767

                      1                      2                      3
                     A"                     A'                     A"
 Frequencies --    144.0301               194.0078               214.0745
 Red. masses --      4.1373                 3.6684                 2.2457
 Frc consts  --      0.0506                 0.0814                 0.0606
 IR Inten    --     17.2014                25.5689                 1.8329

                      4                      5                      6
                     A'                     A'                     A"
 Frequencies --    305.6973               414.0067               590.2663
 Red. masses --      4.2483                 3.7254                 1.4508
 Frc consts  --      0.2339                 0.3762                 0.2978
 IR Inten    --      5.3327                 6.2637                 0.2376

                      7                      8                      9
                     A"                     A'                     A"
 Frequencies --    698.3706               787.8051               803.8069
 Red. masses --      1.3564                 2.1817                 1.3927
 Frc consts  --      0.3898                 0.7978                 0.5302
 IR Inten    --    116.5231                47.7087                17.0233

                     10                     11                     12
                     A'                     A"                     A'
 Frequencies --    912.1897               947.0198              1036.4959
 Red. masses --      1.2061                 1.6100                 1.4215
 Frc consts  --      0.5913                 0.8508                 0.8998
 IR Inten    --      3.3129                 4.2742                17.5940

                     13                     14                     15
                     A'                     A'                     A'
 Frequencies --   1101.9609              1180.8507              1398.2106
 Red. masses --      1.8329                 3.0109                 1.4029
 Frc consts  --      1.3114                 2.4737                 1.6159
 IR Inten    --      0.6788                31.4884                 7.3039

                     16                     17                     18
                     A'                     A'                     A'
 Frequencies --   1601.4752              1740.4611              2577.0457
 Red. masses --      8.3311                 5.2510                 1.0737
 Frc consts  --     12.5891                 9.3718                 4.2012
 IR Inten    --    472.3926               860.1818                39.0926

                     19                     20                     21
                     A'                     A'                     A'
 Frequencies --   2603.4837              2936.9036              3047.7765
 Red. masses --      1.0746                 1.1554                 1.0950
 Frc consts  --      4.2916                 5.8719                 5.9929
 IR Inten    --    693.8214               498.4828               133.7160

 - Thermochemistry -
 -------------------
 Temperature   298.150 Kelvin.  Pressure   1.00000 Atm.
 Atom     1 has atomic number  6 and mass  12.00000

 Molecular mass:    64.03130 amu.
 Principal axes and moments of inertia in atomic units:
                           1         2         3
     Eigenvalues --    37.34815 735.19492 772.54306
           X            0.19424   0.98095   0.00000
           Y            0.98095  -0.19424   0.00000
           Z            0.00000  -0.00000   1.00000
 This molecule is an asymmetric top.
 Rotational symmetry number  1.
 Rotational temperatures (Kelvin)      2.31909     0.11781     0.11212
 Rotational constants (GHZ):          48.32211     2.45478     2.33610
 Zero-point vibrational energy     150944.4 (Joules/Mol)
                                   36.07659 (Kcal/Mol)
 Warning -- explicit consideration of   6 degrees of freedom as
           vibrations may cause significant error
 Vibrational temperatures:    207.23   279.13   308.01   439.83   595.66
          (Kelvin)            849.26  1004.80  1133.47  1156.50  1312.44
                             1362.55  1491.28  1585.47  1698.98  2011.71
                             2304.16  2504.13  3707.79  3745.83  4225.54
                             4385.07

 Zero-point correction=                           0.057492 (Hartree/Particle)
 Thermal correction to Energy=                    0.063418
 Thermal correction to Enthalpy=                  0.064363
 Thermal correction to Gibbs Free Energy=         0.028614
 Sum of electronic and zero-point Energies=           -191.032668
 Sum of electronic and thermal Energies=              -191.026742
 Sum of electronic and thermal Enthalpies=            -191.025798
 Sum of electronic and thermal Free Energies=         -191.061547

                     E (Thermal)             CV                S
                      KCal/Mol        Cal/Mol-Kelvin    Cal/Mol-Kelvin
 Total                   39.796             19.792             75.240
 Electronic               0.000              0.000              1.377
 Translational            0.889              2.981             38.389
 Rotational               0.889              2.981             24.565
 Vibrational             38.018             13.831             10.908
 Vibration     1          0.616              1.909              2.750
 Vibration     2          0.635              1.848              2.189
 Vibration     3          0.644              1.820              2.009
 Vibration     4          0.696              1.663              1.386
 Vibration     5          0.778              1.440              0.913
 Vibration     6          0.948              1.053              0.467

 Normal termination of Gaussian 09 at Thu Jan 31 08:39:53 2019.
