 Gaussian 09, Revision E.01,
 Gaussian 09:  EM64L-G09RevE.01 30-Nov-2015

 ------------------------------------------------------
 #p b3lyp/6-311++G(3df,2p) freq IOp(2/17=3) IOp(2/18=3)
 ------------------------------------------------------

 ---------
 b3lyp opt
 ---------
 Symbolic Z-matrix:
 Charge =  1 Multiplicity = 4

                         Standard orientation:
 ---------------------------------------------------------------------
 Center     Atomic      Atomic             Coordinates (Angstroms)
 Number     Number       Type             X           Y           Z
 ---------------------------------------------------------------------
      1          6           0        0.133683   -0.748714    0.000000
      2          6           0        0.000000    0.640936    0.000000
      3          6           0       -0.860406    1.757464    0.000000
      4          1           0       -0.450373    2.757381    0.000000
      5          1           0       -1.931068    1.614310    0.000000
      6          6           0       -0.480043   -1.980283    0.000000
      7          1           0       -0.187063   -3.019337    0.000000
      8          6           0        1.247840    0.076997    0.000000
      9          1           0        2.322060    0.169245    0.000000
 ---------------------------------------------------------------------

 SCF Done:  E(UB3LYP) =  -192.462392541     A.U. after   14 cycles

 The electronic state is 4-A'.
 Alpha  occ. eigenvalues --  -10.47627 -10.47361 -10.45916 -10.45901 -10.43364
 Alpha  occ. eigenvalues --   -1.18070  -0.98772  -0.96714  -0.81128  -0.74980
 Alpha  occ. eigenvalues --   -0.72872  -0.67739  -0.66036  -0.63367  -0.58451
 Alpha  occ. eigenvalues --   -0.51917  -0.47924  -0.45497
 Alpha virt. eigenvalues --   -0.23812  -0.18743  -0.15198  -0.12452  -0.12339
 Alpha virt. eigenvalues --   -0.10215  -0.09705  -0.09204  -0.08741  -0.07656
 Alpha virt. eigenvalues --   -0.05437  -0.05235  -0.04627  -0.03138  -0.02921

  Beta  occ. eigenvalues --  -10.47565 -10.47189 -10.45185 -10.43278 -10.42190
  Beta  occ. eigenvalues --   -1.16778  -0.94753  -0.91939  -0.79748  -0.72841
  Beta  occ. eigenvalues --   -0.71250  -0.66767  -0.62270  -0.61042  -0.57457
  Beta virt. eigenvalues --   -0.38297  -0.31961  -0.30583  -0.19224  -0.14814
  Beta virt. eigenvalues --   -0.14070  -0.12134  -0.11771  -0.09927  -0.09210
  Beta virt. eigenvalues --   -0.08290  -0.08005  -0.06890  -0.05216  -0.03991

 Mulliken charges and spin densities:
               1          2
     1  C    0.317555   0.038424
     2  C    0.234948   0.116502
     3  C   -0.400707   0.786795
     4  H    0.238696  -0.019519
     5  H    0.227647  -0.024313
     6  C   -0.257177   1.619982
     7  H    0.270528   0.004204
     8  C    0.056664   0.478677
     9  H    0.311845  -0.000751
 Sum of Mulliken charges =   1.00000   3.00000

 Dipole moment (field-independent basis, Debye):
    X=              0.6818    Y=              0.0287    Z=              0.0000  Tot=              0.6824
 Quadrupole moment (field-independent basis, Debye-Ang):
   XX=            -19.1020   YY=            -10.0194   ZZ=            -27.7534
   XY=             -2.1670   XZ=              0.0000   YZ=              0.0000

  Exact polarizability:  51.050  -1.818  71.223   0.000  -0.000  29.543
 Approx polarizability:  79.116   1.001  97.145  -0.000  -0.000  42.945

                      1                      2                      3
                     A"                     A'                     A"
 Frequencies --    170.5317               223.7967               314.6151
 Red. masses --      1.0915                 3.0183                 2.0265
 Frc consts  --      0.0187                 0.0891                 0.1182
 IR Inten    --      0.3747                 3.6017                23.4091

                      4                      5                      6
                     A'                     A"                     A"
 Frequencies --    449.8120               512.6833               599.4582
 Red. masses --      2.3197                 2.5811                 1.9421
 Frc consts  --      0.2765                 0.3997                 0.4112
 IR Inten    --      1.5570                 0.1579                 8.2385

                      7                      8                      9
                     A'                     A"                     A"
 Frequencies --    762.8030               788.3537               836.8003
 Red. masses --      1.8153                 1.4067                 1.4444
 Frc consts  --      0.6223                 0.5151                 0.5959
 IR Inten    --     13.6824                10.4414                41.8102

                     10                     11                     12
                     A'                     A'                     A'
 Frequencies --    854.9875               895.7313              1037.2770
 Red. masses --      2.2731                 2.5113                 1.6170
 Frc consts  --      0.9790                 1.1872                 1.0251
 IR Inten    --      2.6863                18.1712                24.7085

                     13                     14                     15
                     A'                     A'                     A'
 Frequencies --   1073.6143              1240.6345              1445.2049
 Red. masses --      1.9548                 4.8126                 3.3334
 Frc consts  --      1.3275                 4.3643                 4.1020
 IR Inten    --      6.2028                 8.3655                39.6066

                     16                     17                     18
                     A'                     A'                     A'
 Frequencies --   1472.9112              1764.3149              3153.7936
 Red. masses --      1.4631                 9.0920                 1.0504
 Frc consts  --      1.8701                16.6748                 6.1557
 IR Inten    --     28.1317                42.1903                19.3489

                     19                     20                     21
                     A'                     A'                     A'
 Frequencies --   3237.1728              3256.4535              3271.5927
 Red. masses --      1.0956                 1.1120                 1.1232
 Frc consts  --      6.7648                 6.9479                 7.0830
 IR Inten    --     55.3672                76.7658                 9.7364

 - Thermochemistry -
 -------------------
 Temperature   298.150 Kelvin.  Pressure   1.00000 Atm.
 Atom     1 has atomic number  6 and mass  12.00000

 Molecular mass:    64.03130 amu.
 Principal axes and moments of inertia in atomic units:
                           1         2         3
     Eigenvalues --   137.91800 416.66746 554.58545
           X           -0.13193   0.99126   0.00000
           Y            0.99126   0.13193   0.00000
           Z           -0.00000   0.00000   1.00000
 This molecule is an asymmetric top.
 Rotational symmetry number  1.
 Rotational temperatures (Kelvin)      0.62801     0.20787     0.15618
 Rotational constants (GHZ):          13.08561     4.33137     3.25422
 Zero-point vibrational energy     163664.3 (Joules/Mol)
                                   39.11672 (Kcal/Mol)
 Warning -- explicit consideration of   6 degrees of freedom as
           vibrations may cause significant error
 Vibrational temperatures:    245.36   321.99   452.66   647.18   737.64
          (Kelvin)            862.49  1097.50  1134.26  1203.97  1230.13
                             1288.76  1492.41  1544.69  1784.99  2079.32
                             2119.19  2538.45  4537.60  4657.56  4685.30
                             4707.09

 Zero-point correction=                           0.062336 (Hartree/Particle)
 Thermal correction to Energy=                    0.067789
 Thermal correction to Enthalpy=                  0.068733
 Thermal correction to Gibbs Free Energy=         0.033172
 Sum of electronic and zero-point Energies=           -192.400056
 Sum of electronic and thermal Energies=              -192.394603
 Sum of electronic and thermal Enthalpies=            -192.393659
 Sum of electronic and thermal Free Energies=         -192.429221

                     E (Thermal)             CV                S
                      KCal/Mol        Cal/Mol-Kelvin    Cal/Mol-Kelvin
 Total                   42.538             18.977             74.845
 Electronic               0.000              0.000              2.755
 Translational            0.889              2.981             38.389
 Rotational               0.889              2.981             24.970
 Vibrational             40.761             13.015              8.732
 Vibration     1          0.626              1.879              2.430
 Vibration     2          0.649              1.805              1.928
 Vibration     3          0.702              1.646              1.338
 Vibration     4          0.809              1.361              0.796
 Vibration     5          0.868              1.222              0.627
 Vibration     6          0.958              1.033              0.451

 Optimization completed.
    -- Stationary point found.
 Normal termination of Gaussian 09 at Thu Jan 31 07:35:02 2019.
