 Gaussian 09, Revision E.01,
 Gaussian 09:  EM64L-G09RevE.01 30-Nov-2015

 ------------------------------------------------------
 #p b3lyp/6-311++G(3df,2p) freq IOp(2/17=3) IOp(2/18=3)
 ------------------------------------------------------

 ---------
 b3lyp opt
 ---------
 Symbolic Z-matrix:
 Charge =  3 Multiplicity = 4

                         Standard orientation:
 ---------------------------------------------------------------------
 Center     Atomic      Atomic             Coordinates (Angstroms)
 Number     Number       Type             X           Y           Z
 ---------------------------------------------------------------------
      1          6           0        0.275638   -0.665140    0.000000
      2          1           0        1.444810   -0.781994    0.000000
      3          6           0       -0.024142   -2.080221    0.000000
      4          1           0        0.154913    2.573824    0.000000
      5          6           0       -0.147549    0.421778   -1.015199
      6          1           0       -0.670275    0.387470   -1.995435
      7          6           0       -0.000000    1.473987    0.000000
      8          6           0       -0.147549    0.421778    1.015199
      9          1           0       -0.670275    0.387470    1.995435
 ---------------------------------------------------------------------

 SCF Done:  E(UB3LYP) =  -190.970861355     A.U. after   15 cycles

 The electronic state is 4-A".
 Alpha  occ. eigenvalues --  -11.08802 -11.01439 -11.01439 -10.98745 -10.98741
 Alpha  occ. eigenvalues --   -1.65796  -1.50589  -1.37879  -1.32328  -1.24651
 Alpha  occ. eigenvalues --   -1.20435  -1.15561  -1.14489  -1.10949  -1.10848
 Alpha  occ. eigenvalues --   -1.03491  -0.98110
 Alpha virt. eigenvalues --   -0.84910  -0.82930  -0.75797  -0.56283  -0.55736
 Alpha virt. eigenvalues --   -0.54840  -0.49309  -0.48791  -0.48654  -0.46881
 Alpha virt. eigenvalues --   -0.43790  -0.43206  -0.41331  -0.41297  -0.38531

  Beta  occ. eigenvalues --  -11.04917 -11.00904 -11.00903 -10.98517 -10.98060
  Beta  occ. eigenvalues --   -1.63661  -1.46042  -1.36107  -1.28554  -1.23223
  Beta  occ. eigenvalues --   -1.17849  -1.13829  -1.12386  -1.09751
  Beta virt. eigenvalues --   -0.94294  -0.86799  -0.79739  -0.78962  -0.76928
  Beta virt. eigenvalues --   -0.70856  -0.55429  -0.53497  -0.52453  -0.48421
  Beta virt. eigenvalues --   -0.47963  -0.46911  -0.45985  -0.43481  -0.42057

 Mulliken charges and spin densities:
               1          2
     1  C    0.278575   0.022115
     2  H    0.365000   0.058811
     3  C    0.302931   1.827590
     4  H    0.420294   0.001379
     5  C    0.207955   0.318049
     6  H    0.388911  -0.002461
     7  C    0.439468   0.458931
     8  C    0.207955   0.318049
     9  H    0.388911  -0.002461
 Sum of Mulliken charges =   3.00000   3.00000

 Dipole moment (field-independent basis, Debye):
    X=              0.1252    Y=             -0.7898    Z=             -0.0000  Tot=              0.7997
 Quadrupole moment (field-independent basis, Debye-Ang):
   XX=            -16.7274   YY=             10.5886   ZZ=             -7.5625
   XY=             -1.7503   XZ=              0.0000   YZ=             -0.0000

  Exact polarizability:  26.556  -1.211  53.055   0.000  -0.000  38.500
 Approx polarizability:  42.507  -0.096  84.758  -0.000  -0.000  63.251

                      1                      2                      3
                     A'                     A"                     A'
 Frequencies --    215.0896               349.2081               358.8833
 Red. masses --      2.3569                 3.6281                 2.9083
 Frc consts  --      0.0642                 0.2607                 0.2207
 IR Inten    --      2.9140                 0.9115                19.2539

                      4                      5                      6
                     A'                     A"                     A'
 Frequencies --    588.1753               621.7945               739.7484
 Red. masses --      2.2182                 1.1838                 2.7053
 Frc consts  --      0.4521                 0.2697                 0.8722
 IR Inten    --     14.8231                39.8909                 1.8385

                      7                      8                      9
                     A"                     A'                     A'
 Frequencies --    800.9081               815.4545               900.9522
 Red. masses --      9.6047                 1.4397                 1.9955
 Frc consts  --      3.6299                 0.5641                 0.9544
 IR Inten    --     10.5997                12.2327                36.3783

                     10                     11                     12
                     A"                     A"                     A'
 Frequencies --    933.5794               946.6379              1021.0971
 Red. masses --      1.6758                 1.3909                 1.8055
 Frc consts  --      0.8606                 0.7344                 1.1091
 IR Inten    --      0.0336                10.1781                10.2585

                     13                     14                     15
                     A'                     A"                     A"
 Frequencies --   1066.5830              1116.4408              1164.6302
 Red. masses --      2.1229                 1.4611                 1.5693
 Frc consts  --      1.4229                 1.0730                 1.2541
 IR Inten    --     10.1163                25.9143                86.9619

                     16                     17                     18
                     A'                     A'                     A'
 Frequencies --   1174.7150              1285.9020              2317.6286
 Red. masses --      3.8517                 2.3981                 1.0670
 Frc consts  --      3.1316                 2.3363                 3.3769
 IR Inten    --     48.0359                56.2406               440.1748

                     19                     20                     21
                     A'                     A"                     A'
 Frequencies --   2928.9229              2936.6670              2957.8962
 Red. masses --      1.0991                 1.0987                 1.1119
 Frc consts  --      5.5555                 5.5827                 5.7315
 IR Inten    --    332.1006               522.4080               184.4495

 - Thermochemistry -
 -------------------
 Temperature   298.150 Kelvin.  Pressure   1.00000 Atm.
 Atom     1 has atomic number  6 and mass  12.00000

 Molecular mass:    64.03130 amu.
 Principal axes and moments of inertia in atomic units:
                           1         2         3
     Eigenvalues --   132.21912 355.48398 457.24766
           X           -0.04798   0.00000   0.99885
           Y            0.99885   0.00000   0.04798
           Z           -0.00000   1.00000   0.00000
 This molecule is an asymmetric top.
 Rotational symmetry number  1.
 Rotational temperatures (Kelvin)      0.65508     0.24365     0.18942
 Rotational constants (GHZ):          13.64962     5.07686     3.94697
 Zero-point vibrational energy     150974.2 (Joules/Mol)
                                   36.08370 (Kcal/Mol)
 Warning -- explicit consideration of   4 degrees of freedom as
           vibrations may cause significant error
 Vibrational temperatures:    309.47   502.43   516.35   846.25   894.62
          (Kelvin)           1064.33  1152.33  1173.26  1296.27  1343.21
                             1362.00  1469.13  1534.57  1606.31  1675.64
                             1690.15  1850.12  3334.55  4214.06  4225.20
                             4255.75

 Zero-point correction=                           0.057503 (Hartree/Particle)
 Thermal correction to Energy=                    0.062434
 Thermal correction to Enthalpy=                  0.063378
 Thermal correction to Gibbs Free Energy=         0.029034
 Sum of electronic and zero-point Energies=           -190.913358
 Sum of electronic and thermal Energies=              -190.908428
 Sum of electronic and thermal Enthalpies=            -190.907483
 Sum of electronic and thermal Free Energies=         -190.941827

                     E (Thermal)             CV                S
                      KCal/Mol        Cal/Mol-Kelvin    Cal/Mol-Kelvin
 Total                   39.178             17.921             72.283
 Electronic               0.000              0.000              2.755
 Translational            0.889              2.981             38.389
 Rotational               0.889              2.981             24.578
 Vibrational             37.400             11.960              6.561
 Vibration     1          0.645              1.818              2.000
 Vibration     2          0.726              1.577              1.170
 Vibration     3          0.734              1.557              1.127
 Vibration     4          0.945              1.057              0.470

 Normal termination of Gaussian 09 at Thu Jan 31 08:53:57 2019.
