 Gaussian 09, Revision E.01,
 Gaussian 09:  EM64L-G09RevE.01 30-Nov-2015

 ---------------------------------------------
 #p b3lyp/6-311++G(3df,2p) freq symmetry=Loose
 ---------------------------------------------

 ---------
 b3lyp opt
 ---------
 Symbolic Z-matrix:
 Charge =  2 Multiplicity = 3

                         Standard orientation:
 ---------------------------------------------------------------------
 Center     Atomic      Atomic             Coordinates (Angstroms)
 Number     Number       Type             X           Y           Z
 ---------------------------------------------------------------------
      1          6           0        1.398128    0.703158   -0.000169
      2          6           0        1.365942   -0.737607    0.000228
      3          1           0        1.984717    1.620540   -0.000801
      4          1           0        1.681332   -1.319107    0.899416
      5          1           0        1.683041   -1.318844   -0.898396
      6          6           0        0.169035    0.102079   -0.000244
      7          6           0       -1.227078    0.293168    0.000305
      8          1           0       -1.724567    1.318603    0.002215
      9          6           0       -2.310114   -0.410996   -0.000525
 ---------------------------------------------------------------------

 SCF Done:  E(UB3LYP) =  -191.828734738     A.U. after   18 cycles

 The electronic state is 3-A.
 Alpha  occ. eigenvalues --  -10.83649 -10.71650 -10.71364 -10.70637 -10.64444
 Alpha  occ. eigenvalues --   -1.38244  -1.31920  -1.12741  -1.04869  -0.98624
 Alpha  occ. eigenvalues --   -0.96270  -0.91071  -0.89926  -0.82816  -0.81363
 Alpha  occ. eigenvalues --   -0.79323  -0.72080
 Alpha virt. eigenvalues --   -0.60868  -0.54348  -0.40393  -0.35129  -0.30889
 Alpha virt. eigenvalues --   -0.29208  -0.27935  -0.26491  -0.25659  -0.24683
 Alpha virt. eigenvalues --   -0.23603  -0.22470  -0.22317  -0.19451  -0.19312

  Beta  occ. eigenvalues --  -10.81073 -10.71649 -10.70725 -10.70216 -10.64406
  Beta  occ. eigenvalues --   -1.36717  -1.29749  -1.10720  -1.03291  -0.97209
  Beta  occ. eigenvalues --   -0.95385  -0.87779  -0.80907  -0.79834  -0.78962
  Beta virt. eigenvalues --   -0.67601  -0.61891  -0.56846  -0.49886  -0.37467
  Beta virt. eigenvalues --   -0.34887  -0.30534  -0.28854  -0.27427  -0.26223
  Beta virt. eigenvalues --   -0.25231  -0.24198  -0.22500  -0.22145  -0.22103

 Mulliken charges and spin densities:
               1          2
     1  C    0.350961   0.242458
     2  C   -0.409458  -0.041946
     3  H    0.366331  -0.005444
     4  H    0.287401   0.124373
     5  H    0.287436   0.124358
     6  C    0.400288   0.431225
     7  C    0.216259  -0.217444
     8  H    0.279059  -0.002967
     9  C    0.221722   1.345386
 Sum of Mulliken charges =   2.00000   2.00000

 Dipole moment (field-independent basis, Debye):
    X=             -2.0644    Y=              0.4821    Z=              0.0007  Tot=              2.1200
 Quadrupole moment (field-independent basis, Debye-Ang):
   XX=             10.1375   YY=            -13.5449   ZZ=            -23.6092
   XY=              0.0959   XZ=             -0.0021   YZ=              0.0045

  Exact polarizability:  82.703   1.487  42.874  -0.006  -0.003  29.654
 Approx polarizability: 154.996  14.920  74.155   0.015   0.012  41.838

                      1                      2                      3
                      A                      A                      A
 Frequencies --    154.5495               186.2851               226.6076
 Red. masses --      2.0883                 6.4015                 1.7744
 Frc consts  --      0.0294                 0.1309                 0.0537
 IR Inten    --      0.1014                 7.4709                10.7019

                      4                      5                      6
                      A                      A                      A
 Frequencies --    373.5950               445.4672               560.8206
 Red. masses --      3.3809                 1.1625                 2.1780
 Frc consts  --      0.2780                 0.1359                 0.4036
 IR Inten    --      0.4861                30.4417                 2.8815

                      7                      8                      9
                      A                      A                      A
 Frequencies --    676.1919               695.1196               880.6830
 Red. masses --      4.2037                 1.4647                 1.4033
 Frc consts  --      1.1325                 0.4170                 0.6413
 IR Inten    --      8.7691                22.0278                17.4441

                     10                     11                     12
                      A                      A                      A
 Frequencies --    942.3893               971.6585              1042.6195
 Red. masses --      1.4891                 1.5088                 1.4279
 Frc consts  --      0.7792                 0.8393                 0.9145
 IR Inten    --     49.9153                 4.8183                23.3718

                     13                     14                     15
                      A                      A                      A
 Frequencies --   1058.7273              1176.7296              1203.2440
 Red. masses --      2.4685                 1.2721                 3.5877
 Frc consts  --      1.6302                 1.0378                 3.0604
 IR Inten    --      1.0476               186.9841                27.0682

                     16                     17                     18
                      A                      A                      A
 Frequencies --   1549.9900              1559.3152              2677.5589
 Red. masses --      6.0674                 8.9781                 1.0731
 Frc consts  --      8.5884                12.8619                 4.5329
 IR Inten    --     65.3769                24.4363               372.5213

                     19                     20                     21
                      A                      A                      A
 Frequencies --   2778.8170              2795.6231              3167.3483
 Red. masses --      1.0900                 1.0534                 1.1152
 Frc consts  --      4.9589                 4.8507                 6.5917
 IR Inten    --    185.3403               386.2942               166.4077

 - Thermochemistry -
 -------------------
 Temperature   298.150 Kelvin.  Pressure   1.00000 Atm.
 Atom     1 has atomic number  6 and mass  12.00000

 Molecular mass:    64.03130 amu.
 Principal axes and moments of inertia in atomic units:
                           1         2         3
     Eigenvalues --    89.55092 508.86654 586.78493
           X            0.99957  -0.02940  -0.00004
           Y            0.02940   0.99957   0.00001
           Z            0.00004  -0.00001   1.00000
 This molecule is an asymmetric top.
 Rotational symmetry number  1.
 Rotational temperatures (Kelvin)      0.96720     0.17021     0.14761
 Rotational constants (GHZ):          20.15324     3.54659     3.07564
 Zero-point vibrational energy     150270.9 (Joules/Mol)
                                   35.91562 (Kcal/Mol)
 Warning -- explicit consideration of   6 degrees of freedom as
           vibrations may cause significant error
 Vibrational temperatures:    222.36   268.02   326.04   537.52   640.93
          (Kelvin)            806.89   972.89  1000.12  1267.10  1355.89
                             1398.00  1500.09  1523.27  1693.05  1731.20
                             2230.09  2243.50  3852.41  3998.09  4022.27
                             4557.10

 Zero-point correction=                           0.057235 (Hartree/Particle)
 Thermal correction to Energy=                    0.063078
 Thermal correction to Enthalpy=                  0.064022
 Thermal correction to Gibbs Free Energy=         0.027994
 Sum of electronic and zero-point Energies=           -191.771500
 Sum of electronic and thermal Energies=              -191.765657
 Sum of electronic and thermal Enthalpies=            -191.764712
 Sum of electronic and thermal Free Energies=         -191.800741

                     E (Thermal)             CV                S
                      KCal/Mol        Cal/Mol-Kelvin    Cal/Mol-Kelvin
 Total                   39.582             19.826             75.829
 Electronic               0.000              0.000              2.183
 Translational            0.889              2.981             38.389
 Rotational               0.889              2.981             24.795
 Vibrational             37.805             13.864             10.461
 Vibration     1          0.620              1.898              2.615
 Vibration     2          0.632              1.859              2.264
 Vibration     3          0.650              1.800              1.906
 Vibration     4          0.745              1.526              1.065
 Vibration     5          0.805              1.371              0.810
 Vibration     6          0.916              1.116              0.522

 Normal termination of Gaussian 09 at Mon Jun 20 08:58:45 2016.
