 Gaussian 09, Revision E.01,
 Gaussian 09:  EM64L-G09RevE.01 30-Nov-2015

 ---------------------------------------------
 #p b3lyp/6-311++G(3df,2p) freq symmetry=Loose
 ---------------------------------------------

 ---------
 b3lyp opt
 ---------
 Symbolic Z-matrix:
 Charge =  1 Multiplicity = 2

                         Standard orientation:
 ---------------------------------------------------------------------
 Center     Atomic      Atomic             Coordinates (Angstroms)
 Number     Number       Type             X           Y           Z
 ---------------------------------------------------------------------
      1          6           0       -0.978203   -0.078508    0.467962
      2          6           0       -0.000565    0.981929   -0.000952
      3          1           0       -0.956593   -0.431390    1.503116
      4          1           0        0.353754    1.595484    0.820592
      5          1           0       -0.355443    1.592528   -0.824407
      6          6           0       -1.903610   -0.606378   -0.340147
      7          6           0        0.977577   -0.079024   -0.466688
      8          6           0        1.905247   -0.604880    0.340083
      9          1           0        0.955608   -0.435457   -1.500852
 ---------------------------------------------------------------------

 SCF Done:  E(UB3LYP) =  -192.340656113     A.U. after   19 cycles

 The electronic state is 2-A.
 Alpha  occ. eigenvalues --  -10.51352 -10.51351 -10.46903 -10.46613 -10.46611
 Alpha  occ. eigenvalues --   -1.11840  -1.03689  -0.94439  -0.80880  -0.76979
 Alpha  occ. eigenvalues --   -0.71913  -0.69476  -0.64717  -0.58361  -0.54443
 Alpha  occ. eigenvalues --   -0.54330  -0.52454
 Alpha virt. eigenvalues --   -0.36428  -0.34329  -0.26909  -0.22925  -0.15277
 Alpha virt. eigenvalues --   -0.14861  -0.13322  -0.11217  -0.10531  -0.08343
 Alpha virt. eigenvalues --   -0.08156  -0.07655  -0.06082  -0.05902  -0.04131

  Beta  occ. eigenvalues --  -10.50795 -10.50794 -10.46890 -10.46334 -10.46333
  Beta  occ. eigenvalues --   -1.10852  -1.01838  -0.93293  -0.80270  -0.76141
  Beta  occ. eigenvalues --   -0.71350  -0.69116  -0.64510  -0.54496  -0.53568
  Beta  occ. eigenvalues --   -0.53517
  Beta virt. eigenvalues --   -0.42750  -0.35641  -0.33725  -0.23630  -0.20469
  Beta virt. eigenvalues --   -0.15159  -0.14752  -0.13178  -0.11137  -0.10399
  Beta virt. eigenvalues --   -0.08268  -0.07819  -0.07364  -0.05865  -0.05754

 Mulliken charges and spin densities:
               1          2
     1  C    0.438022   0.147237
     2  C   -0.021331   0.044250
     3  H    0.239628  -0.002723
     4  H    0.222550  -0.000699
     5  H    0.222761  -0.000695
     6  C   -0.389397   0.334064
     7  C    0.438048   0.147150
     8  C   -0.389946   0.334129
     9  H    0.239665  -0.002713
 Sum of Mulliken charges =   1.00000   1.00000

 Dipole moment (field-independent basis, Debye):
    X=             -0.0024    Y=              1.1088    Z=              0.0031  Tot=              1.1088
 Quadrupole moment (field-independent basis, Debye-Ang):
   XX=            -25.9757   YY=            -24.4746   ZZ=            -22.3541
   XY=             -0.0026   XZ=             -4.7109   YZ=              0.0023

  Exact polarizability:  92.801  -0.003  44.343   1.834   0.007  44.738
 Approx polarizability: 174.062   0.026  66.433   8.028   0.024  71.546

                      1                      2                      3
                      A                      A                      A
 Frequencies --    104.3614               184.6282               186.0627
 Red. masses --      8.0839                 6.3428                 4.7846
 Frc consts  --      0.0519                 0.1274                 0.0976
 IR Inten    --     15.6797                 5.4307                24.5371

                      4                      5                      6
                      A                      A                      A
 Frequencies --    202.2566               304.7127               710.9133
 Red. masses --      3.0744                 2.9842                 1.3568
 Frc consts  --      0.0741                 0.1633                 0.4040
 IR Inten    --      2.1497                 0.1584                17.8391

                      7                      8                      9
                      A                      A                      A
 Frequencies --    754.8066               843.8104               890.2326
 Red. masses --      1.4604                 2.8032                 1.3906
 Frc consts  --      0.4902                 1.1760                 0.6493
 IR Inten    --     20.9616                19.2122                 5.3525

                     10                     11                     12
                      A                      A                      A
 Frequencies --    945.5234              1004.0171              1081.8970
 Red. masses --      1.4374                 2.3295                 1.4729
 Frc consts  --      0.7571                 1.3836                 1.0158
 IR Inten    --      8.2965                 2.0732                54.6058

                     13                     14                     15
                      A                      A                      A
 Frequencies --   1165.7804              1245.0635              1482.7207
 Red. masses --      1.1470                 1.2214                 5.2459
 Frc consts  --      0.9184                 1.1155                 6.7950
 IR Inten    --      0.0410                13.8610               670.6813

                     16                     17                     18
                      A                      A                      A
 Frequencies --   1485.9517              1562.9555              3076.0637
 Red. masses --      1.1270                 4.9205                 1.0853
 Frc consts  --      1.4661                 7.0820                 6.0506
 IR Inten    --      3.4359                19.7919               129.8076

                     19                     20                     21
                      A                      A                      A
 Frequencies --   3079.5262              3111.5772              3182.4587
 Red. masses --      1.0855                 1.0570                 1.1142
 Frc consts  --      6.0654                 6.0297                 6.6490
 IR Inten    --     15.3242                 6.6230                18.3991

 - Thermochemistry -
 -------------------
 Temperature   298.150 Kelvin.  Pressure   1.00000 Atm.
 Atom     1 has atomic number  6 and mass  12.00000

 Molecular mass:    64.03130 amu.
 Principal axes and moments of inertia in atomic units:
                           1         2         3
     Eigenvalues --   142.18319 450.02350 493.10217
           X            0.99973  -0.00006  -0.02312
           Y            0.00006   1.00000   0.00013
           Z            0.02312  -0.00013   0.99973
 This molecule is an asymmetric top.
 Rotational symmetry number  1.
 Rotational temperatures (Kelvin)      0.60917     0.19247     0.17565
 Rotational constants (GHZ):          12.69307     4.01033     3.65997
 Zero-point vibrational energy     159135.1 (Joules/Mol)
                                   38.03421 (Kcal/Mol)
 Warning -- explicit consideration of   5 degrees of freedom as
           vibrations may cause significant error
 Vibrational temperatures:    150.15   265.64   267.70   291.00   438.41
          (Kelvin)           1022.84  1086.00  1214.05  1280.84  1360.40
                             1444.55  1556.61  1677.30  1791.37  2133.30
                             2137.95  2248.74  4425.76  4430.75  4476.86
                             4578.84

 Zero-point correction=                           0.060611 (Hartree/Particle)
 Thermal correction to Energy=                    0.066789
 Thermal correction to Enthalpy=                  0.067734
 Thermal correction to Gibbs Free Energy=         0.030958
 Sum of electronic and zero-point Energies=           -192.280045
 Sum of electronic and thermal Energies=              -192.273867
 Sum of electronic and thermal Enthalpies=            -192.272923
 Sum of electronic and thermal Free Energies=         -192.309698

                     E (Thermal)             CV                S
                      KCal/Mol        Cal/Mol-Kelvin    Cal/Mol-Kelvin
 Total                   41.911             19.494             77.401
 Electronic               0.000              0.000              1.377
 Translational            0.889              2.981             38.389
 Rotational               0.889              2.981             24.960
 Vibrational             40.133             13.532             12.675
 Vibration     1          0.605              1.946              3.371
 Vibration     2          0.631              1.861              2.281
 Vibration     3          0.632              1.859              2.267
 Vibration     4          0.639              1.837              2.112
 Vibration     5          0.696              1.665              1.391

 Normal termination of Gaussian 09 at Mon Jun 20 04:20:14 2016.
