 Gaussian 09, Revision E.01,
 Gaussian 09:  EM64L-G09RevE.01 30-Nov-2015

 ---------------------------------------------
 #p b3lyp/6-311++G(3df,2p) freq symmetry=Loose
 ---------------------------------------------

 ---------
 b3lyp opt
 ---------
 Symbolic Z-matrix:
 Charge =  3 Multiplicity = 2

                         Standard orientation:
 ---------------------------------------------------------------------
 Center     Atomic      Atomic             Coordinates (Angstroms)
 Number     Number       Type             X           Y           Z
 ---------------------------------------------------------------------
      1          6           0       -2.343576   -0.023788    0.029933
      2          6           0        0.221327    0.542998   -0.020539
      3          1           0       -2.975981    0.057018   -0.904390
      4          1           0       -2.909760    0.034515    1.006424
      5          1           0        0.103447    1.639104   -0.018143
      6          6           0        2.721006   -0.258275    0.034687
      7          6           0        1.477492    0.015682   -0.014180
      8          6           0       -0.969970   -0.323673   -0.030898
      9          1           0       -0.855383   -1.448304   -0.077911
 ---------------------------------------------------------------------

 SCF Done:  E(UB3LYP) =  -191.065027560     A.U. after   28 cycles

 The electronic state is 2-A.
 Alpha  occ. eigenvalues --  -11.01450 -10.99355 -10.99106 -10.94181 -10.92419
 Alpha  occ. eigenvalues --   -1.53942  -1.48924  -1.41294  -1.28328  -1.21085
 Alpha  occ. eigenvalues --   -1.16578  -1.13658  -1.10434  -1.06435  -1.02473
 Alpha  occ. eigenvalues --   -0.97561
 Alpha virt. eigenvalues --   -0.87988  -0.82214  -0.74895  -0.66582  -0.58189
 Alpha virt. eigenvalues --   -0.51449  -0.49813  -0.46916  -0.44913  -0.44543
 Alpha virt. eigenvalues --   -0.43105  -0.41192  -0.39348  -0.37875  -0.37435

  Beta  occ. eigenvalues --  -10.99368 -10.99312 -10.98686 -10.94449 -10.92001
  Beta  occ. eigenvalues --   -1.54456  -1.47499  -1.39813  -1.28356  -1.21108
  Beta  occ. eigenvalues --   -1.16796  -1.14200  -1.10436  -1.01807  -0.95238
  Beta virt. eigenvalues --   -0.86695  -0.82792  -0.81976  -0.74455  -0.63191
  Beta virt. eigenvalues --   -0.55278  -0.51461  -0.50083  -0.46981  -0.44936
  Beta virt. eigenvalues --   -0.44670  -0.43208  -0.41213  -0.39586  -0.37860

 Mulliken charges and spin densities:
               1          2
     1  C    0.046080  -0.009103
     2  C    0.016308  -0.164105
     3  H    0.366258  -0.009143
     4  H    0.364473  -0.012065
     5  H    0.287605  -0.001409
     6  C    0.484567   1.278343
     7  C    0.787926   0.042944
     8  C    0.331935  -0.128314
     9  H    0.314849   0.002852
 Sum of Mulliken charges =   3.00000   1.00000

 Dipole moment (field-independent basis, Debye):
    X=             -3.8771    Y=             -0.7708    Z=              0.0920  Tot=              3.9540
 Quadrupole moment (field-independent basis, Debye-Ang):
   XX=             48.2767   YY=            -15.5295   ZZ=            -19.5736
   XY=             -1.0566   XZ=             -0.1051   YZ=             -0.1171

  Exact polarizability: 117.778   0.256  32.089   0.672   0.536  25.776
 Approx polarizability: 218.012 -13.313  46.783   2.433   0.302  37.020

                      1                      2                      3
                      A                      A                      A
 Frequencies --     93.1390               155.5205               300.9455
 Red. masses --      2.5886                 6.0277                 3.8805
 Frc consts  --      0.0132                 0.0859                 0.2071
 IR Inten    --      4.4224                 8.0945                 5.2231

                      4                      5                      6
                      A                      A                      A
 Frequencies --    333.8690               419.9984               462.3768
 Red. masses --      4.1250                 1.5513                 3.2269
 Frc consts  --      0.2709                 0.1612                 0.4065
 IR Inten    --     11.5831                17.6911                 5.2543

                      7                      8                      9
                      A                      A                      A
 Frequencies --    665.6184               794.1280               843.0501
 Red. masses --      1.1411                 2.8136                 1.3752
 Frc consts  --      0.2979                 1.0454                 0.5759
 IR Inten    --     26.8308                91.7648                39.2984

                     10                     11                     12
                      A                      A                      A
 Frequencies --    999.6246              1020.6078              1067.2530
 Red. masses --      1.7601                 2.3431                 3.1404
 Frc consts  --      1.0362                 1.4380                 2.1075
 IR Inten    --      2.1381               538.0258                50.0831

                     13                     14                     15
                      A                      A                      A
 Frequencies --   1132.0977              1255.3511              1311.8233
 Red. masses --      1.8512                 1.1041                 2.1122
 Frc consts  --      1.3979                 1.0251                 2.1416
 IR Inten    --     13.0854               199.3625                50.7569

                     16                     17                     18
                      A                      A                      A
 Frequencies --   1322.8811              1865.6351              2682.8686
 Red. masses --      1.2244                11.7295                 1.0455
 Frc consts  --      1.2624                24.0538                 4.4337
 IR Inten    --     88.4296               343.7664              1363.6580

                     19                     20                     21
                      A                      A                      A
 Frequencies --   2724.5468              2762.2167              2992.0638
 Red. masses --      1.0798                 1.1127                 1.0905
 Frc consts  --      4.7226                 5.0019                 5.7521
 IR Inten    --    258.5507               358.2809               198.5726

 - Thermochemistry -
 -------------------
 Temperature   298.150 Kelvin.  Pressure   1.00000 Atm.
 Atom     1 has atomic number  6 and mass  12.00000

 Molecular mass:    64.03130 amu.
 Principal axes and moments of inertia in atomic units:
                           1         2         3
     Eigenvalues --    43.99548 757.99147 788.45208
           X            0.99998   0.00551  -0.00078
           Y           -0.00550   0.99996   0.00761
           Z            0.00082  -0.00760   0.99997
 This molecule is an asymmetric top.
 Rotational symmetry number  1.
 Rotational temperatures (Kelvin)      1.96870     0.11427     0.10985
 Rotational constants (GHZ):          41.02106     2.38095     2.28897
 Zero-point vibrational energy     150763.1 (Joules/Mol)
                                   36.03324 (Kcal/Mol)
 Warning -- explicit consideration of   6 degrees of freedom as
           vibrations may cause significant error
 Vibrational temperatures:    134.01   223.76   432.99   480.36   604.28
          (Kelvin)            665.26   957.68  1142.57  1212.96  1438.24
                             1468.43  1535.54  1628.83  1806.17  1887.42
                             1903.33  2684.23  3860.04  3920.01  3974.21
                             4304.91

 Zero-point correction=                           0.057423 (Hartree/Particle)
 Thermal correction to Energy=                    0.063410
 Thermal correction to Enthalpy=                  0.064354
 Thermal correction to Gibbs Free Energy=         0.028161
 Sum of electronic and zero-point Energies=           -191.007605
 Sum of electronic and thermal Energies=              -191.001618
 Sum of electronic and thermal Enthalpies=            -191.000673
 Sum of electronic and thermal Free Energies=         -191.036866

                     E (Thermal)             CV                S
                      KCal/Mol        Cal/Mol-Kelvin    Cal/Mol-Kelvin
 Total                   39.790             19.760             76.175
 Electronic               0.000              0.000              1.377
 Translational            0.889              2.981             38.389
 Rotational               0.889              2.981             24.778
 Vibrational             38.013             13.799             11.629
 Vibration     1          0.602              1.954              3.593
 Vibration     2          0.620              1.897              2.604
 Vibration     3          0.693              1.672              1.412
 Vibration     4          0.715              1.608              1.241
 Vibration     5          0.783              1.427              0.892
 Vibration     6          0.820              1.334              0.759

 Optimization completed.
    -- Stationary point found.
 Normal termination of Gaussian 09 at Mon Jun 20 11:08:03 2016.
