 Gaussian 09, Revision E.01,
 Gaussian 09:  EM64L-G09RevE.01 30-Nov-2015

 ---------------------------------------------
 #p b3lyp/6-311++G(3df,2p) freq symmetry=Loose
 ---------------------------------------------

 ---------
 b3lyp opt
 ---------
 Symbolic Z-matrix:
 Charge =  0 Multiplicity = 1

                         Standard orientation:
 ---------------------------------------------------------------------
 Center     Atomic      Atomic             Coordinates (Angstroms)
 Number     Number       Type             X           Y           Z
 ---------------------------------------------------------------------
      1          6           0       -1.949628    0.647936    0.129211
      2          6           0        1.298486    0.569576   -0.284737
      3          1           0        2.230545    0.387553   -0.812805
      4          1           0        1.030933    1.619777   -0.240974
      5          6           0        0.315573   -0.550235   -0.335082
      6          1           0        0.573238   -1.431786   -0.907426
      7          6           0        1.115696   -0.258289    0.927340
      8          6           0       -1.116195   -0.310809   -0.109309
      9          1           0       -1.818304   -1.164618   -0.003337
 ---------------------------------------------------------------------

 SCF Done:  E(RB3LYP) =  -192.680530839     A.U. after   13 cycles

 The electronic state is 1-A.
 Alpha  occ. eigenvalues --  -10.25440 -10.23896 -10.23141 -10.21047 -10.20538
 Alpha  occ. eigenvalues --   -0.91749  -0.80780  -0.66321  -0.58861  -0.53696
 Alpha  occ. eigenvalues --   -0.50669  -0.42947  -0.42372  -0.36220  -0.30725
 Alpha  occ. eigenvalues --   -0.29388  -0.25811
 Alpha virt. eigenvalues --   -0.12635  -0.10145  -0.01207  -0.00137   0.00260
 Alpha virt. eigenvalues --    0.01608   0.02961   0.04183   0.05781   0.06896
 Alpha virt. eigenvalues --    0.07862   0.08402   0.09097   0.09582   0.10630

 Mulliken charges:
               1
     1  C   -0.530686
     2  C   -0.431565
     3  H    0.160774
     4  H    0.180141
     5  C    0.262251
     6  H    0.223326
     7  C   -0.238241
     8  C    0.222362
     9  H    0.151638
 Sum of Mulliken charges =  -0.00000

 Dipole moment (field-independent basis, Debye):
    X=              1.7784    Y=             -1.3465    Z=             -2.5186  Tot=              3.3644
 Quadrupole moment (field-independent basis, Debye-Ang):
   XX=            -33.4363   YY=            -28.4988   ZZ=            -35.7357
   XY=              5.3011   XZ=             -3.2323   YZ=              1.3093

  Exact polarizability:  71.961  -1.957  52.985   0.529  -0.456  48.811
 Approx polarizability: 104.472  -6.772  87.766   0.753   0.855  72.631

                      1                      2                      3
                      A                      A                      A
 Frequencies --     63.2166               129.5566               218.3721
 Red. masses --      6.5455                 2.9663                 2.1242
 Frc consts  --      0.0154                 0.0293                 0.0597
 IR Inten    --     17.9905                20.1843                 6.8059

                      4                      5                      6
                      A                      A                      A
 Frequencies --    304.0841               567.0894               647.6985
 Red. masses --      2.2505                 1.6368                 1.9706
 Frc consts  --      0.1226                 0.3101                 0.4871
 IR Inten    --      3.5997                19.4386                24.0066

                      7                      8                      9
                      A                      A                      A
 Frequencies --    700.6890               801.5393               846.5058
 Red. masses --      1.3012                 2.8815                 2.3293
 Frc consts  --      0.3764                 1.0907                 0.9834
 IR Inten    --     19.4076                28.7379                10.4300

                     10                     11                     12
                      A                      A                      A
 Frequencies --    912.3771               973.1888              1029.6046
 Red. masses --      2.2464                 1.5424                 1.7119
 Frc consts  --      1.1017                 0.8607                 1.0692
 IR Inten    --     23.5465                 2.4164                10.5247

                     13                     14                     15
                      A                      A                      A
 Frequencies --   1086.8408              1212.3393              1342.1829
 Red. masses --      1.5906                 1.7011                 1.9108
 Frc consts  --      1.1070                 1.4731                 2.0281
 IR Inten    --      5.5909                13.3705                 3.8431

                     16                     17                     18
                      A                      A                      A
 Frequencies --   1399.2977              1787.1340              2934.9830
 Red. masses --      1.2846                 9.4154                 1.0763
 Frc consts  --      1.4820                17.7175                 5.4625
 IR Inten    --     26.9142                51.7658                31.4371

                     19                     20                     21
                      A                      A                      A
 Frequencies --   3091.1586              3147.3711              3163.0824
 Red. masses --      1.0553                 1.0905                 1.1059
 Frc consts  --      5.9411                 6.3647                 6.5191
 IR Inten    --      6.2437                 1.8201                 1.6829

 - Thermochemistry -
 -------------------
 Temperature   298.150 Kelvin.  Pressure   1.00000 Atm.
 Atom     1 has atomic number  6 and mass  12.00000

 Molecular mass:    64.03130 amu.
 Principal axes and moments of inertia in atomic units:
                           1         2         3
     Eigenvalues --   124.92854 432.88414 455.22693
           X            0.99862   0.04622  -0.02496
           Y           -0.04407   0.99577   0.08057
           Z            0.02857  -0.07936   0.99644
 This molecule is an asymmetric top.
 Rotational symmetry number  1.
 Rotational temperatures (Kelvin)      0.69331     0.20009     0.19027
 Rotational constants (GHZ):          14.44619     4.16911     3.96449
 Zero-point vibrational energy     157657.7 (Joules/Mol)
                                   37.68110 (Kcal/Mol)
 Warning -- explicit consideration of   5 degrees of freedom as
           vibrations may cause significant error
 Vibrational temperatures:     90.95   186.40   314.19   437.51   815.91
          (Kelvin)            931.89  1008.13  1153.23  1217.93  1312.71
                             1400.20  1481.37  1563.72  1744.28  1931.10
                             2013.27  2571.28  4222.78  4447.48  4528.36
                             4550.96

 Zero-point correction=                           0.060049 (Hartree/Particle)
 Thermal correction to Energy=                    0.066073
 Thermal correction to Enthalpy=                  0.067017
 Thermal correction to Gibbs Free Energy=         0.030995
 Sum of electronic and zero-point Energies=           -192.620482
 Sum of electronic and thermal Energies=              -192.614458
 Sum of electronic and thermal Enthalpies=            -192.613514
 Sum of electronic and thermal Free Energies=         -192.649536

                     E (Thermal)             CV                S
                      KCal/Mol        Cal/Mol-Kelvin    Cal/Mol-Kelvin
 Total                   41.461             19.412             75.814
 Electronic               0.000              0.000              0.000
 Translational            0.889              2.981             38.389
 Rotational               0.889              2.981             24.713
 Vibrational             39.684             13.450             12.712
 Vibration     1          0.597              1.972              4.354
 Vibration     2          0.612              1.924              2.953
 Vibration     3          0.646              1.813              1.973
 Vibration     4          0.695              1.666              1.394
 Vibration     5          0.923              1.102              0.510

 Optimization completed.
    -- Stationary point found.
 Normal termination of Gaussian 09 at Wed Jun 22 01:16:39 2016.
