 Gaussian 09, Revision E.01,
 Gaussian 09:  EM64L-G09RevE.01 30-Nov-2015

 ---------------------------------------------
 #p b3lyp/6-311++G(3df,2p) freq symmetry=Loose
 ---------------------------------------------

 ---------
 b3lyp opt
 ---------
 Symbolic Z-matrix:
 Charge =  0 Multiplicity = 3

                         Standard orientation:
 ---------------------------------------------------------------------
 Center     Atomic      Atomic             Coordinates (Angstroms)
 Number     Number       Type             X           Y           Z
 ---------------------------------------------------------------------
      1          6           0        1.925274   -0.414502    0.000504
      2          6           0        0.555846   -0.177068   -0.000217
      3          6           0        1.490953    0.867655   -0.000242
      4          6           0       -1.923641    0.328678    0.000200
      5          1           0       -2.562262    0.149950   -0.870964
      6          1           0       -2.555479    0.157239    0.877769
      7          1           0       -1.601800    1.367163   -0.005381
      8          6           0       -0.769988   -0.604808   -0.000470
      9          1           0       -0.951125   -1.674074   -0.000072
 ---------------------------------------------------------------------

 SCF Done:  E(UB3LYP) =  -192.743421255     A.U. after   16 cycles

 The electronic state is 3-A.
 Alpha  occ. eigenvalues --  -10.25844 -10.24581 -10.21530 -10.21383 -10.20260
 Alpha  occ. eigenvalues --   -0.94358  -0.82694  -0.70225  -0.55720  -0.51050
 Alpha  occ. eigenvalues --   -0.46481  -0.45251  -0.43328  -0.40986  -0.40579
 Alpha  occ. eigenvalues --   -0.28547  -0.26493  -0.24975
 Alpha virt. eigenvalues --   -0.01781  -0.01661   0.00190   0.00729   0.01952
 Alpha virt. eigenvalues --    0.03225   0.05188   0.05555   0.05755   0.06856
 Alpha virt. eigenvalues --    0.08271   0.08789   0.09857   0.10204   0.10702

  Beta  occ. eigenvalues --  -10.25384 -10.23526 -10.20567 -10.20456 -10.20265
  Beta  occ. eigenvalues --   -0.92821  -0.80691  -0.68701  -0.54183  -0.48597
  Beta  occ. eigenvalues --   -0.44665  -0.43197  -0.41449  -0.39061  -0.38349
  Beta  occ. eigenvalues --   -0.25413
  Beta virt. eigenvalues --   -0.15203  -0.13357  -0.01539   0.00683   0.00908
  Beta virt. eigenvalues --    0.01989   0.02860   0.03403   0.05399   0.05685
  Beta virt. eigenvalues --    0.05971   0.07399   0.09050   0.09465   0.10013

 Mulliken charges and spin densities:
               1          2
     1  C   -0.318593   0.506958
     2  C    0.726087   0.195396
     3  C   -0.231376   0.497362
     4  C   -0.479172  -0.030023
     5  H    0.159713   0.040797
     6  H    0.160128   0.041304
     7  H    0.159661  -0.000513
     8  C   -0.368632   0.756962
     9  H    0.192183  -0.008243
 Sum of Mulliken charges =  -0.00000   2.00000

 Dipole moment (field-independent basis, Debye):
    X=             -4.1170    Y=             -0.9450    Z=              0.0010  Tot=              4.2241
 Quadrupole moment (field-independent basis, Debye-Ang):
   XX=            -32.3846   YY=            -32.4840   ZZ=            -30.0310
   XY=              0.4973   XZ=             -0.0035   YZ=              0.0017

  Exact polarizability:  81.350  -2.157  66.533   0.002  -0.007  40.608
 Approx polarizability: 113.854  -0.616 102.620   0.006  -0.012  59.999

                      1                      2                      3
                      A                      A                      A
 Frequencies --     99.6194               180.5954               215.7881
 Red. masses --      1.1004                 4.1918                 4.7198
 Frc consts  --      0.0064                 0.0805                 0.1295
 IR Inten    --      0.0643                22.7438                 0.0245

                      4                      5                      6
                      A                      A                      A
 Frequencies --    424.5248               516.9136               605.9242
 Red. masses --      4.0853                 4.4461                11.1529
 Frc consts  --      0.4338                 0.6999                 2.4125
 IR Inten    --      1.1478                 5.9829               367.8943

                      7                      8                      9
                      A                      A                      A
 Frequencies --    711.5587               780.4559               990.5098
 Red. masses --      1.2982                 3.0460                 1.4381
 Frc consts  --      0.3873                 1.0931                 0.8313
 IR Inten    --     18.7369                 0.3884                 0.0052

                     10                     11                     12
                      A                      A                      A
 Frequencies --   1028.5380              1124.6095              1317.8256
 Red. masses --      1.8012                 2.4579                 1.7674
 Frc consts  --      1.1227                 1.8315                 1.8084
 IR Inten    --     47.9345                 1.6144                52.6014

                     13                     14                     15
                      A                      A                      A
 Frequencies --   1392.8763              1418.1735              1467.8464
 Red. masses --      1.3001                 2.8055                 1.0474
 Frc consts  --      1.4862                 3.3245                 1.3295
 IR Inten    --      4.5201                11.4990                 9.0546

                     16                     17                     18
                      A                      A                      A
 Frequencies --   1485.3879              1625.5789              2998.6430
 Red. masses --      1.1610                10.5098                 1.0397
 Frc consts  --      1.5092                16.3629                 5.5083
 IR Inten    --     12.4673                11.1675                 3.8716

                     19                     20                     21
                      A                      A                      A
 Frequencies --   3033.2122              3121.8458              3150.9550
 Red. masses --      1.0964                 1.0967                 1.0867
 Frc consts  --      5.9431                 6.2971                 6.3568
 IR Inten    --      5.2267                 2.5604                 4.8289

 - Thermochemistry -
 -------------------
 Temperature   298.150 Kelvin.  Pressure   1.00000 Atm.
 Atom     1 has atomic number  6 and mass  12.00000

 Molecular mass:    64.03130 amu.
 Principal axes and moments of inertia in atomic units:
                           1         2         3
     Eigenvalues --    83.70192 513.26978 585.96527
           X            0.99993  -0.01141  -0.00002
           Y            0.01141   0.99993   0.00001
           Z            0.00002  -0.00001   1.00000
 This molecule is an asymmetric top.
 Rotational symmetry number  1.
 Rotational temperatures (Kelvin)      1.03479     0.16875     0.14781
 Rotational constants (GHZ):          21.56153     3.51616     3.07995
 Zero-point vibrational energy     165631.2 (Joules/Mol)
                                   39.58682 (Kcal/Mol)
 Warning -- explicit consideration of   6 degrees of freedom as
           vibrations may cause significant error
 Vibrational temperatures:    143.33   259.84   310.47   610.80   743.72
          (Kelvin)            871.79  1023.77  1122.90  1425.12  1479.83
                             1618.06  1896.05  2004.04  2040.43  2111.90
                             2137.14  2338.84  4314.37  4364.11  4491.63
                             4533.52

 Zero-point correction=                           0.063086 (Hartree/Particle)
 Thermal correction to Energy=                    0.068761
 Thermal correction to Enthalpy=                  0.069706
 Thermal correction to Gibbs Free Energy=         0.033659
 Sum of electronic and zero-point Energies=           -192.680336
 Sum of electronic and thermal Energies=              -192.674660
 Sum of electronic and thermal Enthalpies=            -192.673716
 Sum of electronic and thermal Free Energies=         -192.709762

                     E (Thermal)             CV                S
                      KCal/Mol        Cal/Mol-Kelvin    Cal/Mol-Kelvin
 Total                   43.148             18.286             75.866
 Electronic               0.000              0.000              2.183
 Translational            0.889              2.981             38.389
 Rotational               0.889              2.981             24.735
 Vibrational             41.371             12.325             10.558
 Vibration     1          0.604              1.949              3.462
 Vibration     2          0.630              1.866              2.322
 Vibration     3          0.645              1.817              1.994
 Vibration     4          0.787              1.417              0.877
 Vibration     5          0.872              1.213              0.617
 Vibration     6          0.965              1.019              0.440

 Normal termination of Gaussian 09 at Wed Jun 22 03:51:17 2016.
