 Gaussian 09, Revision E.01,
 Gaussian 09:  EM64L-G09RevE.01 30-Nov-2015

 ---------------------------------------------
 #p b3lyp/6-311++G(3df,2p) freq symmetry=Loose
 ---------------------------------------------

 ---------
 b3lyp opt
 ---------
 Symbolic Z-matrix:
 Charge =  3 Multiplicity = 4

                         Standard orientation:
 ---------------------------------------------------------------------
 Center     Atomic      Atomic             Coordinates (Angstroms)
 Number     Number       Type             X           Y           Z
 ---------------------------------------------------------------------
      1          6           0        0.000000    1.386858    0.000000
      2          1           0        0.859451    2.183304   -0.000000
      3          1           0       -0.860452    2.182193    0.000000
      4          6           0        0.000317    0.334489    0.989829
      5          6           0        0.000317    0.334489   -0.989829
      6          6           0       -0.000157   -1.070413    0.777049
      7          1           0       -0.000476   -1.927781    1.487579
      8          6           0       -0.000157   -1.070413   -0.777049
      9          1           0       -0.000476   -1.927781   -1.487579
 ---------------------------------------------------------------------

 SCF Done:  E(UB3LYP) =  -191.013158987     A.U. after   12 cycles

 The electronic state is 4-A".
 Alpha  occ. eigenvalues --  -11.07468 -11.07467 -11.02339 -11.02319 -10.98257
 Alpha  occ. eigenvalues --   -1.69404  -1.51716  -1.47476  -1.30321  -1.28112
 Alpha  occ. eigenvalues --   -1.22349  -1.20058  -1.19149  -1.16382  -1.07600
 Alpha  occ. eigenvalues --   -1.02269  -1.02199
 Alpha virt. eigenvalues --   -0.87704  -0.83392  -0.73882  -0.57873  -0.57229
 Alpha virt. eigenvalues --   -0.52062  -0.52056  -0.50616  -0.47692  -0.47254
 Alpha virt. eigenvalues --   -0.44194  -0.42516  -0.40871  -0.39710  -0.39198

  Beta  occ. eigenvalues --  -11.05748 -11.05747 -11.01514 -11.01497 -10.98222
  Beta  occ. eigenvalues --   -1.66241  -1.49427  -1.42856  -1.27997  -1.25036
  Beta  occ. eigenvalues --   -1.19622  -1.16837  -1.15041  -1.14523
  Beta virt. eigenvalues --   -0.96298  -0.88440  -0.87933  -0.79720  -0.76007
  Beta virt. eigenvalues --   -0.66162  -0.56041  -0.55599  -0.50660  -0.49775
  Beta virt. eigenvalues --   -0.48649  -0.46951  -0.46001  -0.43456  -0.41374

 Mulliken charges and spin densities:
               1          2
     1  C   -0.166623   0.026870
     2  H    0.375575   0.090543
     3  H    0.375664   0.090520
     4  C    0.705283   0.937547
     5  C    0.705283   0.937547
     6  C    0.110055   0.448643
     7  H    0.392354   0.009843
     8  C    0.110055   0.448643
     9  H    0.392354   0.009843
 Sum of Mulliken charges =   3.00000   3.00000

 Dipole moment (field-independent basis, Debye):
    X=             -0.0018    Y=              0.7385    Z=              0.0000  Tot=              0.7385
 Quadrupole moment (field-independent basis, Debye-Ang):
   XX=            -19.9927   YY=             11.2236   ZZ=             -7.0635
   XY=              0.0014   XZ=              0.0000   YZ=             -0.0000

  Exact polarizability:  24.659   0.003  58.337  -0.000  -0.000  46.532
 Approx polarizability:  37.776   0.005 109.557  -0.000  -0.000 105.072

                      1                      2                      3
                     A'                     A"                     A"
 Frequencies --    231.6659               362.8044               364.9897
 Red. masses --      2.2414                 2.0708                 6.1091
 Frc consts  --      0.0709                 0.1606                 0.4795
 IR Inten    --     53.7128                 1.3966               109.7894

                      4                      5                      6
                     A'                     A'                     A"
 Frequencies --    618.3044               683.0517               691.0882
 Red. masses --      1.7759                 6.8948                 5.8181
 Frc consts  --      0.4000                 1.8953                 1.6372
 IR Inten    --     34.3568                 0.5679                 7.1611

                      7                      8                      9
                     A'                     A"                     A'
 Frequencies --    744.8512               765.3192               845.0984
 Red. masses --      1.2099                 1.1994                 1.8628
 Frc consts  --      0.3955                 0.4139                 0.7839
 IR Inten    --     16.7596                 0.0000               500.3904

                     10                     11                     12
                     A"                     A'                     A"
 Frequencies --    871.2281               908.3446               968.7041
 Red. masses --      1.6024                 2.1012                 1.2225
 Frc consts  --      0.7166                 1.0215                 0.6759
 IR Inten    --      0.0000               190.5427                35.5729

                     13                     14                     15
                     A'                     A'                     A"
 Frequencies --   1010.5705              1134.0833              1141.6211
 Red. masses --      2.2288                 1.4565                 1.3275
 Frc consts  --      1.3411                 1.1037                 1.0193
 IR Inten    --     29.2168                56.1449                12.4750

                     16                     17                     18
                     A'                     A"                     A'
 Frequencies --   1352.1619              1365.1091              2232.7722
 Red. masses --      8.3763                 5.4317                 1.0731
 Frc consts  --      9.0232                 5.9637                 3.1521
 IR Inten    --     13.1702                39.9739               541.4872

                     19                     20                     21
                     A'                     A"                     A'
 Frequencies --   2399.9093              2896.3263              2919.2130
 Red. masses --      1.0793                 1.1003                 1.1036
 Frc consts  --      3.6626                 5.4380                 5.5408
 IR Inten    --   1499.6318               309.7136               482.0106

 - Thermochemistry -
 -------------------
 Temperature   298.150 Kelvin.  Pressure   1.00000 Atm.
 Atom     1 has atomic number  6 and mass  12.00000

 Molecular mass:    64.03130 amu.
 Principal axes and moments of inertia in atomic units:
                           1         2         3
     Eigenvalues --   156.97202 256.56427 402.89016
           X            0.00010   0.00000   1.00000
           Y            1.00000   0.00000  -0.00010
           Z            0.00000   1.00000  -0.00000
 This molecule is an asymmetric top.
 Rotational symmetry number  1.
 Rotational temperatures (Kelvin)      0.55178     0.33759     0.21498
 Rotational constants (GHZ):          11.49722     7.03427     4.47949
 Zero-point vibrational energy     146585.7 (Joules/Mol)
                                   35.03482 (Kcal/Mol)
 Warning -- explicit consideration of   4 degrees of freedom as
           vibrations may cause significant error
 Vibrational temperatures:    333.32   521.99   525.14   889.60   982.76
          (Kelvin)            994.32  1071.67  1101.12  1215.91  1253.50
                             1306.90  1393.75  1453.98  1631.69  1642.54
                             1945.46  1964.09  3212.46  3452.93  4167.16
                             4200.09

 Zero-point correction=                           0.055832 (Hartree/Particle)
 Thermal correction to Energy=                    0.060757
 Thermal correction to Enthalpy=                  0.061701
 Thermal correction to Gibbs Free Energy=         0.027545
 Sum of electronic and zero-point Energies=           -190.957327
 Sum of electronic and thermal Energies=              -190.952402
 Sum of electronic and thermal Enthalpies=            -190.951458
 Sum of electronic and thermal Free Energies=         -190.985614

                     E (Thermal)             CV                S
                      KCal/Mol        Cal/Mol-Kelvin    Cal/Mol-Kelvin
 Total                   38.126             18.141             71.888
 Electronic               0.000              0.000              2.755
 Translational            0.889              2.981             38.389
 Rotational               0.889              2.981             24.299
 Vibrational             36.348             12.180              6.446
 Vibration     1          0.653              1.793              1.866
 Vibration     2          0.737              1.549              1.110
 Vibration     3          0.738              1.544              1.101
 Vibration     4          0.978              0.993              0.419

 Optimization completed.
    -- Stationary point found.
 Normal termination of Gaussian 09 at Wed Jul 20 19:07:49 2016.
