 Gaussian 09, Revision E.01,
 Gaussian 09:  EM64L-G09RevE.01 30-Nov-2015

 ---------------------------------------------
 #p b3lyp/6-311++G(3df,2p) freq symmetry=Loose
 ---------------------------------------------

 ---------
 b3lyp opt
 ---------
 Symbolic Z-matrix:
 Charge =  2 Multiplicity = 3

                         Standard orientation:
 ---------------------------------------------------------------------
 Center     Atomic      Atomic             Coordinates (Angstroms)
 Number     Number       Type             X           Y           Z
 ---------------------------------------------------------------------
      1          1           0       -0.244551    1.484275    0.848538
      2          6           0       -0.206494    0.756494   -0.000147
      3          1           0       -0.244662    1.485200   -0.847909
      4          6           0       -1.414790   -0.045301   -0.000174
      5          6           0       -2.505655   -0.657523    0.000217
      6          6           0        1.067133    0.085179   -0.000252
      7          6           0        2.220555   -0.416084    0.000035
      8          1           0        2.762777   -0.654314   -0.933266
      9          1           0        2.761951   -0.651755    0.934562
 ---------------------------------------------------------------------

 SCF Done:  E(UB3LYP) =  -191.856277490     A.U. after   24 cycles

 The electronic state is 3-A.
 Alpha  occ. eigenvalues --  -10.77343 -10.73408 -10.71303 -10.69440 -10.62737
 Alpha  occ. eigenvalues --   -1.31658  -1.26285  -1.20195  -1.03097  -0.96276
 Alpha  occ. eigenvalues --   -0.92218  -0.91670  -0.86900  -0.86516  -0.80243
 Alpha  occ. eigenvalues --   -0.78352  -0.74165
 Alpha virt. eigenvalues --   -0.54464  -0.47371  -0.45857  -0.42223  -0.34636
 Alpha virt. eigenvalues --   -0.27864  -0.27793  -0.27069  -0.25773  -0.25094
 Alpha virt. eigenvalues --   -0.23481  -0.21343  -0.21070  -0.20313  -0.19098

  Beta  occ. eigenvalues --  -10.74128 -10.72657 -10.71310 -10.69394 -10.62732
  Beta  occ. eigenvalues --   -1.30029  -1.23249  -1.18559  -1.02305  -0.95624
  Beta  occ. eigenvalues --   -0.91628  -0.90960  -0.85816  -0.75902  -0.74118
  Beta virt. eigenvalues --   -0.65501  -0.62602  -0.54173  -0.43313  -0.41163
  Beta virt. eigenvalues --   -0.38939  -0.34332  -0.27731  -0.27178  -0.26772
  Beta virt. eigenvalues --   -0.25507  -0.24768  -0.23424  -0.20640  -0.20501

 Mulliken charges and spin densities:
               1          2
     1  H    0.305355   0.024504
     2  C   -0.955769   0.014733
     3  H    0.305253   0.024466
     4  C    0.706694   0.383410
     5  C    0.468601   1.513751
     6  C    0.683809   0.013959
     7  C   -0.118217   0.021950
     8  H    0.302211   0.001611
     9  H    0.302063   0.001615
 Sum of Mulliken charges =   2.00000   2.00000

 Dipole moment (field-independent basis, Debye):
    X=             -0.1790    Y=              0.0929    Z=              0.0019  Tot=              0.2017
 Quadrupole moment (field-independent basis, Debye-Ang):
   XX=             15.9742   YY=            -18.4993   ZZ=            -19.8178
   XY=             -0.4557   XZ=              0.0017   YZ=              0.0040

  Exact polarizability:  75.073  -0.985  38.750   0.003   0.000  30.324
 Approx polarizability: 111.849   0.686  59.251   0.004  -0.001  45.333

                      1                      2                      3
                      A                      A                      A
 Frequencies --    138.2953               214.1152               263.1563
 Red. masses --      5.4992                 1.1555                 1.3792
 Frc consts  --      0.0620                 0.0312                 0.0563
 IR Inten    --      2.3933                 0.0002                29.3269

                      4                      5                      6
                      A                      A                      A
 Frequencies --    289.3630               349.4700               528.4500
 Red. masses --      6.3101                 2.0608                 8.6179
 Frc consts  --      0.3113                 0.1483                 1.4179
 IR Inten    --      7.5114                 4.4538                 9.7288

                      7                      8                      9
                      A                      A                      A
 Frequencies --    563.8102               812.7704               834.2481
 Red. masses --      2.0538                 2.7185                 7.1476
 Frc consts  --      0.3846                 1.0581                 2.9309
 IR Inten    --      0.9927                28.4235                 9.5876

                     10                     11                     12
                      A                      A                      A
 Frequencies --    879.6898               920.6510              1156.5516
 Red. masses --      1.3141                 2.3652                 1.1687
 Frc consts  --      0.5991                 1.1812                 0.9210
 IR Inten    --     64.2205                19.1177                 0.1601

                     13                     14                     15
                      A                      A                      A
 Frequencies --   1190.1602              1200.3984              1308.8243
 Red. masses --      1.0418                 1.1065                 1.6436
 Frc consts  --      0.8694                 0.9394                 1.6588
 IR Inten    --    108.3459               134.0607                 2.5399

                     16                     17                     18
                      A                      A                      A
 Frequencies --   1897.7956              2053.7706              2797.9086
 Red. masses --      8.8039                11.8505                 1.0801
 Frc consts  --     18.6819                29.4505                 4.9816
 IR Inten    --     36.8884                 0.2477               159.9679

                     19                     20                     21
                      A                      A                      A
 Frequencies --   2826.6333              2947.1368              2984.6138
 Red. masses --      1.0631                 1.0680                 1.1052
 Frc consts  --      5.0044                 5.4654                 5.8004
 IR Inten    --    267.7380               487.1028               246.5226

 - Thermochemistry -
 -------------------
 Temperature   298.150 Kelvin.  Pressure   1.00000 Atm.
 Atom     1 has atomic number  1 and mass   1.00783

 Molecular mass:    64.03130 amu.
 Principal axes and moments of inertia in atomic units:
                           1         2         3
     Eigenvalues --    80.74183 682.53640 740.36437
           X            0.99969  -0.02476   0.00001
           Y            0.02476   0.99969   0.00010
           Z           -0.00002  -0.00010   1.00000
 This molecule is an asymmetric top.
 Rotational symmetry number  1.
 Rotational temperatures (Kelvin)      1.07273     0.12690     0.11699
 Rotational constants (GHZ):          22.35200     2.64417     2.43764
 Zero-point vibrational energy     156458.5 (Joules/Mol)
                                   37.39447 (Kcal/Mol)
 Warning -- explicit consideration of   7 degrees of freedom as
           vibrations may cause significant error
 Vibrational temperatures:    198.98   308.06   378.62   416.33   502.81
          (Kelvin)            760.32   811.20  1169.39  1200.30  1265.68
                             1324.61  1664.02  1712.37  1727.10  1883.10
                             2730.50  2954.91  4025.56  4066.89  4240.27
                             4294.19

 Zero-point correction=                           0.059592 (Hartree/Particle)
 Thermal correction to Energy=                    0.065594
 Thermal correction to Enthalpy=                  0.066539
 Thermal correction to Gibbs Free Energy=         0.030030
 Sum of electronic and zero-point Energies=           -191.796686
 Sum of electronic and thermal Energies=              -191.790683
 Sum of electronic and thermal Enthalpies=            -191.789739
 Sum of electronic and thermal Free Energies=         -191.826248

                     E (Thermal)             CV                S
                      KCal/Mol        Cal/Mol-Kelvin    Cal/Mol-Kelvin
 Total                   41.161             20.053             76.839
 Electronic               0.000              0.000              2.183
 Translational            0.889              2.981             38.389
 Rotational               0.889              2.981             25.215
 Vibrational             39.384             14.092             11.051
 Vibration     1          0.614              1.915              2.827
 Vibration     2          0.644              1.819              2.008
 Vibration     3          0.670              1.740              1.641
 Vibration     4          0.686              1.694              1.478
 Vibration     5          0.727              1.576              1.169
 Vibration     6          0.883              1.187              0.591
 Vibration     7          0.920              1.110              0.516

 Normal termination of Gaussian 09 at Mon Jun 20 09:16:59 2016.
