 Gaussian 09, Revision E.01,
 Gaussian 09:  EM64L-G09RevE.01 30-Nov-2015

 ---------------------------------------------
 #p b3lyp/6-311++G(3df,2p) freq symmetry=Loose
 ---------------------------------------------

 ---------
 b3lyp opt
 ---------
 Symbolic Z-matrix:
 Charge =  1 Multiplicity = 4

                         Standard orientation:
 ---------------------------------------------------------------------
 Center     Atomic      Atomic             Coordinates (Angstroms)
 Number     Number       Type             X           Y           Z
 ---------------------------------------------------------------------
      1          6           0       -0.225759    1.352122    0.674586
      2          6           0       -0.263486    0.159869   -0.000000
      3          1           0       -0.208418    1.904136    1.602033
      4          6           0       -0.225759   -1.319137   -0.000000
      5          1           0       -0.700313   -1.727133   -0.897226
      6          1           0       -0.700313   -1.727133    0.897226
      7          6           0        1.243674   -1.603978    0.000000
      8          6           0       -0.225759    1.352122   -0.674586
      9          1           0       -0.208418    1.904136   -1.602033
 ---------------------------------------------------------------------

 SCF Done:  E(UB3LYP) =  -192.381150226     A.U. after   13 cycles

 The electronic state is 4-A".
 Alpha  occ. eigenvalues --  -10.49339 -10.47950 -10.47877 -10.44194 -10.43426
 Alpha  occ. eigenvalues --   -1.19897  -1.02092  -0.83779  -0.82345  -0.79120
 Alpha  occ. eigenvalues --   -0.73304  -0.68142  -0.64556  -0.61788  -0.59081
 Alpha  occ. eigenvalues --   -0.55961  -0.42867  -0.42174
 Alpha virt. eigenvalues --   -0.27308  -0.25826  -0.14942  -0.13579  -0.13364
 Alpha virt. eigenvalues --   -0.11133  -0.10688  -0.10652  -0.09345  -0.05997
 Alpha virt. eigenvalues --   -0.05873  -0.05456  -0.04419  -0.03936  -0.03383

  Beta  occ. eigenvalues --  -10.49177 -10.47905 -10.47833 -10.43169 -10.39726
  Beta  occ. eigenvalues --   -1.19737  -0.99460  -0.83672  -0.80904  -0.74008
  Beta  occ. eigenvalues --   -0.70681  -0.67011  -0.62537  -0.61314  -0.58364
  Beta virt. eigenvalues --   -0.35268  -0.27700  -0.27224  -0.22091  -0.20306
  Beta virt. eigenvalues --   -0.14499  -0.13479  -0.13319  -0.10883  -0.10561
  Beta virt. eigenvalues --   -0.10158  -0.08934  -0.05913  -0.05463  -0.04338

 Mulliken charges and spin densities:
               1          2
     1  C    0.118483   0.051142
     2  C   -0.045246  -0.001078
     3  H    0.312819  -0.001080
     4  C   -0.038671   0.016537
     5  H    0.195170   0.054730
     6  H    0.195170   0.054730
     7  C   -0.169027   2.774958
     8  C    0.118483   0.051142
     9  H    0.312819  -0.001080
 Sum of Mulliken charges =   1.00000   3.00000

 Dipole moment (field-independent basis, Debye):
    X=             -1.3301    Y=              2.4793    Z=             -0.0000  Tot=              2.8135
 Quadrupole moment (field-independent basis, Debye-Ang):
   XX=            -25.8356   YY=            -14.3052   ZZ=            -20.9084
   XY=             -0.3235   XZ=             -0.0000   YZ=             -0.0000

  Exact polarizability:  40.538  -8.004  61.154   0.000  -0.000  41.906
 Approx polarizability:  61.346 -11.976  83.801  -0.000  -0.000  64.185

                      1                      2                      3
                     A"                     A'                     A"
 Frequencies --     91.1858               211.0505               344.0304
 Red. masses --      2.9939                 6.7197                 2.3365
 Frc consts  --      0.0147                 0.1764                 0.1629
 IR Inten    --      0.5005                25.0488                 2.8758

                      4                      5                      6
                     A'                     A'                     A'
 Frequencies --    491.6362               756.4672               871.1665
 Red. masses --      3.7760                 2.9820                 1.4528
 Frc consts  --      0.5377                 1.0054                 0.6496
 IR Inten    --     14.2800                 4.6273                36.5756

                      7                      8                      9
                     A"                     A'                     A'
 Frequencies --    922.4293               972.8746               978.1361
 Red. masses --      1.4560                 1.6662                 3.0080
 Frc consts  --      0.7299                 0.9291                 1.6956
 IR Inten    --      0.7433                25.6465                13.1452

                     10                     11                     12
                     A"                     A"                     A"
 Frequencies --   1009.0652              1021.6501              1153.9367
 Red. masses --      1.4269                 1.3823                 1.2810
 Frc consts  --      0.8560                 0.8501                 1.0050
 IR Inten    --      0.1835                10.5686                 2.3052

                     13                     14                     15
                     A'                     A"                     A'
 Frequencies --   1252.7847              1304.4038              1402.1457
 Red. masses --      1.2160                 3.5251                 5.5211
 Frc consts  --      1.1245                 3.5338                 6.3953
 IR Inten    --      6.7901                27.4889                99.9341

                     16                     17                     18
                     A'                     A'                     A'
 Frequencies --   1450.2155              1746.1557              3003.4521
 Red. masses --      1.1287                 6.4850                 1.0527
 Frc consts  --      1.3987                11.6499                 5.5947
 IR Inten    --     10.1342                32.5555                 3.5758

                     19                     20                     21
                     A"                     A"                     A'
 Frequencies --   3059.5970              3237.9327              3270.2513
 Red. masses --      1.1089                 1.0974                 1.1426
 Frc consts  --      6.1163                 6.7785                 7.1998
 IR Inten    --      6.1743                71.6477                48.2884

 - Thermochemistry -
 -------------------
 Temperature   298.150 Kelvin.  Pressure   1.00000 Atm.
 Atom     1 has atomic number  6 and mass  12.00000

 Molecular mass:    64.03130 amu.
 Principal axes and moments of inertia in atomic units:
                           1         2         3
     Eigenvalues --   116.09700 469.63631 480.07927
           X           -0.27055  -0.00000   0.96270
           Y            0.96270  -0.00000   0.27055
           Z           -0.00000   1.00000   0.00000
 This molecule is an asymmetric top.
 Rotational symmetry number  1.
 Rotational temperatures (Kelvin)      0.74605     0.18443     0.18042
 Rotational constants (GHZ):          15.54511     3.84285     3.75926
 Zero-point vibrational energy     170770.3 (Joules/Mol)
                                   40.81508 (Kcal/Mol)
 Warning -- explicit consideration of   4 degrees of freedom as
           vibrations may cause significant error
 Vibrational temperatures:    131.20   303.65   494.98   707.35  1088.39
          (Kelvin)           1253.41  1327.17  1399.75  1407.32  1451.82
                             1469.92  1660.26  1802.48  1876.74  2017.37
                             2086.53  2512.33  4321.29  4402.07  4658.66
                             4705.16

 Zero-point correction=                           0.065043 (Hartree/Particle)
 Thermal correction to Energy=                    0.070181
 Thermal correction to Enthalpy=                  0.071125
 Thermal correction to Gibbs Free Energy=         0.035719
 Sum of electronic and zero-point Energies=           -192.316107
 Sum of electronic and thermal Energies=              -192.310969
 Sum of electronic and thermal Enthalpies=            -192.310025
 Sum of electronic and thermal Free Energies=         -192.345431

                     E (Thermal)             CV                S
                      KCal/Mol        Cal/Mol-Kelvin    Cal/Mol-Kelvin
 Total                   44.039             16.645             74.519
 Electronic               0.000              0.000              2.755
 Translational            0.889              2.981             38.389
 Rotational               0.889              2.981             24.774
 Vibrational             42.262             10.684              8.601
 Vibration     1          0.602              1.955              3.634
 Vibration     2          0.643              1.824              2.035
 Vibration     3          0.723              1.587              1.193
 Vibration     4          0.847              1.269              0.679

 Optimization completed.
    -- Stationary point found.
 Normal termination of Gaussian 09 at Wed Jul 20 13:10:44 2016.
