 Gaussian 09, Revision E.01,
 Gaussian 09:  EM64L-G09RevE.01 30-Nov-2015

 ---------------------------------------------
 #p b3lyp/6-311++G(3df,2p) freq symmetry=Loose
 ---------------------------------------------

 ---------
 b3lyp opt
 ---------
 Symbolic Z-matrix:
 Charge =  3 Multiplicity = 4

                         Standard orientation:
 ---------------------------------------------------------------------
 Center     Atomic      Atomic             Coordinates (Angstroms)
 Number     Number       Type             X           Y           Z
 ---------------------------------------------------------------------
      1          6           0        0.133945   -0.553352    0.886060
      2          1           0       -1.445261   -1.998875    0.000000
      3          6           0        0.105695    0.608468   -0.000000
      4          6           0        0.133945    2.030095   -0.000000
      5          1           0       -0.812434    2.635579   -0.000000
      6          1           0        1.109490    2.594614   -0.000000
      7          6           0        0.133945   -0.553352   -0.886060
      8          6           0       -0.333556   -1.619941    0.000000
      9          1           0        0.104364   -2.702829    0.000000
 ---------------------------------------------------------------------

 SCF Done:  E(UB3LYP) =  -190.984578987     A.U. after   18 cycles

 The electronic state is 4-A".
 Alpha  occ. eigenvalues --  -11.05998 -11.05993 -11.02965 -10.99932 -10.95140
 Alpha  occ. eigenvalues --   -1.70415  -1.50599  -1.39471  -1.33925  -1.23538
 Alpha  occ. eigenvalues --   -1.19122  -1.17214  -1.16456  -1.13486  -1.08819
 Alpha  occ. eigenvalues --   -1.02330  -0.96254
 Alpha virt. eigenvalues --   -0.85762  -0.78484  -0.77499  -0.54503  -0.53565
 Alpha virt. eigenvalues --   -0.51334  -0.50028  -0.48558  -0.45816  -0.45568
 Alpha virt. eigenvalues --   -0.43687  -0.42402  -0.40646  -0.39995  -0.39724

  Beta  occ. eigenvalues --  -11.03901 -11.03899 -11.02381 -10.99629 -10.94689
  Beta  occ. eigenvalues --   -1.67720  -1.48970  -1.37145  -1.27836  -1.21531
  Beta  occ. eigenvalues --   -1.15498  -1.14997  -1.14209  -1.10084
  Beta virt. eigenvalues --   -0.92062  -0.89677  -0.84170  -0.78215  -0.71970
  Beta virt. eigenvalues --   -0.70860  -0.52576  -0.51819  -0.50156  -0.47651
  Beta virt. eigenvalues --   -0.46199  -0.44731  -0.42926  -0.42871  -0.41263

 Mulliken charges and spin densities:
               1          2
     1  C    0.686840   0.956713
     2  H    0.367748   0.143687
     3  C    0.652094   0.317482
     4  C   -0.088637   0.252440
     5  H    0.383547   0.016262
     6  H    0.365503   0.029207
     7  C    0.686840   0.956713
     8  C   -0.410048   0.184709
     9  H    0.356113   0.142787
 Sum of Mulliken charges =   3.00000   3.00000

 Dipole moment (field-independent basis, Debye):
    X=             -0.9208    Y=              1.1435    Z=              0.0000  Tot=              1.4681
 Quadrupole moment (field-independent basis, Debye-Ang):
   XX=            -16.0491   YY=             28.4803   ZZ=            -17.2392
   XY=              6.2555   XZ=              0.0000   YZ=              0.0000

  Exact polarizability:  29.022   5.792  91.823   0.000   0.000  31.390
 Approx polarizability:  44.816  10.938 164.900  -0.000  -0.000  65.738

                      1                      2                      3
                     A"                     A'                     A"
 Frequencies --    225.6973               250.2468               332.8282
 Red. masses --      1.1796                 2.1686                 2.4413
 Frc consts  --      0.0354                 0.0800                 0.1593
 IR Inten    --     15.2905                43.6903                11.4869

                      4                      5                      6
                     A'                     A"                     A'
 Frequencies --    463.3117               600.7142               609.0024
 Red. masses --      2.1292                 1.7288                 4.7857
 Frc consts  --      0.2693                 0.3676                 1.0458
 IR Inten    --     50.3577                 0.5203                 5.2837

                      7                      8                      9
                     A'                     A"                     A'
 Frequencies --    681.2565               782.7420               802.5890
 Red. masses --      2.3477                 2.4645                 7.4766
 Frc consts  --      0.6420                 0.8897                 2.8375
 IR Inten    --     98.9854                 0.2044               142.4122

                     10                     11                     12
                     A'                     A"                     A'
 Frequencies --    877.6384               893.4825               956.3674
 Red. masses --      1.4624                 2.3220                 1.2067
 Frc consts  --      0.6637                 1.0921                 0.6503
 IR Inten    --    108.6340                14.6427               599.6839

                     13                     14                     15
                     A"                     A"                     A'
 Frequencies --   1034.3572              1122.0331              1189.3793
 Red. masses --      1.6964                 1.6854                 7.4297
 Frc consts  --      1.0693                 1.2502                 6.1925
 IR Inten    --    136.2979                 0.1398                 0.7787

                     16                     17                     18
                     A'                     A'                     A'
 Frequencies --   1262.8641              1336.2068              2170.8086
 Red. masses --      1.3839                 2.9842                 1.0674
 Frc consts  --      1.3003                 3.1392                 2.9635
 IR Inten    --     19.7363               186.8700               501.0564

                     19                     20                     21
                     A'                     A'                     A'
 Frequencies --   2420.2563              2725.2613              2824.4049
 Red. masses --      1.0901                 1.0473                 1.1163
 Frc consts  --      3.7621                 4.5827                 5.2468
 IR Inten    --   1878.4527               667.7105               362.3807

 - Thermochemistry -
 -------------------
 Temperature   298.150 Kelvin.  Pressure   1.00000 Atm.
 Atom     1 has atomic number  6 and mass  12.00000

 Molecular mass:    64.03130 amu.
 Principal axes and moments of inertia in atomic units:
                           1         2         3
     Eigenvalues --    84.50548 442.91196 492.98179
           X            0.10656   0.00000   0.99431
           Y            0.99431   0.00000  -0.10656
           Z           -0.00000   1.00000  -0.00000
 This molecule is an asymmetric top.
 Rotational symmetry number  1.
 Rotational temperatures (Kelvin)      1.02495     0.19556     0.17569
 Rotational constants (GHZ):          21.35650     4.07472     3.66087
 Zero-point vibrational energy     140928.8 (Joules/Mol)
                                   33.68278 (Kcal/Mol)
 Warning -- explicit consideration of   6 degrees of freedom as
           vibrations may cause significant error
 Vibrational temperatures:    324.73   360.05   478.86   666.60   864.29
          (Kelvin)            876.22   980.17  1126.19  1154.75  1262.72
                             1285.52  1376.00  1488.21  1614.35  1711.25
                             1816.98  1922.50  3123.31  3482.20  3921.04
                             4063.68

 Zero-point correction=                           0.053677 (Hartree/Particle)
 Thermal correction to Energy=                    0.059000
 Thermal correction to Enthalpy=                  0.059944
 Thermal correction to Gibbs Free Energy=         0.025022
 Sum of electronic and zero-point Energies=           -190.930902
 Sum of electronic and thermal Energies=              -190.925579
 Sum of electronic and thermal Enthalpies=            -190.924635
 Sum of electronic and thermal Free Energies=         -190.959557

                     E (Thermal)             CV                S
                      KCal/Mol        Cal/Mol-Kelvin    Cal/Mol-Kelvin
 Total                   37.023             19.292             73.499
 Electronic               0.000              0.000              2.755
 Translational            0.889              2.981             38.389
 Rotational               0.889              2.981             24.427
 Vibrational             35.246             13.331              7.929
 Vibration     1          0.650              1.802              1.913
 Vibration     2          0.663              1.762              1.729
 Vibration     3          0.715              1.610              1.246
 Vibration     4          0.821              1.331              0.757
 Vibration     5          0.959              1.030              0.448
 Vibration     6          0.968              1.013              0.434

 Optimization completed.
    -- Stationary point found.
 Normal termination of Gaussian 09 at Wed Jul 20 15:41:03 2016.
