 Gaussian 09, Revision E.01,
 Gaussian 09:  EM64L-G09RevE.01 30-Nov-2015

 ---------------------------------------------
 #p b3lyp/6-311++G(3df,2p) freq symmetry=Loose
 ---------------------------------------------

 ---------
 b3lyp opt
 ---------
 Symbolic Z-matrix:
 Charge =  0 Multiplicity = 3

                         Standard orientation:
 ---------------------------------------------------------------------
 Center     Atomic      Atomic             Coordinates (Angstroms)
 Number     Number       Type             X           Y           Z
 ---------------------------------------------------------------------
      1          6           0        0.198793    1.379588    0.000013
      2          6           0       -0.526727    0.200878   -0.000151
      3          6           0       -1.836942   -0.474321   -0.000016
      4          1           0       -2.650605    0.249234   -0.006293
      5          1           0       -1.924503   -1.123836   -0.873183
      6          1           0       -1.929034   -1.112776    0.880369
      7          6           0        0.827915    0.055258   -0.000020
      8          6           0        1.923336   -0.738957   -0.000022
      9          1           0        2.985890   -0.547300    0.000275
 ---------------------------------------------------------------------

 SCF Done:  E(UB3LYP) =  -192.741279715     A.U. after   15 cycles

 The electronic state is 3-A.
 Alpha  occ. eigenvalues --  -10.23605 -10.23407 -10.23276 -10.20492 -10.20300
 Alpha  occ. eigenvalues --   -0.93474  -0.77414  -0.75142  -0.54910  -0.52845
 Alpha  occ. eigenvalues --   -0.47724  -0.46480  -0.42052  -0.39324  -0.37280
 Alpha  occ. eigenvalues --   -0.28303  -0.26716  -0.22529
 Alpha virt. eigenvalues --   -0.02298  -0.01349   0.00761   0.01061   0.02722
 Alpha virt. eigenvalues --    0.03082   0.04506   0.05526   0.07228   0.07402
 Alpha virt. eigenvalues --    0.08063   0.08578   0.08609   0.10804   0.11162

  Beta  occ. eigenvalues --  -10.23370 -10.23220 -10.21110 -10.20465 -10.19838
  Beta  occ. eigenvalues --   -0.92194  -0.76644  -0.71011  -0.53034  -0.51717
  Beta  occ. eigenvalues --   -0.46812  -0.45773  -0.41212  -0.37036  -0.34712
  Beta  occ. eigenvalues --   -0.24303
  Beta virt. eigenvalues --   -0.14465  -0.10756  -0.01282  -0.00664   0.01046
  Beta virt. eigenvalues --    0.02763   0.03161   0.03234   0.04589   0.06079
  Beta virt. eigenvalues --    0.07288   0.08113   0.08181   0.09033   0.09916

 Mulliken charges and spin densities:
               1          2
     1  C   -0.617107   0.260086
     2  C    0.321390   0.285883
     3  C   -0.426860   0.020926
     4  H    0.155380   0.006688
     5  H    0.162683   0.009072
     6  H    0.163089   0.009193
     7  C    0.600577  -0.142941
     8  C   -0.569693   1.528191
     9  H    0.210540   0.022901
 Sum of Mulliken charges =  -0.00000   2.00000

 Dipole moment (field-independent basis, Debye):
    X=             -1.1411    Y=             -2.6876    Z=              0.0015  Tot=              2.9198
 Quadrupole moment (field-independent basis, Debye-Ang):
   XX=            -23.5831   YY=            -37.7900   ZZ=            -29.8653
   XY=              0.3630   XZ=             -0.0022   YZ=             -0.0010

  Exact polarizability:  84.042 -13.690  69.604  -0.001  -0.001  40.305
 Approx polarizability: 122.220 -30.772 110.267  -0.006  -0.001  59.521

                      1                      2                      3
                      A                      A                      A
 Frequencies --     62.4578               202.8557               285.6056
 Red. masses --      1.0819                 3.1598                 3.0140
 Frc consts  --      0.0025                 0.0766                 0.1449
 IR Inten    --      0.0004                 1.0795                 0.1673

                      4                      5                      6
                      A                      A                      A
 Frequencies --    429.6483               494.2217               630.0327
 Red. masses --      3.4922                 2.8036                 1.6345
 Frc consts  --      0.3798                 0.4035                 0.3823
 IR Inten    --      8.9356                 1.6575                17.6591

                      7                      8                      9
                      A                      A                      A
 Frequencies --    720.5528               843.7937               887.5781
 Red. masses --      3.3415                 5.6445                 1.5625
 Frc consts  --      1.0222                 2.3678                 0.7252
 IR Inten    --     13.1969                 2.6291                75.8865

                     10                     11                     12
                      A                      A                      A
 Frequencies --   1003.4432              1023.7041              1184.0233
 Red. masses --      2.0496                 1.4905                 3.4307
 Frc consts  --      1.2159                 0.9203                 2.8337
 IR Inten    --     14.0089                 1.6607                15.0127

                     13                     14                     15
                      A                      A                      A
 Frequencies --   1346.9670              1398.4899              1475.0675
 Red. masses --      8.3500                 1.2183                 1.0638
 Frc consts  --      8.9259                 1.4039                 1.3638
 IR Inten    --     38.4991                 6.7343                 5.5573

                     16                     17                     18
                      A                      A                      A
 Frequencies --   1477.0615              1711.6933              3027.7530
 Red. masses --      1.0441                11.1121                 1.0342
 Frc consts  --      1.3421                19.1821                 5.5862
 IR Inten    --      8.5699                73.5724                 7.3400

                     19                     20                     21
                      A                      A                      A
 Frequencies --   3083.2850              3110.4645              3210.6183
 Red. masses --      1.0985                 1.1034                 1.0934
 Frc consts  --      6.1528                 6.2899                 6.6405
 IR Inten    --      2.6258                12.9806                 1.8325

 - Thermochemistry -
 -------------------
 Temperature   298.150 Kelvin.  Pressure   1.00000 Atm.
 Atom     1 has atomic number  6 and mass  12.00000

 Molecular mass:    64.03130 amu.
 Principal axes and moments of inertia in atomic units:
                           1         2         3
     Eigenvalues --   131.75404 435.21899 555.90580
           X            0.99968   0.02514  -0.00000
           Y           -0.02514   0.99968  -0.00000
           Z            0.00000   0.00000   1.00000
 This molecule is an asymmetric top.
 Rotational symmetry number  1.
 Rotational temperatures (Kelvin)      0.65739     0.19901     0.15581
 Rotational constants (GHZ):          13.69781     4.14674     3.24649
 Zero-point vibrational energy     165140.4 (Joules/Mol)
                                   39.46950 (Kcal/Mol)
 Warning -- explicit consideration of   5 degrees of freedom as
           vibrations may cause significant error
 Vibrational temperatures:     89.86   291.86   410.92   618.17   711.07
          (Kelvin)            906.48  1036.71  1214.03  1277.03  1443.73
                             1472.88  1703.54  1937.98  2012.11  2122.29
                             2125.16  2462.74  4356.26  4436.15  4475.26
                             4619.36

 Zero-point correction=                           0.062899 (Hartree/Particle)
 Thermal correction to Energy=                    0.068535
 Thermal correction to Enthalpy=                  0.069479
 Thermal correction to Gibbs Free Energy=         0.033199
 Sum of electronic and zero-point Energies=           -192.678381
 Sum of electronic and thermal Energies=              -192.672745
 Sum of electronic and thermal Enthalpies=            -192.671801
 Sum of electronic and thermal Free Energies=         -192.708081

                     E (Thermal)             CV                S
                      KCal/Mol        Cal/Mol-Kelvin    Cal/Mol-Kelvin
 Total                   43.006             18.369             76.357
 Electronic               0.000              0.000              2.183
 Translational            0.889              2.981             38.389
 Rotational               0.889              2.981             24.970
 Vibrational             41.229             12.407             10.815
 Vibration     1          0.597              1.972              4.378
 Vibration     2          0.639              1.836              2.107
 Vibration     3          0.683              1.700              1.500
 Vibration     4          0.791              1.406              0.860
 Vibration     5          0.850              1.263              0.673

 Normal termination of Gaussian 09 at Wed Jun 22 05:10:57 2016.
