 Gaussian 09, Revision E.01,
 Gaussian 09:  EM64L-G09RevE.01 30-Nov-2015

 ---------------------------------------------
 #p b3lyp/6-311++G(3df,2p) freq symmetry=Loose
 ---------------------------------------------

 ---------
 b3lyp opt
 ---------
 Symbolic Z-matrix:
 Charge =  1 Multiplicity = 4

                         Standard orientation:
 ---------------------------------------------------------------------
 Center     Atomic      Atomic             Coordinates (Angstroms)
 Number     Number       Type             X           Y           Z
 ---------------------------------------------------------------------
      1          6           0        1.313045    0.107430   -0.000000
      2          1           0        1.492428   -0.968048   -0.000000
      3          6           0       -1.053563   -0.254838    0.000000
      4          6           0        2.402933    0.945382   -0.000000
      5          6           0       -2.050229   -1.053144    0.000000
      6          1           0       -2.493864   -1.405373    0.930448
      7          1           0       -2.493864   -1.405373   -0.930448
      8          6           0        0.000000    0.605673   -0.000000
      9          1           0       -0.177813    1.675774   -0.000000
 ---------------------------------------------------------------------

 SCF Done:  E(UB3LYP) =  -192.411485864     A.U. after   18 cycles

 The electronic state is 4-A".
 Alpha  occ. eigenvalues --  -10.50092 -10.46349 -10.46134 -10.44777 -10.40545
 Alpha  occ. eigenvalues --   -1.08345  -1.01915  -0.94503  -0.79622  -0.77042
 Alpha  occ. eigenvalues --   -0.70589  -0.67674  -0.67083  -0.61185  -0.59014
 Alpha  occ. eigenvalues --   -0.51566  -0.49422  -0.46584
 Alpha virt. eigenvalues --   -0.29688  -0.21536  -0.19007  -0.15002  -0.12692
 Alpha virt. eigenvalues --   -0.11317  -0.10297  -0.08673  -0.07747  -0.06991
 Alpha virt. eigenvalues --   -0.06371  -0.04869  -0.04490  -0.03783  -0.02817

  Beta  occ. eigenvalues --  -10.46120 -10.45991 -10.45669 -10.44386 -10.40572
  Beta  occ. eigenvalues --   -1.06339  -0.99718  -0.91258  -0.75983  -0.75306
  Beta  occ. eigenvalues --   -0.69666  -0.66439  -0.64907  -0.55545  -0.51276
  Beta virt. eigenvalues --   -0.38982  -0.38764  -0.26660  -0.23597  -0.21061
  Beta virt. eigenvalues --   -0.16090  -0.14711  -0.12513  -0.10828  -0.10157
  Beta virt. eigenvalues --   -0.07931  -0.07523  -0.06479  -0.05994  -0.04314

 Mulliken charges and spin densities:
               1          2
     1  C    0.083783   0.088465
     2  H    0.213715   0.059612
     3  C    0.580248   0.224481
     4  C    0.009244   2.338417
     5  C   -0.272184  -0.027074
     6  H    0.235994   0.029326
     7  H    0.235994   0.029326
     8  C   -0.290949   0.266155
     9  H    0.204155  -0.008707
 Sum of Mulliken charges =   1.00000   3.00000

 Dipole moment (field-independent basis, Debye):
    X=             -0.2626    Y=             -0.4175    Z=              0.0000  Tot=              0.4933
 Quadrupole moment (field-independent basis, Debye-Ang):
   XX=             -8.1490   YY=            -20.7618   ZZ=            -26.1839
   XY=              7.8991   XZ=             -0.0000   YZ=             -0.0000

  Exact polarizability: 102.623  27.335  52.485   0.000   0.000  33.232
 Approx polarizability: 161.290  47.187  80.845   0.000   0.000  47.907

                      1                      2                      3
                     A"                     A'                     A"
 Frequencies --    141.6202               171.6843               331.5572
 Red. masses --      3.2767                 4.3131                 1.1380
 Frc consts  --      0.0387                 0.0749                 0.0737
 IR Inten    --      0.7170                 1.5399                 0.1994

                      4                      5                      6
                     A"                     A'                     A'
 Frequencies --    391.1789               426.4867               555.1217
 Red. masses --      2.2079                 5.5986                 6.6885
 Frc consts  --      0.1991                 0.6000                 1.2144
 IR Inten    --      2.6893                 4.5272                 6.2732

                      7                      8                      9
                     A"                     A'                     A"
 Frequencies --    847.5041               905.3804               908.1157
 Red. masses --      1.6409                 1.3104                 1.5933
 Frc consts  --      0.6944                 0.6329                 0.7741
 IR Inten    --      0.7121                51.4215                 8.6405

                     10                     11                     12
                     A"                     A'                     A'
 Frequencies --    925.2047              1048.4918              1214.5089
 Red. masses --      1.3563                 3.2381                 3.0592
 Frc consts  --      0.6840                 2.0973                 2.6587
 IR Inten    --     33.6467                22.2606                14.1142

                     13                     14                     15
                     A'                     A'                     A'
 Frequencies --   1260.0909              1284.4507              1346.3330
 Red. masses --      1.2329                 1.9918                 1.2383
 Frc consts  --      1.1534                 1.9361                 1.3225
 IR Inten    --      2.9243                26.6705                20.9297

                     16                     17                     18
                     A'                     A'                     A'
 Frequencies --   1483.8482              1954.5496              3077.1699
 Red. masses --      2.8537                 9.6813                 1.0611
 Frc consts  --      3.7020                21.7910                 5.9199
 IR Inten    --      1.5184               255.3649               195.1448

                     19                     20                     21
                     A'                     A"                     A'
 Frequencies --   3091.7796              3147.4782              3160.3356
 Red. masses --      1.0879                 1.1110                 1.0902
 Frc consts  --      6.1271                 6.4846                 6.4152
 IR Inten    --     12.3751                58.7601                17.0869

 - Thermochemistry -
 -------------------
 Temperature   298.150 Kelvin.  Pressure   1.00000 Atm.
 Atom     1 has atomic number  6 and mass  12.00000

 Molecular mass:    64.03130 amu.
 Principal axes and moments of inertia in atomic units:
                           1         2         3
     Eigenvalues --    47.34679 698.56455 733.44822
           X            0.92737  -0.37415   0.00000
           Y            0.37415   0.92737   0.00000
           Z            0.00000  -0.00000   1.00000
 This molecule is an asymmetric top.
 Rotational symmetry number  1.
 Rotational temperatures (Kelvin)      1.82935     0.12399     0.11809
 Rotational constants (GHZ):          38.11750     2.58350     2.46063
 Zero-point vibrational energy     165520.6 (Joules/Mol)
                                   39.56038 (Kcal/Mol)
 Warning -- explicit consideration of   6 degrees of freedom as
           vibrations may cause significant error
 Vibrational temperatures:    203.76   247.02   477.04   562.82   613.62
          (Kelvin)            798.70  1219.37  1302.64  1306.57  1331.16
                             1508.54  1747.41  1812.99  1848.04  1937.07
                             2134.92  2812.16  4427.36  4448.38  4528.51
                             4547.01

 Zero-point correction=                           0.063043 (Hartree/Particle)
 Thermal correction to Energy=                    0.068618
 Thermal correction to Enthalpy=                  0.069563
 Thermal correction to Gibbs Free Energy=         0.033701
 Sum of electronic and zero-point Energies=           -192.348442
 Sum of electronic and thermal Energies=              -192.342867
 Sum of electronic and thermal Enthalpies=            -192.341923
 Sum of electronic and thermal Free Energies=         -192.377785

                     E (Thermal)             CV                S
                      KCal/Mol        Cal/Mol-Kelvin    Cal/Mol-Kelvin
 Total                   43.059             18.485             75.477
 Electronic               0.000              0.000              2.755
 Translational            0.889              2.981             38.389
 Rotational               0.889              2.981             24.698
 Vibrational             41.281             12.524              9.635
 Vibration     1          0.615              1.912              2.782
 Vibration     2          0.626              1.877              2.417
 Vibration     3          0.714              1.612              1.252
 Vibration     4          0.759              1.489              0.996
 Vibration     5          0.788              1.413              0.870
 Vibration     6          0.911              1.128              0.534

 Optimization completed.
    -- Stationary point found.
 Normal termination of Gaussian 09 at Thu Jul 21 00:11:09 2016.
