 Gaussian 09, Revision E.01,
 Gaussian 09:  EM64L-G09RevE.01 30-Nov-2015

 ---------------------------------------------
 #p b3lyp/6-311++G(3df,2p) freq symmetry=Loose
 ---------------------------------------------

 ---------
 b3lyp opt
 ---------
 Symbolic Z-matrix:
 Charge =  0 Multiplicity = 1

                         Standard orientation:
 ---------------------------------------------------------------------
 Center     Atomic      Atomic             Coordinates (Angstroms)
 Number     Number       Type             X           Y           Z
 ---------------------------------------------------------------------
      1          6           0       -0.000394    0.869714   -0.000000
      2          1           0        0.873386    1.528747   -0.000000
      3          1           0        0.000689   -1.142565    3.131821
      4          1           0        0.000689   -1.142565   -3.131821
      5          6           0        0.000105    0.070740   -1.226147
      6          6           0        0.000105    0.070740    1.226147
      7          6           0        0.000105   -0.569882   -2.237860
      8          1           0       -0.874920    1.527813   -0.000000
      9          6           0        0.000105   -0.569882    2.237860
 ---------------------------------------------------------------------

 SCF Done:  E(RB3LYP) =  -192.859211216     A.U. after   11 cycles

 The electronic state is 1-A'.
 Alpha  occ. eigenvalues --  -10.23264 -10.18623 -10.18623 -10.17215 -10.17215
 Alpha  occ. eigenvalues --   -0.82799  -0.75593  -0.71680  -0.56017  -0.53686
 Alpha  occ. eigenvalues --   -0.49024  -0.48165  -0.47079  -0.29824  -0.29780
 Alpha  occ. eigenvalues --   -0.28485  -0.27891
 Alpha virt. eigenvalues --   -0.01111   0.00609   0.00798   0.01071   0.02058
 Alpha virt. eigenvalues --    0.02790   0.03568   0.04448   0.05399   0.05458
 Alpha virt. eigenvalues --    0.08158   0.08209   0.08818   0.09541   0.10077

 Mulliken charges:
               1
     1  C   -0.964926
     2  H    0.184563
     3  H    0.308676
     4  H    0.308676
     5  C   -0.420714
     6  C   -0.420714
     7  C    0.409961
     8  H    0.184518
     9  C    0.409961
 Sum of Mulliken charges =  -0.00000

 Dipole moment (field-independent basis, Debye):
    X=              0.0002    Y=              0.5482    Z=              0.0000  Tot=              0.5482
 Quadrupole moment (field-independent basis, Debye-Ang):
   XX=            -31.1352   YY=            -27.3656   ZZ=            -25.0131
   XY=             -0.0024   XZ=              0.0000   YZ=              0.0000

  Exact polarizability:  40.559  -0.002  51.266  -0.000   0.000  78.477
 Approx polarizability:  57.097   0.002  80.253  -0.000   0.000 113.763

                      1                      2                      3
                     A'                     A'                     A"
 Frequencies --    137.1472               313.4600               334.6592
 Red. masses --      3.9368                 2.2266                 4.3301
 Frc consts  --      0.0436                 0.1289                 0.2857
 IR Inten    --      1.0521                17.4783                 0.0001

                      4                      5                      6
                     A"                     A'                     A"
 Frequencies --    337.8088               564.0268               675.6884
 Red. masses --      4.7681                 6.9723                 1.2529
 Frc consts  --      0.3206                 1.3069                 0.3370
 IR Inten    --      4.7680                10.7559                 0.0001

                      7                      8                      9
                     A'                     A"                     A'
 Frequencies --    677.7806               690.5308               692.9907
 Red. masses --      1.2607                 1.2656                 1.2916
 Frc consts  --      0.3412                 0.3556                 0.3655
 IR Inten    --     93.0255                27.8354                56.2673

                     10                     11                     12
                     A'                     A'                     A"
 Frequencies --    900.3469               933.9056               995.8008
 Red. masses --      5.9573                 1.8559                 3.0005
 Frc consts  --      2.8453                 0.9537                 1.7530
 IR Inten    --      7.2260                 0.9517                 3.9499

                     13                     14                     15
                     A"                     A"                     A'
 Frequencies --   1240.3511              1337.9712              1455.6775
 Red. masses --      1.0757                 1.4615                 1.0746
 Frc consts  --      0.9750                 1.5414                 1.3417
 IR Inten    --      0.0000                21.7389                 6.5301

                     16                     17                     18
                     A"                     A'                     A'
 Frequencies --   2225.0326              2231.3298              3009.5130
 Red. masses --      5.9188                 5.8670                 1.0577
 Frc consts  --     17.2647                17.2106                 5.6445
 IR Inten    --      7.5690                 0.3103                 5.1454

                     19                     20                     21
                     A'                     A"                     A'
 Frequencies --   3032.3022              3462.8707              3463.9749
 Red. masses --      1.1002                 1.1627                 1.1640
 Frc consts  --      5.9603                 8.2144                 8.2288
 IR Inten    --      0.3786               105.5365                31.1746

 - Thermochemistry -
 -------------------
 Temperature   298.150 Kelvin.  Pressure   1.00000 Atm.
 Atom     1 has atomic number  6 and mass  12.00000

 Molecular mass:    64.03130 amu.
 Principal axes and moments of inertia in atomic units:
                           1         2         3
     Eigenvalues --    92.35341 634.16826 715.52102
           X            0.00000  -0.00037   1.00000
           Y            0.00000   1.00000   0.00037
           Z            1.00000  -0.00000   0.00000
 This molecule is an asymmetric top.
 Rotational symmetry number  1.
 Rotational temperatures (Kelvin)      0.93785     0.13658     0.12105
 Rotational constants (GHZ):          19.54169     2.84584     2.52228
 Zero-point vibrational energy     171742.9 (Joules/Mol)
                                   41.04754 (Kcal/Mol)
 Warning -- explicit consideration of   5 degrees of freedom as
           vibrations may cause significant error
 Vibrational temperatures:    197.32   451.00   481.50   486.03   811.51
          (Kelvin)            972.16   975.17   993.52   997.06  1295.40
                             1343.68  1432.73  1784.59  1925.04  2094.39
                             3201.32  3210.38  4330.01  4362.80  4982.29
                             4983.88

 Zero-point correction=                           0.065413 (Hartree/Particle)
 Thermal correction to Energy=                    0.070896
 Thermal correction to Enthalpy=                  0.071840
 Thermal correction to Gibbs Free Energy=         0.037381
 Sum of electronic and zero-point Energies=           -192.793798
 Sum of electronic and thermal Energies=              -192.788315
 Sum of electronic and thermal Enthalpies=            -192.787371
 Sum of electronic and thermal Free Energies=         -192.821831

                     E (Thermal)             CV                S
                      KCal/Mol        Cal/Mol-Kelvin    Cal/Mol-Kelvin
 Total                   44.488             19.025             72.526
 Electronic               0.000              0.000              0.000
 Translational            0.889              2.981             38.389
 Rotational               0.889              2.981             25.242
 Vibrational             42.710             13.064              8.895
 Vibration     1          0.614              1.916              2.843
 Vibration     2          0.701              1.648              1.344
 Vibration     3          0.716              1.606              1.238
 Vibration     4          0.718              1.600              1.222
 Vibration     5          0.920              1.109              0.516

 Optimization completed.
    -- Stationary point found.
 Normal termination of Gaussian 09 at Tue Jul 19 21:57:29 2016.
