 Gaussian 09, Revision E.01,
 Gaussian 09:  EM64L-G09RevE.01 30-Nov-2015

 ---------------------------------------------
 #p b3lyp/6-311++G(3df,2p) freq symmetry=Loose
 ---------------------------------------------

 ---------
 b3lyp opt
 ---------
 Symbolic Z-matrix:
 Charge =  3 Multiplicity = 2

                         Standard orientation:
 ---------------------------------------------------------------------
 Center     Atomic      Atomic             Coordinates (Angstroms)
 Number     Number       Type             X           Y           Z
 ---------------------------------------------------------------------
      1          6           0        2.762403   -0.000556    0.000131
      2          6           0        0.193729   -0.003604   -0.000170
      3          1           0        3.879383    0.003676    0.000001
      4          6           0       -1.132561    0.001992   -0.000008
      5          6           0        1.466867   -0.005773    0.000025
      6          6           0       -2.460594    0.059850   -0.000078
      7          1           0       -2.943443    1.075241   -0.001143
      8          1           0       -2.956451   -0.696789   -0.767002
      9          1           0       -2.958550   -0.693580    0.768742
 ---------------------------------------------------------------------

 SCF Done:  E(UB3LYP) =  -191.168488849     A.U. after   20 cycles

 The electronic state is 2-A.
 Alpha  occ. eigenvalues --  -11.00963 -11.00380 -10.97293 -10.94081 -10.87198
 Alpha  occ. eigenvalues --   -1.54401  -1.49898  -1.42964  -1.34927  -1.19653
 Alpha  occ. eigenvalues --   -1.17474  -1.11837  -1.07874  -1.05710  -1.01901
 Alpha  occ. eigenvalues --   -0.96299
 Alpha virt. eigenvalues --   -0.88051  -0.76508  -0.73888  -0.56599  -0.55784
 Alpha virt. eigenvalues --   -0.52099  -0.50009  -0.46839  -0.45062  -0.44767
 Alpha virt. eigenvalues --   -0.41004  -0.39924  -0.39270  -0.38415  -0.36609

  Beta  occ. eigenvalues --  -10.99959 -10.99778 -10.97224 -10.94021 -10.87269
  Beta  occ. eigenvalues --   -1.53232  -1.48246  -1.41837  -1.34147  -1.18702
  Beta  occ. eigenvalues --   -1.17176  -1.09908  -1.07747  -1.02854  -1.01710
  Beta virt. eigenvalues --   -0.87149  -0.86376  -0.72909  -0.71829  -0.55398
  Beta virt. eigenvalues --   -0.53845  -0.51109  -0.49484  -0.46351  -0.45137
  Beta virt. eigenvalues --   -0.44220  -0.40713  -0.39632  -0.39234  -0.38026

 Mulliken charges and spin densities:
               1          2
     1  C    0.575371   0.403976
     2  C   -0.373765   0.264754
     3  H    0.495595  -0.016522
     4  C    0.681080   0.101799
     5  C    0.666745   0.246470
     6  C   -0.130562  -0.033366
     7  H    0.347117   0.044341
     8  H    0.369118  -0.005676
     9  H    0.369299  -0.005775
 Sum of Mulliken charges =   3.00000   1.00000

 Dipole moment (field-independent basis, Debye):
    X=             -0.0854    Y=             -0.8030    Z=              0.0017  Tot=              0.8075
 Quadrupole moment (field-independent basis, Debye-Ang):
   XX=             74.1425   YY=            -19.7922   ZZ=            -20.5926
   XY=              2.6236   XZ=             -0.0076   YZ=              0.0007

  Exact polarizability: 139.994   2.036  26.261  -0.003   0.002  25.098
 Approx polarizability: 371.507   7.910  37.655   0.001   0.005  36.836

                      1                      2                      3
                      A                      A                      A
 Frequencies --    146.0608               150.2554               302.2533
 Red. masses --      3.2624                 3.4071                 2.2378
 Frc consts  --      0.0410                 0.0453                 0.1205
 IR Inten    --     40.5797                37.9965                 1.0821

                      4                      5                      6
                      A                      A                      A
 Frequencies --    336.9140               406.6681               468.0231
 Red. masses --      2.8574                 1.1091                 2.0820
 Frc consts  --      0.1911                 0.1081                 0.2687
 IR Inten    --     37.4870               716.6335                40.0106

                      7                      8                      9
                      A                      A                      A
 Frequencies --    520.5750               673.5575               702.6527
 Red. masses --      4.3600                 1.4003                 4.0149
 Frc consts  --      0.6962                 0.3743                 1.1679
 IR Inten    --     13.1104                24.4255                 3.2893

                     10                     11                     12
                      A                      A                      A
 Frequencies --    703.0537               772.3762               820.3079
 Red. masses --      3.4845                 1.2062                 1.7990
 Frc consts  --      1.0148                 0.4240                 0.7132
 IR Inten    --     50.4593                94.7382               138.0921

                     13                     14                     15
                      A                      A                      A
 Frequencies --    874.1054              1211.0382              1345.7097
 Red. masses --      1.4267                 1.2230                 4.8294
 Frc consts  --      0.6423                 1.0568                 5.1528
 IR Inten    --      7.8406               198.5629                68.1534

                     16                     17                     18
                      A                      A                      A
 Frequencies --   1734.2067              2068.1718              2143.5785
 Red. masses --      8.9842                 7.1910                 1.0457
 Frc consts  --     15.9195                18.1223                 2.8310
 IR Inten    --    839.5337               377.3017               422.7406

                     19                     20                     21
                      A                      A                      A
 Frequencies --   2371.2094              2742.9254              2933.3791
 Red. masses --      1.1179                 1.0786                 1.1565
 Frc consts  --      3.7034                 4.7811                 5.8631
 IR Inten    --   2102.2432               737.8366               618.0342

 - Thermochemistry -
 -------------------
 Temperature   298.150 Kelvin.  Pressure   1.00000 Atm.
 Atom     1 has atomic number  6 and mass  12.00000

 Molecular mass:    64.03130 amu.
 Principal axes and moments of inertia in atomic units:
                           1         2         3
     Eigenvalues --    12.02027 886.44062 889.97256
           X            0.99999   0.00399  -0.00001
           Y           -0.00399   0.99999   0.00001
           Z            0.00001  -0.00001   1.00000
 This molecule is an asymmetric top.
 Rotational symmetry number  1.
 Rotational temperatures (Kelvin)      7.20565     0.09771     0.09732
 Rotational constants (GHZ):         150.14151     2.03594     2.02786
 Zero-point vibrational energy     140124.7 (Joules/Mol)
                                   33.49061 (Kcal/Mol)
 Warning -- explicit consideration of   7 degrees of freedom as
           vibrations may cause significant error
 Vibrational temperatures:    210.15   216.18   434.87   484.74   585.10
          (Kelvin)            673.38   748.99   969.10  1010.96  1011.54
                             1111.28  1180.24  1257.64  1742.41  1936.17
                             2495.13  2975.63  3084.13  3411.64  3946.45
                             4220.47

 Zero-point correction=                           0.053371 (Hartree/Particle)
 Thermal correction to Energy=                    0.059645
 Thermal correction to Enthalpy=                  0.060589
 Thermal correction to Gibbs Free Energy=         0.024747
 Sum of electronic and zero-point Energies=           -191.115118
 Sum of electronic and thermal Energies=              -191.108844
 Sum of electronic and thermal Enthalpies=            -191.107900
 Sum of electronic and thermal Free Energies=         -191.143742

                     E (Thermal)             CV                S
                      KCal/Mol        Cal/Mol-Kelvin    Cal/Mol-Kelvin
 Total                   37.428             21.780             75.435
 Electronic               0.000              0.000              1.377
 Translational            0.889              2.981             38.389
 Rotational               0.889              2.981             23.765
 Vibrational             35.650             15.818             11.903
 Vibration     1          0.617              1.907              2.723
 Vibration     2          0.618              1.902              2.669
 Vibration     3          0.694              1.669              1.404
 Vibration     4          0.718              1.602              1.227
 Vibration     5          0.771              1.456              0.938
 Vibration     6          0.825              1.321              0.743
 Vibration     7          0.876              1.204              0.609

 Normal termination of Gaussian 09 at Mon Jun 20 10:28:55 2016.
