 Gaussian 09, Revision E.01,
 Gaussian 09:  EM64L-G09RevE.01 30-Nov-2015

 ---------------------------------------------
 #p b3lyp/6-311++G(3df,2p) freq symmetry=Loose
 ---------------------------------------------

 ---------
 b3lyp opt
 ---------
 Symbolic Z-matrix:
 Charge =  1 Multiplicity = 2

                         Standard orientation:
 ---------------------------------------------------------------------
 Center     Atomic      Atomic             Coordinates (Angstroms)
 Number     Number       Type             X           Y           Z
 ---------------------------------------------------------------------
      1          6           0       -1.069940   -0.101731    0.431687
      2          1           0       -1.186913   -0.213721    1.511021
      3          1           0       -0.518643    1.336017   -1.152867
      4          6           0       -0.239656    1.051933   -0.140052
      5          6           0       -1.664963   -0.969439   -0.392260
      6          1           0       -0.246818    1.914447    0.522949
      7          6           0        0.960092    0.251544   -0.077116
      8          6           0        1.886132   -0.538024    0.016829
      9          1           0        2.722395   -1.202437    0.084365
 ---------------------------------------------------------------------

 SCF Done:  E(UB3LYP) =  -192.423161945     A.U. after   23 cycles

 The electronic state is 2-A.
 Alpha  occ. eigenvalues --  -10.50611 -10.46102 -10.45973 -10.45631 -10.45039
 Alpha  occ. eigenvalues --   -1.10417  -1.01864  -0.95610  -0.78632  -0.77910
 Alpha  occ. eigenvalues --   -0.72939  -0.69563  -0.66281  -0.57666  -0.53791
 Alpha  occ. eigenvalues --   -0.53166  -0.52008
 Alpha virt. eigenvalues --   -0.34703  -0.26138  -0.21085  -0.18263  -0.15425
 Alpha virt. eigenvalues --   -0.13539  -0.12078  -0.10601  -0.10366  -0.08549
 Alpha virt. eigenvalues --   -0.07711  -0.07229  -0.06231  -0.05516  -0.04917

  Beta  occ. eigenvalues --  -10.50062 -10.45957 -10.45786 -10.45419 -10.44418
  Beta  occ. eigenvalues --   -1.09448  -0.99849  -0.94299  -0.77962  -0.77276
  Beta  occ. eigenvalues --   -0.72357  -0.69192  -0.66102  -0.53657  -0.52930
  Beta  occ. eigenvalues --   -0.52597
  Beta virt. eigenvalues --   -0.42205  -0.33964  -0.23314  -0.20382  -0.16094
  Beta virt. eigenvalues --   -0.15251  -0.13412  -0.11862  -0.10494  -0.10056
  Beta virt. eigenvalues --   -0.08371  -0.07526  -0.07014  -0.05844  -0.05346

 Mulliken charges and spin densities:
               1          2
     1  C    0.253734   0.158312
     2  H    0.241178  -0.005175
     3  H    0.248775  -0.002300
     4  C   -0.209128   0.035599
     5  C   -0.392282   0.347966
     6  H    0.218939  -0.003224
     7  C   -0.090997   0.064745
     8  C    0.355439   0.412878
     9  H    0.374342  -0.008800
 Sum of Mulliken charges =   1.00000   1.00000

 Dipole moment (field-independent basis, Debye):
    X=              1.1672    Y=              0.6753    Z=              1.3700  Tot=              1.9223
 Quadrupole moment (field-independent basis, Debye-Ang):
   XX=            -15.6227   YY=            -22.1934   ZZ=            -24.8898
   XY=             -4.7401   XZ=             -2.3749   YZ=             -1.8751

  Exact polarizability:  94.154   2.898  48.645   0.296   1.446  38.767
 Approx polarizability: 173.232   6.170  79.066   2.891   2.666  59.376

                      1                      2                      3
                      A                      A                      A
 Frequencies --    111.6381               185.4268               215.0148
 Red. masses --      5.8477                 3.9697                 3.7072
 Frc consts  --      0.0429                 0.0804                 0.1010
 IR Inten    --      5.1262                 8.6105                 3.9225

                      4                      5                      6
                      A                      A                      A
 Frequencies --    323.4394               428.1405               696.0494
 Red. masses --      3.0760                 4.5546                 1.2426
 Frc consts  --      0.1896                 0.4919                 0.3547
 IR Inten    --     12.7530                12.9236                43.5995

                      7                      8                      9
                      A                      A                      A
 Frequencies --    724.1082               736.5153               865.1439
 Red. masses --      1.4134                 1.3115                 3.7506
 Frc consts  --      0.4367                 0.4192                 1.6539
 IR Inten    --     14.0507                18.4643                 9.7627

                     10                     11                     12
                      A                      A                      A
 Frequencies --    899.9028               983.4925              1050.2813
 Red. masses --      1.3019                 4.4038                 1.3726
 Frc consts  --      0.6212                 2.5097                 0.8921
 IR Inten    --      3.6425                 2.8715                12.5381

                     13                     14                     15
                      A                      A                      A
 Frequencies --   1153.8178              1254.5283              1465.0091
 Red. masses --      1.1542                 1.2668                 1.1208
 Frc consts  --      0.9053                 1.1747                 1.4173
 IR Inten    --     18.5250                 1.0587                26.9467

                     16                     17                     18
                      A                      A                      A
 Frequencies --   1513.7732              2081.4721              3079.8917
 Red. masses --      4.9282                 6.1855                 1.0563
 Frc consts  --      6.6537                15.7894                 5.9036
 IR Inten    --    389.4417               301.5669                13.4549

                     19                     20                     21
                      A                      A                      A
 Frequencies --   3103.9387              3141.5934              3384.5124
 Red. masses --      1.0873                 1.1111                 1.1543
 Frc consts  --      6.1718                 6.4610                 7.7901
 IR Inten    --     70.8913                25.1755               123.2268

 - Thermochemistry -
 -------------------
 Temperature   298.150 Kelvin.  Pressure   1.00000 Atm.
 Atom     1 has atomic number  6 and mass  12.00000

 Molecular mass:    64.03130 amu.
 Principal axes and moments of inertia in atomic units:
                           1         2         3
     Eigenvalues --   156.84059 425.51827 523.35099
           X            0.99842  -0.05542  -0.00919
           Y            0.05510   0.99796  -0.03226
           Z            0.01096   0.03170   0.99944
 This molecule is an asymmetric top.
 Rotational symmetry number  1.
 Rotational temperatures (Kelvin)      0.55224     0.20355     0.16550
 Rotational constants (GHZ):          11.50685     4.24128     3.44843
 Zero-point vibrational energy     163874.6 (Joules/Mol)
                                   39.16696 (Kcal/Mol)
 Warning -- explicit consideration of   5 degrees of freedom as
           vibrations may cause significant error
 Vibrational temperatures:    160.62   266.79   309.36   465.36   616.00
          (Kelvin)           1001.46  1041.83  1059.68  1244.75  1294.76
                             1415.02  1511.12  1660.08  1804.98  2107.82
                             2177.98  2994.77  4431.27  4465.87  4520.05
                             4869.55

 Zero-point correction=                           0.062417 (Hartree/Particle)
 Thermal correction to Energy=                    0.068304
 Thermal correction to Enthalpy=                  0.069248
 Thermal correction to Gibbs Free Energy=         0.033167
 Sum of electronic and zero-point Energies=           -192.360745
 Sum of electronic and thermal Energies=              -192.354858
 Sum of electronic and thermal Enthalpies=            -192.353914
 Sum of electronic and thermal Free Energies=         -192.389995

                     E (Thermal)             CV                S
                      KCal/Mol        Cal/Mol-Kelvin    Cal/Mol-Kelvin
 Total                   42.861             19.343             75.939
 Electronic               0.000              0.000              1.377
 Translational            0.889              2.981             38.389
 Rotational               0.889              2.981             25.061
 Vibrational             41.084             13.381             11.112
 Vibration     1          0.607              1.940              3.240
 Vibration     2          0.632              1.860              2.273
 Vibration     3          0.645              1.818              2.001
 Vibration     4          0.708              1.629              1.293
 Vibration     5          0.790              1.409              0.865

 Optimization completed.
    -- Stationary point found.
 Normal termination of Gaussian 09 at Mon Jun 20 04:20:55 2016.
