 Gaussian 09, Revision E.01,
 Gaussian 09:  EM64L-G09RevE.01 30-Nov-2015

 ---------------------------------------------
 #p b3lyp/6-311++G(3df,2p) freq symmetry=Loose
 ---------------------------------------------

 ---------
 b3lyp opt
 ---------
 Symbolic Z-matrix:
 Charge =  1 Multiplicity = 2

                         Standard orientation:
 ---------------------------------------------------------------------
 Center     Atomic      Atomic             Coordinates (Angstroms)
 Number     Number       Type             X           Y           Z
 ---------------------------------------------------------------------
      1          6           0        1.442118   -0.065234    0.008618
      2          1           0        2.509411   -0.090713    0.159200
      3          6           0        0.444814    0.927888    0.042568
      4          6           0        0.428999   -0.887554   -0.161712
      5          1           0       -1.320079   -1.092616    1.041231
      6          6           0       -0.904752    0.815001    0.009709
      7          1           0       -1.619882    1.560678   -0.307263
      8          6           0       -1.055574   -0.670793    0.068753
      9          1           0       -1.703076   -1.093199   -0.700784
 ---------------------------------------------------------------------

 SCF Done:  E(UB3LYP) =  -192.481166491     A.U. after   19 cycles

 The electronic state is 2-A.
 Alpha  occ. eigenvalues --  -10.50329 -10.49364 -10.47601 -10.45477 -10.45088
 Alpha  occ. eigenvalues --   -1.18823  -1.01885  -0.93692  -0.80474  -0.78202
 Alpha  occ. eigenvalues --   -0.72168  -0.70128  -0.69378  -0.65376  -0.59516
 Alpha  occ. eigenvalues --   -0.50528  -0.48171
 Alpha virt. eigenvalues --   -0.31736  -0.28701  -0.20662  -0.15741  -0.12706
 Alpha virt. eigenvalues --   -0.12411  -0.11316  -0.10699  -0.09770  -0.08468
 Alpha virt. eigenvalues --   -0.07200  -0.05673  -0.04978  -0.03854  -0.03336

  Beta  occ. eigenvalues --  -10.49846 -10.48685 -10.47603 -10.45019 -10.44992
  Beta  occ. eigenvalues --   -1.17780  -1.01068  -0.92342  -0.79890  -0.76962
  Beta  occ. eigenvalues --   -0.71459  -0.69351  -0.67720  -0.64886  -0.58430
  Beta  occ. eigenvalues --   -0.49325
  Beta virt. eigenvalues --   -0.37729  -0.29600  -0.26534  -0.18873  -0.15613
  Beta virt. eigenvalues --   -0.12492  -0.12320  -0.11096  -0.10408  -0.09367
  Beta virt. eigenvalues --   -0.08344  -0.07153  -0.05455  -0.04559  -0.03634

 Mulliken charges and spin densities:
               1          2
     1  C    0.170606   0.002497
     2  H    0.298169   0.011061
     3  C    0.185366   0.375512
     4  C    0.051922   0.300828
     5  H    0.235222   0.002482
     6  C   -0.023295   0.286933
     7  H    0.241732   0.007033
     8  C   -0.372016   0.005701
     9  H    0.212293   0.007954
 Sum of Mulliken charges =   1.00000   1.00000

 Dipole moment (field-independent basis, Debye):
    X=             -0.2483    Y=             -0.3173    Z=              0.0741  Tot=              0.4097
 Quadrupole moment (field-independent basis, Debye-Ang):
   XX=            -13.9376   YY=            -22.2674   ZZ=            -26.8425
   XY=              0.0400   XZ=              0.9476   YZ=             -1.1323

  Exact polarizability:  58.107  -1.886  52.391   0.179   1.385  31.305
 Approx polarizability:  97.516  -1.988 121.494   0.106   7.742  47.642

                      1                      2                      3
                      A                      A                      A
 Frequencies --    256.2586               410.4972               425.4773
 Red. masses --      4.4331                 2.5848                 3.0809
 Frc consts  --      0.1715                 0.2566                 0.3286
 IR Inten    --     33.0563                58.8049                 3.2194

                      4                      5                      6
                      A                      A                      A
 Frequencies --    547.5272               719.6025               770.7377
 Red. masses --      7.0041                 1.6278                 1.6109
 Frc consts  --      1.2371                 0.4966                 0.5638
 IR Inten    --      5.4692                29.3738                22.2621

                      7                      8                      9
                      A                      A                      A
 Frequencies --    821.6237               885.4876               984.2952
 Red. masses --      1.7859                 2.1358                 2.5330
 Frc consts  --      0.7103                 0.9867                 1.4459
 IR Inten    --     18.3623                 3.4093                 9.3363

                     10                     11                     12
                      A                      A                      A
 Frequencies --    997.0560              1076.5690              1119.3162
 Red. masses --      4.2974                 1.3543                 1.1193
 Frc consts  --      2.5171                 0.9248                 0.8263
 IR Inten    --      3.9233                 4.5180                 2.9384

                     13                     14                     15
                      A                      A                      A
 Frequencies --   1164.4333              1232.7794              1316.5591
 Red. masses --      1.4802                 1.4478                 2.1273
 Frc consts  --      1.1825                 1.2964                 2.1725
 IR Inten    --      0.2279                 6.0184                44.1878

                     16                     17                     18
                      A                      A                      A
 Frequencies --   1419.1763              1651.8554              3052.5628
 Red. masses --      1.3743                 7.2539                 1.0583
 Frc consts  --      1.6308                11.6618                 5.8102
 IR Inten    --     26.9057                27.7791                37.8906

                     19                     20                     21
                      A                      A                      A
 Frequencies --   3106.8730              3209.7912              3256.0188
 Red. masses --      1.1052                 1.0947                 1.1127
 Frc consts  --      6.2853                 6.6450                 6.9504
 IR Inten    --     23.5311                38.6426                74.8974

 - Thermochemistry -
 -------------------
 Temperature   298.150 Kelvin.  Pressure   1.00000 Atm.
 Atom     1 has atomic number  6 and mass  12.00000

 Molecular mass:    64.03130 amu.
 Principal axes and moments of inertia in atomic units:
                           1         2         3
     Eigenvalues --   143.38322 244.35683 372.92732
           X            0.99973   0.02066   0.01075
           Y           -0.02040   0.99951  -0.02374
           Z           -0.01123   0.02351   0.99966
 This molecule is an asymmetric top.
 Rotational symmetry number  1.
 Rotational temperatures (Kelvin)      0.60407     0.35446     0.23225
 Rotational constants (GHZ):          12.58684     7.38568     4.83939
 Zero-point vibrational energy     170016.2 (Joules/Mol)
                                   40.63486 (Kcal/Mol)
 Warning -- explicit consideration of   4 degrees of freedom as
           vibrations may cause significant error
 Vibrational temperatures:    368.70   590.61   612.17   787.77  1035.35
          (Kelvin)           1108.92  1182.13  1274.02  1416.18  1434.54
                             1548.94  1610.44  1675.36  1773.69  1894.23
                             2041.88  2376.65  4391.95  4470.09  4618.17
                             4684.68

 Zero-point correction=                           0.064756 (Hartree/Particle)
 Thermal correction to Energy=                    0.069345
 Thermal correction to Enthalpy=                  0.070289
 Thermal correction to Gibbs Free Energy=         0.037413
 Sum of electronic and zero-point Energies=           -192.416411
 Sum of electronic and thermal Energies=              -192.411822
 Sum of electronic and thermal Enthalpies=            -192.410878
 Sum of electronic and thermal Free Energies=         -192.443753

                     E (Thermal)             CV                S
                      KCal/Mol        Cal/Mol-Kelvin    Cal/Mol-Kelvin
 Total                   43.514             16.386             69.192
 Electronic               0.000              0.000              1.377
 Translational            0.889              2.981             38.389
 Rotational               0.889              2.981             24.084
 Vibrational             41.737             10.425              5.342
 Vibration     1          0.666              1.752              1.687
 Vibration     2          0.775              1.447              0.925
 Vibration     3          0.787              1.415              0.874
 Vibration     4          0.903              1.145              0.549

 Normal termination of Gaussian 09 at Mon Jun 20 04:57:47 2016.
