 Gaussian 09, Revision E.01,
 Gaussian 09:  EM64L-G09RevE.01 30-Nov-2015

 ---------------------------------------------
 #p b3lyp/6-311++G(3df,2p) freq symmetry=Loose
 ---------------------------------------------

 ---------
 b3lyp opt
 ---------
 Symbolic Z-matrix:
 Charge =  3 Multiplicity = 2

                         Standard orientation:
 ---------------------------------------------------------------------
 Center     Atomic      Atomic             Coordinates (Angstroms)
 Number     Number       Type             X           Y           Z
 ---------------------------------------------------------------------
      1          6           0        0.707678   -0.039533    0.306277
      2          6           0       -0.477331    0.891217    0.083775
      3          6           0       -1.590400    0.027117   -0.149244
      4          6           0       -0.508814   -0.889524    0.001136
      5          1           0        0.974336   -0.099097    1.440451
      6          1           0       -2.244324    0.062376   -1.120155
      7          1           0       -2.561938    0.032049    0.501914
      8          6           0        2.013343   -0.066103   -0.285335
      9          1           0        2.965063    0.465629   -0.561862
 ---------------------------------------------------------------------

 SCF Done:  E(UB3LYP) =  -190.990473713     A.U. after   21 cycles

 The electronic state is 2-A.
 Alpha  occ. eigenvalues --  -11.05378 -11.04445 -11.04394 -10.99949 -10.94773
 Alpha  occ. eigenvalues --   -1.68990  -1.52024  -1.38105  -1.30146  -1.25635
 Alpha  occ. eigenvalues --   -1.20257  -1.17750  -1.15901  -1.11162  -1.01171
 Alpha  occ. eigenvalues --   -0.99589
 Alpha virt. eigenvalues --   -0.86080  -0.83543  -0.81339  -0.77547  -0.57409
 Alpha virt. eigenvalues --   -0.54784  -0.53406  -0.49712  -0.48359  -0.47746
 Alpha virt. eigenvalues --   -0.45237  -0.45116  -0.42135  -0.40441  -0.39119

  Beta  occ. eigenvalues --  -11.04285 -11.04253 -11.03676 -11.00021 -10.94718
  Beta  occ. eigenvalues --   -1.68801  -1.50311  -1.36413  -1.29631  -1.24696
  Beta  occ. eigenvalues --   -1.19741  -1.17349  -1.14780  -1.11014  -1.00648
  Beta virt. eigenvalues --   -0.85403  -0.83175  -0.81787  -0.81065  -0.75215
  Beta virt. eigenvalues --   -0.56449  -0.54470  -0.52618  -0.49430  -0.48305
  Beta virt. eigenvalues --   -0.47397  -0.45151  -0.44551  -0.41826  -0.39867

 Mulliken charges and spin densities:
               1          2
     1  C    0.247627  -0.001899
     2  C    0.710624   0.073645
     3  C   -0.398089   0.025348
     4  C    0.726699   0.045539
     5  H    0.373641  -0.003993
     6  H    0.383216  -0.001498
     7  H    0.368038  -0.001278
     8  C    0.160200   0.867682
     9  H    0.428043  -0.003546
 Sum of Mulliken charges =   3.00000   1.00000

 Dipole moment (field-independent basis, Debye):
    X=              1.0622    Y=              0.4949    Z=             -0.2593  Tot=              1.2002
 Quadrupole moment (field-independent basis, Debye-Ang):
   XX=             28.5570   YY=            -20.6552   ZZ=            -14.5989
   XY=              1.3988   XZ=              0.3370   YZ=             -0.7909

  Exact polarizability:  63.863  -0.176  37.382   0.854   0.191  30.518
 Approx polarizability: 104.511  -1.291 101.352   2.495   2.480  52.249

                      1                      2                      3
                      A                      A                      A
 Frequencies --    242.7922               311.6010               418.1871
 Red. masses --      2.2667                 2.3914                 1.5423
 Frc consts  --      0.0787                 0.1368                 0.1589
 IR Inten    --     44.6835                37.9375                61.0279

                      4                      5                      6
                      A                      A                      A
 Frequencies --    444.9297               546.3184               629.3475
 Red. masses --      1.9205                 2.3133                 1.5977
 Frc consts  --      0.2240                 0.4068                 0.3729
 IR Inten    --      1.8915                44.1224                38.6533

                      7                      8                      9
                      A                      A                      A
 Frequencies --    679.8548               697.2736               733.9116
 Red. masses --      2.4135                 1.8203                 1.8018
 Frc consts  --      0.6573                 0.5214                 0.5718
 IR Inten    --     18.3399                74.6156               447.5509

                     10                     11                     12
                      A                      A                      A
 Frequencies --    777.6453               847.0174               875.4814
 Red. masses --      1.8559                 5.0957                 3.1904
 Frc consts  --      0.6612                 2.1540                 1.4407
 IR Inten    --    148.5197                20.4126                18.5062

                     13                     14                     15
                      A                      A                      A
 Frequencies --    937.9392               956.2381               968.5252
 Red. masses --      1.2517                 1.4725                 1.4968
 Frc consts  --      0.6488                 0.7933                 0.8272
 IR Inten    --     19.4645                68.2878                 5.3166

                     16                     17                     18
                      A                      A                      A
 Frequencies --   1272.0339              1289.9136              2281.5268
 Red. masses --      3.4722                 4.5886                 1.0740
 Frc consts  --      3.3102                 4.4984                 3.2939
 IR Inten    --    119.0527                 3.4288               539.1287

                     19                     20                     21
                      A                      A                      A
 Frequencies --   2392.1843              2469.7431              2831.0332
 Red. masses --      1.0707                 1.0928                 1.1048
 Frc consts  --      3.6099                 3.9272                 5.2173
 IR Inten    --   1056.3191              1020.4398               509.1258

 - Thermochemistry -
 -------------------
 Temperature   298.150 Kelvin.  Pressure   1.00000 Atm.
 Atom     1 has atomic number  6 and mass  12.00000

 Molecular mass:    64.03130 amu.
 Principal axes and moments of inertia in atomic units:
                           1         2         3
     Eigenvalues --    91.76478 423.95724 470.31852
           X            0.99990   0.01161   0.00866
           Y           -0.01130   0.99935  -0.03416
           Z           -0.00905   0.03406   0.99938
 This molecule is an asymmetric top.
 Rotational symmetry number  1.
 Rotational temperatures (Kelvin)      0.94387     0.20430     0.18416
 Rotational constants (GHZ):          19.66704     4.25689     3.83727
 Zero-point vibrational energy     135198.9 (Joules/Mol)
                                   32.31332 (Kcal/Mol)
 Warning -- explicit consideration of   5 degrees of freedom as
           vibrations may cause significant error
 Vibrational temperatures:    349.32   448.32   601.68   640.15   786.03
          (Kelvin)            905.49   978.16  1003.22  1055.93  1118.86
                             1218.67  1259.62  1349.48  1375.81  1393.49
                             1830.17  1855.90  3282.60  3441.82  3553.41
                             4073.22

 Zero-point correction=                           0.051495 (Hartree/Particle)
 Thermal correction to Energy=                    0.056828
 Thermal correction to Enthalpy=                  0.057772
 Thermal correction to Gibbs Free Energy=         0.023637
 Sum of electronic and zero-point Energies=           -190.938979
 Sum of electronic and thermal Energies=              -190.933646
 Sum of electronic and thermal Enthalpies=            -190.932702
 Sum of electronic and thermal Free Energies=         -190.966837

                     E (Thermal)             CV                S
                      KCal/Mol        Cal/Mol-Kelvin    Cal/Mol-Kelvin
 Total                   35.660             20.191             71.843
 Electronic               0.000              0.000              1.377
 Translational            0.889              2.981             38.389
 Rotational               0.889              2.981             24.418
 Vibrational             33.882             14.230              7.658
 Vibration     1          0.659              1.775              1.782
 Vibration     2          0.700              1.652              1.354
 Vibration     3          0.781              1.431              0.898
 Vibration     4          0.804              1.372              0.811
 Vibration     5          0.902              1.148              0.552

 Normal termination of Gaussian 09 at Mon Jun 20 11:08:22 2016.
