 Gaussian 09, Revision E.01,
 Gaussian 09:  EM64L-G09RevE.01 30-Nov-2015

 ---------------------------------------------
 #p b3lyp/6-311++G(3df,2p) freq symmetry=Loose
 ---------------------------------------------

 ---------
 b3lyp opt
 ---------
 Symbolic Z-matrix:
 Charge =  1 Multiplicity = 4

                         Standard orientation:
 ---------------------------------------------------------------------
 Center     Atomic      Atomic             Coordinates (Angstroms)
 Number     Number       Type             X           Y           Z
 ---------------------------------------------------------------------
      1          6           0        2.410644    0.215852    0.000062
      2          1           0        2.351545    1.311335   -0.004106
      3          1           0        2.984645   -0.127375   -0.872510
      4          1           0        2.980049   -0.120431    0.878457
      5          6           0        1.129171   -0.409333   -0.000107
      6          6           0       -0.183823   -0.182879    0.000044
      7          6           0       -1.416326    0.010017   -0.000027
      8          6           0       -2.715470    0.236803   -0.000230
      9          1           0       -3.661413   -0.286280   -0.000284
 ---------------------------------------------------------------------

 SCF Done:  E(UB3LYP) =  -192.445444452     A.U. after   15 cycles

 The electronic state is 4-A.
 Alpha  occ. eigenvalues --  -10.49322 -10.48076 -10.45619 -10.45091 -10.39484
 Alpha  occ. eigenvalues --   -1.07440  -1.02604  -0.95448  -0.87792  -0.74413
 Alpha  occ. eigenvalues --   -0.69700  -0.66290  -0.65501  -0.60584  -0.59781
 Alpha  occ. eigenvalues --   -0.52988  -0.50117  -0.41674
 Alpha virt. eigenvalues --   -0.31298  -0.17502  -0.14643  -0.12054  -0.11097
 Alpha virt. eigenvalues --   -0.10261  -0.09996  -0.09311  -0.07557  -0.07047
 Alpha virt. eigenvalues --   -0.06722  -0.05790  -0.05770  -0.03499  -0.02362

  Beta  occ. eigenvalues --  -10.47418 -10.45920 -10.45123 -10.44906 -10.39456
  Beta  occ. eigenvalues --   -1.04447  -0.99330  -0.92517  -0.85157  -0.72348
  Beta  occ. eigenvalues --   -0.67851  -0.63481  -0.63402  -0.56950  -0.55537
  Beta virt. eigenvalues --   -0.39318  -0.38338  -0.27073  -0.25410  -0.15435
  Beta virt. eigenvalues --   -0.12927  -0.11088  -0.10044  -0.09650  -0.09314
  Beta virt. eigenvalues --   -0.07750  -0.07047  -0.06648  -0.05931  -0.05362

 Mulliken charges and spin densities:
               1          2
     1  C   -0.375633  -0.025431
     2  H    0.201441   0.075009
     3  H    0.219542   0.036265
     4  H    0.219719   0.036212
     5  C    0.094987   1.051944
     6  C   -0.011727   0.394885
     7  C    0.574272   0.227555
     8  C   -0.204864   1.195598
     9  H    0.282263   0.007963
 Sum of Mulliken charges =   1.00000   3.00000

 Dipole moment (field-independent basis, Debye):
    X=             -0.3304    Y=             -0.0124    Z=              0.0014  Tot=              0.3306
 Quadrupole moment (field-independent basis, Debye-Ang):
   XX=              6.1895   YY=            -27.2498   ZZ=            -26.3568
   XY=              1.7820   XZ=              0.0062   YZ=              0.0007

  Exact polarizability: 130.209  -4.265  36.349   0.015  -0.001  33.048
 Approx polarizability: 240.001 -22.438  53.754   0.033  -0.001  47.033

                      1                      2                      3
                      A                      A                      A
 Frequencies --     86.6221               108.7499               195.7739
 Red. masses --      1.3566                 3.3026                 2.8503
 Frc consts  --      0.0060                 0.0230                 0.0644
 IR Inten    --      3.8160                 8.6654                 4.0067

                      4                      5                      6
                      A                      A                      A
 Frequencies --    298.1467               399.3464               510.2350
 Red. masses --      3.8466                 5.7898                10.3960
 Frc consts  --      0.2015                 0.5440                 1.5946
 IR Inten    --      3.5436                 3.3069                 0.3528

                      7                      8                      9
                      A                      A                      A
 Frequencies --    600.1531               664.5538               739.6758
 Red. masses --      1.3610                 1.8006                 2.7070
 Frc consts  --      0.2888                 0.4685                 0.8726
 IR Inten    --     12.9864                29.3682                 0.8872

                     10                     11                     12
                      A                      A                      A
 Frequencies --    932.9636               988.2751              1166.4128
 Red. masses --      1.5011                 1.5275                 5.7137
 Frc consts  --      0.7698                 0.8790                 4.5801
 IR Inten    --      8.1646                18.7951                 0.1393

                     13                     14                     15
                      A                      A                      A
 Frequencies --   1339.7314              1371.3083              1388.2347
 Red. masses --      1.1286                 1.0411                 1.1355
 Frc consts  --      1.1936                 1.1535                 1.2893
 IR Inten    --     62.1171                18.3885                54.9339

                     16                     17                     18
                      A                      A                      A
 Frequencies --   1460.2445              2197.1520              2952.2058
 Red. masses --      7.4376                11.2826                 1.0314
 Frc consts  --      9.3441                32.0906                 5.2963
 IR Inten    --    325.2491                 7.5673               149.4029

                     19                     20                     21
                      A                      A                      A
 Frequencies --   3006.1673              3027.4094              3226.4719
 Red. masses --      1.0927                 1.1013                 1.1020
 Frc consts  --      5.8179                 5.9468                 6.7591
 IR Inten    --     23.5747                34.3289                79.6407

 - Thermochemistry -
 -------------------
 Temperature   298.150 Kelvin.  Pressure   1.00000 Atm.
 Atom     1 has atomic number  6 and mass  12.00000

 Molecular mass:    64.03130 amu.
 Principal axes and moments of inertia in atomic units:
                           1         2         3
     Eigenvalues --    24.91326 843.74319 857.62206
           X            0.99989   0.01493  -0.00006
           Y           -0.01493   0.99989  -0.00004
           Z            0.00006   0.00004   1.00000
 This molecule is an asymmetric top.
 Rotational symmetry number  1.
 Rotational temperatures (Kelvin)      3.47661     0.10265     0.10099
 Rotational constants (GHZ):          72.44099     2.13897     2.10435
 Zero-point vibrational energy     159461.2 (Joules/Mol)
                                   38.11215 (Kcal/Mol)
 Warning -- explicit consideration of   7 degrees of freedom as
           vibrations may cause significant error
 Vibrational temperatures:    124.63   156.47   281.67   428.97   574.57
          (Kelvin)            734.11   863.49   956.14  1064.23  1342.32
                             1421.91  1678.21  1927.57  1973.00  1997.36
                             2100.96  3161.21  4247.56  4325.20  4355.76
                             4642.17

 Zero-point correction=                           0.060736 (Hartree/Particle)
 Thermal correction to Energy=                    0.067086
 Thermal correction to Enthalpy=                  0.068030
 Thermal correction to Gibbs Free Energy=         0.030409
 Sum of electronic and zero-point Energies=           -192.384709
 Sum of electronic and thermal Energies=              -192.378359
 Sum of electronic and thermal Enthalpies=            -192.377415
 Sum of electronic and thermal Free Energies=         -192.415035

                     E (Thermal)             CV                S
                      KCal/Mol        Cal/Mol-Kelvin    Cal/Mol-Kelvin
 Total                   42.097             20.293             79.179
 Electronic               0.000              0.000              2.755
 Translational            0.889              2.981             38.389
 Rotational               0.889              2.981             24.403
 Vibrational             40.319             14.331             13.631
 Vibration     1          0.601              1.959              3.735
 Vibration     2          0.606              1.942              3.291
 Vibration     3          0.636              1.846              2.172
 Vibration     4          0.691              1.677              1.427
 Vibration     5          0.765              1.472              0.965
 Vibration     6          0.865              1.227              0.633
 Vibration     7          0.958              1.031              0.449

 Normal termination of Gaussian 09 at Mon Jun 20 05:49:00 2016.
