 Gaussian 09, Revision E.01,
 Gaussian 09:  EM64L-G09RevE.01 30-Nov-2015

 ---------------------------------------------
 #p b3lyp/6-311++G(3df,2p) freq symmetry=Loose
 ---------------------------------------------

 ---------
 b3lyp opt
 ---------
 Symbolic Z-matrix:
 Charge =  2 Multiplicity = 3

                         Standard orientation:
 ---------------------------------------------------------------------
 Center     Atomic      Atomic             Coordinates (Angstroms)
 Number     Number       Type             X           Y           Z
 ---------------------------------------------------------------------
      1          6           0       -1.347149    0.892341   -0.131624
      2          6           0       -0.260978    0.120964    0.095089
      3          1           0       -2.170413   -0.956765    0.803131
      4          6           0        1.178294   -0.041956    0.360903
      5          1           0        1.466281   -0.955107    0.978333
      6          1           0        1.637166    0.848019    0.925702
      7          6           0        2.237016   -0.106402   -0.539554
      8          6           0       -1.648266   -0.504399   -0.071969
      9          1           0       -1.886529   -1.099431   -0.984237
 ---------------------------------------------------------------------

 SCF Done:  E(UB3LYP) =  -191.762409294     A.U. after   24 cycles

 The electronic state is 3-A.
 Alpha  occ. eigenvalues --  -10.82821 -10.74711 -10.73562 -10.70907 -10.67259
 Alpha  occ. eigenvalues --   -1.39867  -1.32653  -1.12161  -1.05932  -0.97857
 Alpha  occ. eigenvalues --   -0.95529  -0.91786  -0.89805  -0.84708  -0.80395
 Alpha  occ. eigenvalues --   -0.74118  -0.73091
 Alpha virt. eigenvalues --   -0.60296  -0.58086  -0.50862  -0.36761  -0.34733
 Alpha virt. eigenvalues --   -0.32087  -0.29735  -0.28077  -0.27936  -0.25731
 Alpha virt. eigenvalues --   -0.24304  -0.23412  -0.22105  -0.20449  -0.19615

  Beta  occ. eigenvalues --  -10.82698 -10.73664 -10.71615 -10.70956 -10.66992
  Beta  occ. eigenvalues --   -1.37197  -1.32108  -1.10658  -1.03106  -0.96930
  Beta  occ. eigenvalues --   -0.94913  -0.87947  -0.84565  -0.82650  -0.79412
  Beta virt. eigenvalues --   -0.63002  -0.60075  -0.58631  -0.56686  -0.45001
  Beta virt. eigenvalues --   -0.35370  -0.34269  -0.31169  -0.28795  -0.27613
  Beta virt. eigenvalues --   -0.27383  -0.25005  -0.23836  -0.21953  -0.21493

 Mulliken charges and spin densities:
               1          2
     1  C    0.458737   1.019654
     2  C    0.507320   0.584475
     3  H    0.298055   0.118035
     4  C   -0.050293  -0.031342
     5  H    0.318223   0.015288
     6  H    0.326736   0.010292
     7  C    0.168401   0.071426
     8  C   -0.316921   0.094667
     9  H    0.289741   0.117505
 Sum of Mulliken charges =   2.00000   2.00000

 Dipole moment (field-independent basis, Debye):
    X=              1.5499    Y=             -1.2001    Z=              1.1331  Tot=              2.2641
 Quadrupole moment (field-independent basis, Debye-Ang):
   XX=              2.6236   YY=            -19.0828   ZZ=            -19.9430
   XY=              2.6542   XZ=              2.7351   YZ=              0.1336

  Exact polarizability:  70.703   1.014  40.537  -1.152  -0.114  34.422
 Approx polarizability: 110.788  -2.562  70.216  -5.121  -0.703  57.889

                      1                      2                      3
                      A                      A                      A
 Frequencies --     58.1350               172.1703               277.5111
 Red. masses --      2.8378                 6.8239                 1.8677
 Frc consts  --      0.0057                 0.1192                 0.0847
 IR Inten    --      5.4254                 3.1059                11.6382

                      4                      5                      6
                      A                      A                      A
 Frequencies --    345.7897               380.6439               601.6159
 Red. masses --      3.1423                 2.3633                 5.8678
 Frc consts  --      0.2214                 0.2017                 1.2513
 IR Inten    --      1.9422                 0.1438                 6.8132

                      7                      8                      9
                      A                      A                      A
 Frequencies --    656.8841               752.7924               814.0614
 Red. masses --      1.3223                 1.1695                 2.2160
 Frc consts  --      0.3362                 0.3905                 0.8652
 IR Inten    --     17.0352                 0.0487                 6.7308

                     10                     11                     12
                      A                      A                      A
 Frequencies --    927.4407               988.7916              1010.0037
 Red. masses --      1.7979                 1.3043                 1.4594
 Frc consts  --      0.9111                 0.7513                 0.8772
 IR Inten    --      8.8965                55.9086                20.4551

                     13                     14                     15
                      A                      A                      A
 Frequencies --   1168.3578              1211.5169              1221.7247
 Red. masses --      5.8879                 1.1250                 1.0926
 Frc consts  --      4.7355                 0.9729                 0.9609
 IR Inten    --     22.8189               137.3037                98.8109

                     16                     17                     18
                      A                      A                      A
 Frequencies --   1393.0007              1601.4602              2597.5302
 Red. masses --      5.4216                10.1676                 1.0689
 Frc consts  --      6.1984                15.3639                 4.2491
 IR Inten    --    329.2480                28.4105               249.3502

                     19                     20                     21
                      A                      A                      A
 Frequencies --   2670.1143              2807.6054              2811.0407
 Red. masses --      1.0726                 1.0504                 1.0934
 Frc consts  --      4.5054                 4.8782                 5.0907
 IR Inten    --    218.7470               372.0428               151.0858

 - Thermochemistry -
 -------------------
 Temperature   298.150 Kelvin.  Pressure   1.00000 Atm.
 Atom     1 has atomic number  6 and mass  12.00000

 Molecular mass:    64.03130 amu.
 Principal axes and moments of inertia in atomic units:
                           1         2         3
     Eigenvalues --    90.34167 550.18744 577.87616
           X            0.99924   0.03154   0.02287
           Y           -0.03212   0.99916   0.02541
           Z           -0.02205  -0.02613   0.99942
 This molecule is an asymmetric top.
 Rotational symmetry number  1.
 Rotational temperatures (Kelvin)      0.95874     0.15743     0.14988
 Rotational constants (GHZ):          19.97684     3.28023     3.12306
 Zero-point vibrational energy     146352.3 (Joules/Mol)
                                   34.97903 (Kcal/Mol)
 Warning -- explicit consideration of   6 degrees of freedom as
           vibrations may cause significant error
 Vibrational temperatures:     83.64   247.71   399.28   497.51   547.66
          (Kelvin)            865.59   945.11  1083.10  1171.25  1334.38
                             1422.65  1453.17  1681.00  1743.10  1757.79
                             2004.21  2304.14  3737.26  3841.69  4039.51
                             4044.46

 Zero-point correction=                           0.055743 (Hartree/Particle)
 Thermal correction to Energy=                    0.061784
 Thermal correction to Enthalpy=                  0.062728
 Thermal correction to Gibbs Free Energy=         0.025736
 Sum of electronic and zero-point Energies=           -191.706667
 Sum of electronic and thermal Energies=              -191.700625
 Sum of electronic and thermal Enthalpies=            -191.699681
 Sum of electronic and thermal Free Energies=         -191.736674

                     E (Thermal)             CV                S
                      KCal/Mol        Cal/Mol-Kelvin    Cal/Mol-Kelvin
 Total                   38.770             19.923             77.858
 Electronic               0.000              0.000              2.183
 Translational            0.889              2.981             38.389
 Rotational               0.889              2.981             24.866
 Vibrational             36.993             13.961             12.420
 Vibration     1          0.596              1.974              4.520
 Vibration     2          0.626              1.877              2.412
 Vibration     3          0.678              1.715              1.549
 Vibration     4          0.724              1.584              1.185
 Vibration     5          0.750              1.511              1.037
 Vibration     6          0.960              1.028              0.447

 Optimization completed.
    -- Stationary point found.
 Normal termination of Gaussian 09 at Mon Jun 20 08:59:25 2016.
