 Gaussian 09, Revision E.01,
 Gaussian 09:  EM64L-G09RevE.01 30-Nov-2015

 ------------------------------------------------------
 #p b3lyp/6-311++G(3df,2p) freq IOp(2/17=3) IOp(2/18=3)
 ------------------------------------------------------

 ---------
 b3lyp opt
 ---------
 Symbolic Z-matrix:
 Charge =  1 Multiplicity = 2

                         Standard orientation:
 ---------------------------------------------------------------------
 Center     Atomic      Atomic             Coordinates (Angstroms)
 Number     Number       Type             X           Y           Z
 ---------------------------------------------------------------------
      1          6           0        0.000000    1.148513    0.000000
      2          6           0        0.193592    0.175893    1.048832
      3          1           0        0.083115    0.138432    2.118962
      4          6           0        0.193592    0.175893   -1.048832
      5          1           0        0.083115    0.138432   -2.118962
      6          6           0       -0.840815   -0.333332   -0.000000
      7          1           0       -1.885939   -0.589132   -0.000000
      8          6           0        0.573609   -0.813912   -0.000000
      9          1           0        0.997598   -1.806605   -0.000000
 ---------------------------------------------------------------------

 SCF Done:  E(UB3LYP) =  -192.478398009     A.U. after   14 cycles

 The electronic state is 2-A'.
 Alpha  occ. eigenvalues --  -10.50109 -10.49393 -10.47396 -10.47385 -10.47354
 Alpha  occ. eigenvalues --   -1.29115  -0.95165  -0.93927  -0.86108  -0.79164
 Alpha  occ. eigenvalues --   -0.74306  -0.67842  -0.66890  -0.66761  -0.57947
 Alpha  occ. eigenvalues --   -0.55727  -0.50101
 Alpha virt. eigenvalues --   -0.22871  -0.17007  -0.16032  -0.14671  -0.14230
 Alpha virt. eigenvalues --   -0.14154  -0.14034  -0.10392  -0.08578  -0.08030
 Alpha virt. eigenvalues --   -0.07296  -0.07229  -0.06141  -0.06063  -0.05079

  Beta  occ. eigenvalues --  -10.49412 -10.48630 -10.47256 -10.47256 -10.47136
  Beta  occ. eigenvalues --   -1.28262  -0.94736  -0.92166  -0.85688  -0.78882
  Beta  occ. eigenvalues --   -0.73089  -0.67129  -0.66079  -0.65762  -0.55526
  Beta  occ. eigenvalues --   -0.55152
  Beta virt. eigenvalues --   -0.35785  -0.21021  -0.16770  -0.15682  -0.14356
  Beta virt. eigenvalues --   -0.14045  -0.13997  -0.13844  -0.10215  -0.08408
  Beta virt. eigenvalues --   -0.08007  -0.07271  -0.06833  -0.06030  -0.05867

 Mulliken charges and spin densities:
               1          2
     1  C   -0.091130   0.953801
     2  C   -0.000281  -0.050563
     3  H    0.271303  -0.001406
     4  C   -0.000281  -0.050563
     5  H    0.271303  -0.001406
     6  C    0.280242  -0.003505
     7  H    0.370999  -0.005197
     8  C   -0.371487   0.125135
     9  H    0.269331   0.033702
 Sum of Mulliken charges =   1.00000   1.00000

 Dipole moment (field-independent basis, Debye):
    X=             -0.7839    Y=             -1.4253    Z=              0.0000  Tot=              1.6266
 Quadrupole moment (field-independent basis, Debye-Ang):
   XX=            -22.9571   YY=            -23.4752   ZZ=            -18.1265
   XY=             -0.6486   XZ=              0.0000   YZ=             -0.0000

  Exact polarizability:  36.462  -0.617  44.033  -0.000  -0.000  41.742
 Approx polarizability:  61.772   2.099  77.248   0.000   0.000  64.866

                      1                      2                      3
                     A'                     A"                     A'
 Frequencies --    414.8063               453.5600               605.1993
 Red. masses --      6.6424                 7.6683                 6.8261
 Frc consts  --      0.6734                 0.9294                 1.4731
 IR Inten    --      3.8487                17.5381                21.8337

                      4                      5                      6
                     A'                     A"                     A'
 Frequencies --    808.2773               819.5968               840.3773
 Red. masses --      1.2058                 1.0762                 1.3147
 Frc consts  --      0.4641                 0.4259                 0.5471
 IR Inten    --     42.2965                 0.0511                19.2855

                      7                      8                      9
                     A"                     A'                     A'
 Frequencies --    928.9723               935.7289               957.2000
 Red. masses --      1.2607                 1.9320                 1.8823
 Frc consts  --      0.6410                 0.9967                 1.0161
 IR Inten    --     12.3326                 6.1044                11.3492

                     10                     11                     12
                     A"                     A'                     A"
 Frequencies --   1020.0566              1035.1070              1035.5017
 Red. masses --      1.3045                 1.7510                 4.4290
 Frc consts  --      0.7997                 1.1053                 2.7980
 IR Inten    --      4.9008                 9.7279                10.4857

                     13                     14                     15
                     A"                     A'                     A'
 Frequencies --   1108.6207              1139.8852              1291.0543
 Red. masses --      1.3210                 2.3150                 4.7296
 Frc consts  --      0.9565                 1.7722                 4.6447
 IR Inten    --      0.2081                35.6736                 0.5825

                     16                     17                     18
                     A"                     A'                     A'
 Frequencies --   1301.6763              1336.9260              3231.0277
 Red. masses --      4.3498                 3.2813                 1.1002
 Frc consts  --      4.3424                 3.4555                 6.7669
 IR Inten    --      9.3534                12.7017                70.5740

                     19                     20                     21
                     A'                     A"                     A'
 Frequencies --   3271.2639              3273.8257              3282.9475
 Red. masses --      1.1029                 1.1001                 1.1130
 Frc consts  --      6.9536                 6.9468                 7.0673
 IR Inten    --     41.1864                99.7371                50.9581

 - Thermochemistry -
 -------------------
 Temperature   298.150 Kelvin.  Pressure   1.00000 Atm.
 Atom     1 has atomic number  6 and mass  12.00000

 Molecular mass:    64.03130 amu.
 Principal axes and moments of inertia in atomic units:
                           1         2         3
     Eigenvalues --   169.22600 189.26530 233.15927
           X            0.00000  -0.17508   0.98456
           Y            0.00000   0.98456   0.17508
           Z            1.00000  -0.00000  -0.00000
 This molecule is an asymmetric top.
 Rotational symmetry number  1.
 Rotational temperatures (Kelvin)      0.51182     0.45763     0.37148
 Rotational constants (GHZ):          10.66468     9.53551     7.74038
 Zero-point vibrational energy     174006.5 (Joules/Mol)
                                   41.58855 (Kcal/Mol)
 Warning -- explicit consideration of   3 degrees of freedom as
           vibrations may cause significant error
 Vibrational temperatures:    596.81   652.57   870.75  1162.93  1179.22
          (Kelvin)           1209.11  1336.58  1346.30  1377.20  1467.63
                             1489.29  1489.85  1595.06  1640.04  1857.54
                             1872.82  1923.54  4648.72  4706.61  4710.30
                             4723.42

 Zero-point correction=                           0.066276 (Hartree/Particle)
 Thermal correction to Energy=                    0.070353
 Thermal correction to Enthalpy=                  0.071297
 Thermal correction to Gibbs Free Energy=         0.039560
 Sum of electronic and zero-point Energies=           -192.412122
 Sum of electronic and thermal Energies=              -192.408045
 Sum of electronic and thermal Enthalpies=            -192.407101
 Sum of electronic and thermal Free Energies=         -192.438838

                     E (Thermal)             CV                S
                      KCal/Mol        Cal/Mol-Kelvin    Cal/Mol-Kelvin
 Total                   44.147             14.945             66.797
 Electronic               0.000              0.000              1.377
 Translational            0.889              2.981             38.389
 Rotational               0.889              2.981             23.528
 Vibrational             42.370              8.983              3.502
 Vibration     1          0.778              1.438              0.910
 Vibration     2          0.812              1.353              0.785
 Vibration     3          0.964              1.021              0.441

 Optimization completed.
    -- Stationary point found.
 Normal termination of Gaussian 09 at Thu Jan 31 07:32:36 2019.
