 Gaussian 09, Revision E.01,
 Gaussian 09:  EM64L-G09RevE.01 30-Nov-2015

 ---------------------------------------------
 #p b3lyp/6-311++G(3df,2p) freq symmetry=Loose
 ---------------------------------------------

 ---------
 b3lyp opt
 ---------
 Symbolic Z-matrix:
 Charge =  0 Multiplicity = 3

                         Standard orientation:
 ---------------------------------------------------------------------
 Center     Atomic      Atomic             Coordinates (Angstroms)
 Number     Number       Type             X           Y           Z
 ---------------------------------------------------------------------
      1          6           0       -1.439235   -0.417625    0.641936
      2          6           0        1.645015   -0.593650    0.000159
      3          1           0        2.725489   -0.598918    0.001514
      4          1           0        1.143445   -1.551597   -0.000788
      5          6           0        0.957743    0.563095    0.000214
      6          1           0        1.507742    1.498755    0.001326
      7          6           0       -0.476979    0.693145   -0.001243
      8          1           0       -0.868375    1.705563   -0.003487
      9          6           0       -1.437928   -0.420599   -0.640826
 ---------------------------------------------------------------------

 SCF Done:  E(UB3LYP) =  -192.714271535     A.U. after   19 cycles

 The electronic state is 3-A.
 Alpha  occ. eigenvalues --  -10.24375 -10.23884 -10.23760 -10.19419 -10.19077
 Alpha  occ. eigenvalues --   -0.90206  -0.79249  -0.67487  -0.55551  -0.50982
 Alpha  occ. eigenvalues --   -0.48186  -0.44942  -0.41983  -0.37975  -0.33657
 Alpha  occ. eigenvalues --   -0.32652  -0.29579  -0.23704
 Alpha virt. eigenvalues --   -0.02455  -0.01025  -0.00587   0.00910   0.02264
 Alpha virt. eigenvalues --    0.03990   0.04101   0.04962   0.06911   0.08111
 Alpha virt. eigenvalues --    0.09560   0.09755   0.10259   0.11270   0.11702

  Beta  occ. eigenvalues --  -10.23675 -10.22562 -10.22456 -10.19653 -10.18607
  Beta  occ. eigenvalues --   -0.87910  -0.78410  -0.65867  -0.54561  -0.50676
  Beta  occ. eigenvalues --   -0.44022  -0.41451  -0.40984  -0.36899  -0.29256
  Beta  occ. eigenvalues --   -0.28314
  Beta virt. eigenvalues --   -0.18307  -0.12926  -0.00684  -0.00499   0.00982
  Beta virt. eigenvalues --    0.01096   0.02503   0.04226   0.04307   0.05168
  Beta virt. eigenvalues --    0.07357   0.08551   0.09624   0.10307   0.10517

 Mulliken charges and spin densities:
               1          2
     1  C   -0.119647   0.799181
     2  C   -0.386999   0.312104
     3  H    0.149467  -0.010910
     4  H    0.166154  -0.007054
     5  C   -0.125243  -0.083696
     6  H    0.146262   0.010094
     7  C    0.093201   0.214035
     8  H    0.197122  -0.032584
     9  C   -0.120316   0.798832
 Sum of Mulliken charges =  -0.00000   2.00000

 Dipole moment (field-independent basis, Debye):
    X=              1.4749    Y=              1.0599    Z=             -0.0005  Tot=              1.8162
 Quadrupole moment (field-independent basis, Debye-Ang):
   XX=            -30.2088   YY=            -28.2068   ZZ=            -32.7160
   XY=             -1.2563   XZ=              0.0050   YZ=             -0.0016

  Exact polarizability:  87.675  -5.810  62.218   0.013  -0.002  52.866
 Approx polarizability: 118.248  -1.638  89.082  -0.038   0.078 100.138

                      1                      2                      3
                      A                      A                      A
 Frequencies --    145.6194               255.3685               271.5391
 Red. masses --      2.8806                 4.0538                 2.9410
 Frc consts  --      0.0360                 0.1558                 0.1278
 IR Inten    --      0.0301                 0.0041                 1.8619

                      4                      5                      6
                      A                      A                      A
 Frequencies --    501.6128               585.2451               628.0035
 Red. masses --      7.7731                 3.0865                 1.4487
 Frc consts  --      1.1523                 0.6229                 0.3366
 IR Inten    --      6.6707                 1.3999                12.5468

                      7                      8                      9
                      A                      A                      A
 Frequencies --    770.1854               878.5851               943.0347
 Red. masses --      5.6821                 1.3031                 1.3410
 Frc consts  --      1.9859                 0.5927                 0.7026
 IR Inten    --     11.8138                37.7164                32.2129

                     10                     11                     12
                      A                      A                      A
 Frequencies --    980.7788              1008.0767              1097.8849
 Red. masses --      2.5816                 1.1917                 1.5448
 Frc consts  --      1.4631                 0.7135                 1.0970
 IR Inten    --      9.8196                 5.7479                 8.5522

                     13                     14                     15
                      A                      A                      A
 Frequencies --   1296.3227              1361.4839              1440.5542
 Red. masses --      1.3998                 1.3317                 1.2860
 Frc consts  --      1.3859                 1.4544                 1.5723
 IR Inten    --      2.8255                16.1287                16.7779

                     16                     17                     18
                      A                      A                      A
 Frequencies --   1593.8207              1727.5404              3105.0320
 Red. masses --      2.6010                10.7898                 1.0830
 Frc consts  --      3.8929                18.9724                 6.1521
 IR Inten    --      9.7964                72.3565                 3.2329

                     19                     20                     21
                      A                      A                      A
 Frequencies --   3137.4365              3149.5129              3235.9603
 Red. masses --      1.0803                 1.0664                 1.1169
 Frc consts  --      6.2651                 6.2322                 6.8907
 IR Inten    --     10.0412                 4.6966                 3.5551

 - Thermochemistry -
 -------------------
 Temperature   298.150 Kelvin.  Pressure   1.00000 Atm.
 Atom     1 has atomic number  6 and mass  12.00000

 Molecular mass:    64.03130 amu.
 Principal axes and moments of inertia in atomic units:
                           1         2         3
     Eigenvalues --   127.75675 419.14675 476.38991
           X            0.99952  -0.03107   0.00009
           Y            0.03107   0.99952  -0.00024
           Z           -0.00008   0.00024   1.00000
 This molecule is an asymmetric top.
 Rotational symmetry number  1.
 Rotational temperatures (Kelvin)      0.67796     0.20664     0.18181
 Rotational constants (GHZ):          14.12639     4.30575     3.78837
 Zero-point vibrational energy     168156.7 (Joules/Mol)
                                   40.19041 (Kcal/Mol)
 Warning -- explicit consideration of   5 degrees of freedom as
           vibrations may cause significant error
 Vibrational temperatures:    209.51   367.42   390.68   721.71   842.04
          (Kelvin)            903.56  1108.12  1264.09  1356.81  1411.12
                             1450.40  1579.61  1865.12  1958.87  2072.63
                             2293.15  2485.54  4467.44  4514.07  4531.44
                             4655.82

 Zero-point correction=                           0.064047 (Hartree/Particle)
 Thermal correction to Energy=                    0.069327
 Thermal correction to Enthalpy=                  0.070271
 Thermal correction to Gibbs Free Energy=         0.035256
 Sum of electronic and zero-point Energies=           -192.650224
 Sum of electronic and thermal Energies=              -192.644944
 Sum of electronic and thermal Enthalpies=            -192.644000
 Sum of electronic and thermal Free Energies=         -192.679016

                     E (Thermal)             CV                S
                      KCal/Mol        Cal/Mol-Kelvin    Cal/Mol-Kelvin
 Total                   43.504             17.805             73.696
 Electronic               0.000              0.000              2.183
 Translational            0.889              2.981             38.389
 Rotational               0.889              2.981             24.748
 Vibrational             41.726             11.843              8.376
 Vibration     1          0.617              1.907              2.729
 Vibration     2          0.666              1.754              1.693
 Vibration     3          0.675              1.726              1.586
 Vibration     4          0.857              1.246              0.654
 Vibration     5          0.942              1.063              0.476

 Normal termination of Gaussian 09 at Wed Jun 22 04:18:02 2016.
