 Gaussian 09, Revision E.01,
 Gaussian 09:  EM64L-G09RevE.01 30-Nov-2015

 ---------------------------------------------
 #p b3lyp/6-311++G(3df,2p) freq symmetry=Loose
 ---------------------------------------------

 ---------
 b3lyp opt
 ---------
 Symbolic Z-matrix:
 Charge =  1 Multiplicity = 4

                         Standard orientation:
 ---------------------------------------------------------------------
 Center     Atomic      Atomic             Coordinates (Angstroms)
 Number     Number       Type             X           Y           Z
 ---------------------------------------------------------------------
      1          6           0        1.193830   -0.859933   -0.258997
      2          6           0       -1.686548   -0.455645    0.024725
      3          1           0       -2.701755   -0.335490    0.380991
      4          1           0       -1.416050   -1.411916   -0.404531
      5          6           0       -0.817479    0.591579    0.070132
      6          1           0       -1.081342    1.516856    0.575719
      7          6           0        0.572294    0.534199   -0.448045
      8          1           0        0.955608    1.283319   -1.137103
      9          6           0        1.445160    0.014338    0.709673
 ---------------------------------------------------------------------

 SCF Done:  E(UB3LYP) =  -192.356325539     A.U. after   18 cycles

 The electronic state is 4-A.
 Alpha  occ. eigenvalues --  -10.52130 -10.51502 -10.48234 -10.45408 -10.43672
 Alpha  occ. eigenvalues --   -1.18083  -1.03000  -0.89874  -0.79807  -0.75541
 Alpha  occ. eigenvalues --   -0.73397  -0.67873  -0.67372  -0.61666  -0.58931
 Alpha  occ. eigenvalues --   -0.55682  -0.53095  -0.49199
 Alpha virt. eigenvalues --   -0.28540  -0.24841  -0.15076  -0.14023  -0.12724
 Alpha virt. eigenvalues --   -0.12206  -0.10756  -0.09481  -0.08689  -0.07433
 Alpha virt. eigenvalues --   -0.07028  -0.06038  -0.04537  -0.04059  -0.03067

  Beta  occ. eigenvalues --  -10.50002 -10.49507 -10.47604 -10.45075 -10.43160
  Beta  occ. eigenvalues --   -1.14563  -1.00826  -0.87456  -0.77952  -0.72918
  Beta  occ. eigenvalues --   -0.68385  -0.64601  -0.63721  -0.60439  -0.51676
  Beta virt. eigenvalues --   -0.41986  -0.41187  -0.35700  -0.24089  -0.20130
  Beta virt. eigenvalues --   -0.14512  -0.13157  -0.12361  -0.10294  -0.09217
  Beta virt. eigenvalues --   -0.09083  -0.07799  -0.06918  -0.05931  -0.05371

 Mulliken charges and spin densities:
               1          2
     1  C    0.133803   1.086128
     2  C   -0.357440   0.379865
     3  H    0.210508  -0.003533
     4  H    0.225328  -0.008147
     5  C    0.078878   0.141711
     6  H    0.223377   0.009320
     7  C    0.108397   0.205494
     8  H    0.267444  -0.000862
     9  C    0.109705   1.190025
 Sum of Mulliken charges =   1.00000   3.00000

 Dipole moment (field-independent basis, Debye):
    X=             -0.7550    Y=              0.7483    Z=             -0.3402  Tot=              1.1161
 Quadrupole moment (field-independent basis, Debye-Ang):
   XX=            -15.0681   YY=            -22.5947   ZZ=            -25.9736
   XY=              1.2397   XZ=             -1.4676   YZ=              0.2480

  Exact polarizability:  91.077  -2.789  49.283   2.951   1.286  39.044
 Approx polarizability: 152.321  -8.064  87.504  12.122   8.020  68.412

                      1                      2                      3
                      A                      A                      A
 Frequencies --    100.8779               232.4303               278.3507
 Red. masses --      3.3649                 4.1699                 2.4520
 Frc consts  --      0.0202                 0.1327                 0.1119
 IR Inten    --      2.0104                 1.9501                 0.6777

                      4                      5                      6
                      A                      A                      A
 Frequencies --    514.3804               568.6888               658.1273
 Red. masses --      2.3234                 1.7102                 5.2033
 Frc consts  --      0.3622                 0.3259                 1.3279
 IR Inten    --      5.4127                 6.7001                 6.5742

                      7                      8                      9
                      A                      A                      A
 Frequencies --    836.1096               859.7197               933.2495
 Red. masses --      1.6940                 3.7048                 1.4562
 Frc consts  --      0.6977                 1.6133                 0.7473
 IR Inten    --     32.5606               103.3662                52.4210

                     10                     11                     12
                      A                      A                      A
 Frequencies --    973.5844              1026.5606              1082.3569
 Red. masses --      1.7960                 1.3850                 1.5094
 Frc consts  --      1.0030                 0.8600                 1.0418
 IR Inten    --     17.1462                11.1967                13.3336

                     13                     14                     15
                      A                      A                      A
 Frequencies --   1242.5296              1298.3655              1387.1654
 Red. masses --      1.4275                 1.3812                 1.9174
 Frc consts  --      1.2985                 1.3719                 2.1738
 IR Inten    --     39.5649                36.6806               241.5173

                     16                     17                     18
                      A                      A                      A
 Frequencies --   1495.9584              1563.5686              3112.7186
 Red. masses --      2.0506                 3.6028                 1.0852
 Frc consts  --      2.7038                 5.1895                 6.1947
 IR Inten    --    140.9941                15.9559                34.4668

                     19                     20                     21
                      A                      A                      A
 Frequencies --   3139.0897              3143.8756              3242.1909
 Red. masses --      1.0683                 1.0782                 1.1200
 Frc consts  --      6.2021                 6.2790                 6.9363
 IR Inten    --     19.7832                 5.9255                12.6197

 - Thermochemistry -
 -------------------
 Temperature   298.150 Kelvin.  Pressure   1.00000 Atm.
 Atom     1 has atomic number  6 and mass  12.00000

 Molecular mass:    64.03130 amu.
 Principal axes and moments of inertia in atomic units:
                           1         2         3
     Eigenvalues --   129.32619 395.63105 444.87004
           X            0.99920   0.03182  -0.02432
           Y           -0.03219   0.99937  -0.01510
           Z            0.02383   0.01588   0.99959
 This molecule is an asymmetric top.
 Rotational symmetry number  1.
 Rotational temperatures (Kelvin)      0.66973     0.21893     0.19469
 Rotational constants (GHZ):          13.95496     4.56168     4.05678
 Zero-point vibrational energy     165622.4 (Joules/Mol)
                                   39.58470 (Kcal/Mol)
 Warning -- explicit consideration of   5 degrees of freedom as
           vibrations may cause significant error
 Vibrational temperatures:    145.14   334.41   400.48   740.08   818.22
          (Kelvin)            946.90  1202.97  1236.94  1342.74  1400.77
                             1476.99  1557.27  1787.72  1868.06  1995.82
                             2152.35  2249.62  4478.50  4516.44  4523.33
                             4664.78

 Zero-point correction=                           0.063082 (Hartree/Particle)
 Thermal correction to Energy=                    0.068451
 Thermal correction to Enthalpy=                  0.069396
 Thermal correction to Gibbs Free Energy=         0.033792
 Sum of electronic and zero-point Energies=           -192.293243
 Sum of electronic and thermal Energies=              -192.287874
 Sum of electronic and thermal Enthalpies=            -192.286930
 Sum of electronic and thermal Free Energies=         -192.322533

                     E (Thermal)             CV                S
                      KCal/Mol        Cal/Mol-Kelvin    Cal/Mol-Kelvin
 Total                   42.954             17.876             74.933
 Electronic               0.000              0.000              2.755
 Translational            0.889              2.981             38.389
 Rotational               0.889              2.981             24.635
 Vibrational             41.176             11.914              9.154
 Vibration     1          0.604              1.948              3.437
 Vibration     2          0.653              1.791              1.860
 Vibration     3          0.679              1.714              1.544
 Vibration     4          0.869              1.218              0.623
 Vibration     5          0.925              1.099              0.507

 Normal termination of Gaussian 09 at Mon Jun 20 05:51:59 2016.
