 Gaussian 09, Revision E.01,
 Gaussian 09:  EM64L-G09RevE.01 30-Nov-2015

 ---------------------------------------------
 #p b3lyp/6-311++G(3df,2p) freq symmetry=Loose
 ---------------------------------------------

 ---------
 b3lyp opt
 ---------
 Symbolic Z-matrix:
 Charge =  2 Multiplicity = 3

                         Standard orientation:
 ---------------------------------------------------------------------
 Center     Atomic      Atomic             Coordinates (Angstroms)
 Number     Number       Type             X           Y           Z
 ---------------------------------------------------------------------
      1          6           0        0.000000    0.551140    0.000000
      2          6           0       -1.179446   -0.238320    0.000000
      3          1           0       -0.116324    1.646293    0.000000
      4          1           0       -1.181483   -1.385880    0.000000
      5          6           0       -2.443176   -0.227112    0.000000
      6          1           0       -3.517066   -0.407694    0.000000
      7          6           0        1.291993    0.136174   -0.000000
      8          6           0        2.534292   -0.134860   -0.000000
      9          1           0        3.592893   -0.374855   -0.000000
 ---------------------------------------------------------------------

 SCF Done:  E(UB3LYP) =  -191.928399171     A.U. after   16 cycles

 The electronic state is 3-A".
 Alpha  occ. eigenvalues --  -10.72634 -10.71012 -10.70874 -10.67399 -10.66983
 Alpha  occ. eigenvalues --   -1.30595  -1.26785  -1.18979  -1.03684  -0.98847
 Alpha  occ. eigenvalues --   -0.95823  -0.94623  -0.86632  -0.82981  -0.78127
 Alpha  occ. eigenvalues --   -0.77240  -0.66367
 Alpha virt. eigenvalues --   -0.54214  -0.46376  -0.44114  -0.34677  -0.32648
 Alpha virt. eigenvalues --   -0.29963  -0.29172  -0.28049  -0.26111  -0.23884
 Alpha virt. eigenvalues --   -0.23878  -0.21341  -0.20961  -0.20428  -0.19944

  Beta  occ. eigenvalues --  -10.72088 -10.70565 -10.69364 -10.67175 -10.66493
  Beta  occ. eigenvalues --   -1.29090  -1.23851  -1.15524  -1.02426  -0.97681
  Beta  occ. eigenvalues --   -0.94660  -0.93587  -0.85478  -0.79989  -0.74509
  Beta virt. eigenvalues --   -0.64451  -0.55272  -0.53408  -0.41554  -0.40395
  Beta virt. eigenvalues --   -0.32501  -0.31772  -0.29242  -0.28388  -0.26694
  Beta virt. eigenvalues --   -0.25801  -0.23595  -0.23308  -0.20672  -0.20475

 Mulliken charges and spin densities:
               1          2
     1  C   -0.016894   0.612941
     2  C    0.180621  -0.132561
     3  H    0.247073   0.022749
     4  H    0.232097  -0.004098
     5  C    0.024045   0.341549
     6  H    0.428979  -0.007931
     7  C    0.243409   0.328093
     8  C    0.232997   0.866545
     9  H    0.427673  -0.027288
 Sum of Mulliken charges =   2.00000   2.00000

 Dipole moment (field-independent basis, Debye):
    X=             -0.6335    Y=             -1.1017    Z=             -0.0000  Tot=              1.2709
 Quadrupole moment (field-independent basis, Debye-Ang):
   XX=             33.7116   YY=            -17.4066   ZZ=            -27.3629
   XY=              2.2310   XZ=             -0.0000   YZ=              0.0000

  Exact polarizability:  98.051  -0.943  33.530   0.000   0.000  26.701
 Approx polarizability: 163.963  -8.837  51.638  -0.000   0.000  36.736

                      1                      2                      3
                     A'                     A"                     A'
 Frequencies --    117.6791               162.0873               215.2146
 Red. masses --      3.0845                 2.3432                 3.1269
 Frc consts  --      0.0252                 0.0363                 0.0853
 IR Inten    --     30.1538                 4.7357                 5.4073

                      4                      5                      6
                     A"                     A"                     A'
 Frequencies --    376.7676               507.0005               509.5637
 Red. masses --      4.8096                 1.1929                 3.4922
 Frc consts  --      0.4023                 0.1807                 0.5342
 IR Inten    --      4.2955                44.7677                 7.3484

                      7                      8                      9
                     A"                     A"                     A"
 Frequencies --    552.8574               584.2274               660.3345
 Red. masses --      1.1552                 1.4347                 2.0886
 Frc consts  --      0.2080                 0.2885                 0.5366
 IR Inten    --    129.9096                 1.0170                 3.7753

                     10                     11                     12
                     A'                     A'                     A'
 Frequencies --    724.3885               757.3583               950.8765
 Red. masses --      1.4599                 2.1242                 1.7463
 Frc consts  --      0.4514                 0.7179                 0.9303
 IR Inten    --     11.5218                 1.8589                 5.6366

                     13                     14                     15
                     A'                     A'                     A'
 Frequencies --   1001.3306              1133.7400              1338.8188
 Red. masses --      1.4793                 1.6309                 2.5502
 Frc consts  --      0.8739                 1.2351                 2.6932
 IR Inten    --      5.4612                 9.7598                21.3260

                     16                     17                     18
                     A'                     A'                     A'
 Frequencies --   1742.9072              1846.8717              2656.8105
 Red. masses --      6.4483                 6.2827                 1.0710
 Frc consts  --     11.5410                12.6262                 4.4541
 IR Inten    --     57.8491                 3.8956               144.1158

                     19                     20                     21
                     A'                     A'                     A'
 Frequencies --   2980.4022              3197.2017              3223.8493
 Red. masses --      1.0795                 1.1352                 1.1348
 Frc consts  --      5.6499                 6.8367                 6.9489
 IR Inten    --    207.4768               553.3246               303.9887

 - Thermochemistry -
 -------------------
 Temperature   298.150 Kelvin.  Pressure   1.00000 Atm.
 Atom     1 has atomic number  6 and mass  12.00000

 Molecular mass:    64.03130 amu.
 Principal axes and moments of inertia in atomic units:
                           1         2         3
     Eigenvalues --    35.37258 759.75154 795.12412
           X            0.99888  -0.04726   0.00000
           Y            0.04726   0.99888   0.00000
           Z           -0.00000   0.00000   1.00000
 This molecule is an asymmetric top.
 Rotational symmetry number  1.
 Rotational temperatures (Kelvin)      2.44861     0.11400     0.10893
 Rotational constants (GHZ):          51.02091     2.37544     2.26976
 Zero-point vibrational energy     150970.4 (Joules/Mol)
                                   36.08280 (Kcal/Mol)
 Warning -- explicit consideration of   8 degrees of freedom as
           vibrations may cause significant error
 Vibrational temperatures:    169.31   233.21   309.65   542.08   729.46
          (Kelvin)            733.15   795.44   840.57   950.07  1042.23
                             1089.67  1368.10  1440.69  1631.20  1926.26
                             2507.65  2657.23  3822.55  4288.13  4600.05
                             4638.39

 Zero-point correction=                           0.057502 (Hartree/Particle)
 Thermal correction to Energy=                    0.063761
 Thermal correction to Enthalpy=                  0.064705
 Thermal correction to Gibbs Free Energy=         0.027967
 Sum of electronic and zero-point Energies=           -191.870898
 Sum of electronic and thermal Energies=              -191.864638
 Sum of electronic and thermal Enthalpies=            -191.863694
 Sum of electronic and thermal Free Energies=         -191.900432

                     E (Thermal)             CV                S
                      KCal/Mol        Cal/Mol-Kelvin    Cal/Mol-Kelvin
 Total                   40.011             21.445             77.322
 Electronic               0.000              0.000              2.183
 Translational            0.889              2.981             38.389
 Rotational               0.889              2.981             24.572
 Vibrational             38.233             15.483             12.178
 Vibration     1          0.608              1.935              3.138
 Vibration     2          0.622              1.889              2.525
 Vibration     3          0.645              1.818              1.999
 Vibration     4          0.747              1.520              1.052
 Vibration     5          0.862              1.234              0.641
 Vibration     6          0.865              1.229              0.635
 Vibration     7          0.908              1.133              0.538
 Vibration     8          0.941              1.065              0.478

 Optimization completed.
    -- Stationary point found.
 Normal termination of Gaussian 09 at Wed Jul 20 02:25:19 2016.
