 Gaussian 09, Revision E.01,
 Gaussian 09:  EM64L-G09RevE.01 30-Nov-2015

 ---------------------------------------------
 #p b3lyp/6-311++G(3df,2p) freq symmetry=Loose
 ---------------------------------------------

 ---------
 b3lyp opt
 ---------
 Symbolic Z-matrix:
 Charge =  3 Multiplicity = 4

                         Standard orientation:
 ---------------------------------------------------------------------
 Center     Atomic      Atomic             Coordinates (Angstroms)
 Number     Number       Type             X           Y           Z
 ---------------------------------------------------------------------
      1          6           0       -1.581826   -0.163153    0.227472
      2          6           0       -0.539244   -0.975766   -0.293854
      3          1           0       -2.605869   -0.263599    0.640373
      4          6           0        0.506925   -0.015294   -0.043994
      5          6           0        1.881475   -0.016713    0.097312
      6          1           0        2.805654   -0.819704    0.166958
      7          1           0        2.817155    0.749683    0.264961
      8          6           0       -0.642209    0.903339   -0.087267
      9          1           0       -0.767671    1.939147   -0.470305
 ---------------------------------------------------------------------

 SCF Done:  E(UB3LYP) =  -191.031877043     A.U. after   15 cycles

 The electronic state is 4-A.
 Alpha  occ. eigenvalues --  -11.02271 -11.01275 -10.99492 -10.98315 -10.97261
 Alpha  occ. eigenvalues --   -1.67340  -1.51549  -1.36000  -1.34826  -1.26929
 Alpha  occ. eigenvalues --   -1.18192  -1.16488  -1.13671  -1.10952  -1.09070
 Alpha  occ. eigenvalues --   -1.00588  -0.98584
 Alpha virt. eigenvalues --   -0.78325  -0.78270  -0.66085  -0.62701  -0.59302
 Alpha virt. eigenvalues --   -0.50673  -0.48913  -0.48499  -0.46492  -0.44343
 Alpha virt. eigenvalues --   -0.41355  -0.40846  -0.40575  -0.39645  -0.37697

  Beta  occ. eigenvalues --  -11.00244 -10.99463 -10.99273 -10.97895 -10.96884
  Beta  occ. eigenvalues --   -1.65502  -1.46672  -1.32413  -1.32010  -1.23908
  Beta  occ. eigenvalues --   -1.14642  -1.13091  -1.12627  -1.07841
  Beta virt. eigenvalues --   -0.94554  -0.88196  -0.81706  -0.74550  -0.73314
  Beta virt. eigenvalues --   -0.62158  -0.58165  -0.55067  -0.49800  -0.47900
  Beta virt. eigenvalues --   -0.46527  -0.45559  -0.43488  -0.40441  -0.39881

 Mulliken charges and spin densities:
               1          2
     1  C    0.168096   0.199657
     2  C    0.400563   0.952874
     3  H    0.409067   0.005175
     4  C    0.861418   0.042651
     5  C   -0.208892   1.194992
     6  H    0.426869   0.190801
     7  H    0.429212   0.183724
     8  C    0.142123   0.204362
     9  H    0.371544   0.025764
 Sum of Mulliken charges =   3.00000   3.00000

 Dipole moment (field-independent basis, Debye):
    X=              5.1562    Y=              0.8660    Z=              0.8384  Tot=              5.2952
 Quadrupole moment (field-independent basis, Debye-Ang):
   XX=             32.3430   YY=            -10.4355   ZZ=            -21.6179
   XY=             -0.7684   XZ=              0.6796   YZ=             -0.9221

  Exact polarizability:  71.381  -0.141  38.954   0.083   0.149  23.319
 Approx polarizability: 121.671  -0.103  72.652  -0.782   2.741  35.480

                      1                      2                      3
                      A                      A                      A
 Frequencies --    238.2981               321.4173               437.8487
 Red. masses --      2.6757                 2.1354                 1.0901
 Frc consts  --      0.0895                 0.1300                 0.1231
 IR Inten    --     40.8213                49.4892                11.6225

                      4                      5                      6
                      A                      A                      A
 Frequencies --    463.1669               525.0775               573.5567
 Red. masses --      2.2540                 1.7270                 1.8113
 Frc consts  --      0.2849                 0.2805                 0.3511
 IR Inten    --     58.6648                79.6432                87.0908

                      7                      8                      9
                      A                      A                      A
 Frequencies --    645.9048               838.1605               907.8114
 Red. masses --      4.2744                 1.9977                 2.4121
 Frc consts  --      1.0507                 0.8269                 1.1712
 IR Inten    --     23.0800                71.4658                 4.6615

                     10                     11                     12
                      A                      A                      A
 Frequencies --    932.6715               988.0701              1008.2082
 Red. masses --      1.8883                 1.7440                 1.8353
 Frc consts  --      0.9678                 1.0031                 1.0991
 IR Inten    --     27.6216                 4.1712                43.5054

                     13                     14                     15
                      A                      A                      A
 Frequencies --   1074.5619              1118.7477              1160.0693
 Red. masses --      1.4492                 1.4719                 2.5561
 Frc consts  --      0.9859                 1.0854                 2.0267
 IR Inten    --     69.2714                 7.3914                57.4950

                     16                     17                     18
                      A                      A                      A
 Frequencies --   1279.0256              1427.1216              1593.2326
 Red. masses --      4.6926                 5.0764                 1.0473
 Frc consts  --      4.5230                 6.0916                 1.5663
 IR Inten    --    221.5347                75.0637               760.5094

                     19                     20                     21
                      A                      A                      A
 Frequencies --   2305.0221              2929.3208              2977.1829
 Red. masses --      1.1859                 1.1010                 1.1160
 Frc consts  --      3.7125                 5.5664                 5.8280
 IR Inten    --   1131.5779               339.8373               403.9580

 - Thermochemistry -
 -------------------
 Temperature   298.150 Kelvin.  Pressure   1.00000 Atm.
 Atom     1 has atomic number  6 and mass  12.00000

 Molecular mass:    64.03130 amu.
 Principal axes and moments of inertia in atomic units:
                           1         2         3
     Eigenvalues --   104.31487 392.47278 478.40703
           X            0.99993  -0.01151  -0.00031
           Y            0.01148   0.99908  -0.04140
           Z            0.00079   0.04140   0.99914
 This molecule is an asymmetric top.
 Rotational symmetry number  1.
 Rotational temperatures (Kelvin)      0.83031     0.22069     0.18105
 Rotational constants (GHZ):          17.30090     4.59839     3.77240
 Zero-point vibrational energy     142023.5 (Joules/Mol)
                                   33.94443 (Kcal/Mol)
 Warning -- explicit consideration of   6 degrees of freedom as
           vibrations may cause significant error
 Vibrational temperatures:    342.86   462.45   629.97   666.39   755.47
          (Kelvin)            825.22   929.31  1205.92  1306.14  1341.90
                             1421.61  1450.58  1546.05  1609.63  1669.08
                             1840.23  2053.31  2292.30  3316.41  4214.63
                             4283.50

 Zero-point correction=                           0.054094 (Hartree/Particle)
 Thermal correction to Energy=                    0.059204
 Thermal correction to Enthalpy=                  0.060148
 Thermal correction to Gibbs Free Energy=         0.025622
 Sum of electronic and zero-point Energies=           -190.977783
 Sum of electronic and thermal Energies=              -190.972673
 Sum of electronic and thermal Enthalpies=            -190.971729
 Sum of electronic and thermal Free Energies=         -191.006255

                     E (Thermal)             CV                S
                      KCal/Mol        Cal/Mol-Kelvin    Cal/Mol-Kelvin
 Total                   37.151             18.722             72.666
 Electronic               0.000              0.000              2.755
 Translational            0.889              2.981             38.389
 Rotational               0.889              2.981             24.486
 Vibrational             35.373             12.760              7.036
 Vibration     1          0.656              1.782              1.816
 Vibration     2          0.707              1.633              1.303
 Vibration     3          0.798              1.388              0.833
 Vibration     4          0.821              1.332              0.757
 Vibration     5          0.880              1.194              0.598
 Vibration     6          0.930              1.088              0.497

 Normal termination of Gaussian 09 at Mon Jun 20 12:55:43 2016.
