 Gaussian 09, Revision E.01,
 Gaussian 09:  EM64L-G09RevE.01 30-Nov-2015

 ---------------------------------------------
 #p b3lyp/6-311++G(3df,2p) freq symmetry=Loose
 ---------------------------------------------

 ---------
 b3lyp opt
 ---------
 Symbolic Z-matrix:
 Charge =  0 Multiplicity = 3

                         Standard orientation:
 ---------------------------------------------------------------------
 Center     Atomic      Atomic             Coordinates (Angstroms)
 Number     Number       Type             X           Y           Z
 ---------------------------------------------------------------------
      1          6           0        0.592033   -1.258360    0.000000
      2          1           0        0.882631   -1.817414   -0.890943
      3          1           0        0.882631   -1.817414    0.890943
      4          6           0       -0.771803   -0.734817    0.000000
      5          6           0       -1.222576    0.424557    0.000000
      6          6           0        1.086660    0.202256    0.000000
      7          6           0        0.000000    1.318911    0.000000
      8          1           0        0.064431    1.959772    0.880902
      9          1           0        0.064431    1.959772   -0.880902
 ---------------------------------------------------------------------

 SCF Done:  E(UB3LYP) =  -192.693209661     A.U. after   19 cycles

 The electronic state is 3-A".
 Alpha  occ. eigenvalues --  -10.23413 -10.22451 -10.22187 -10.20951 -10.18628
 Alpha  occ. eigenvalues --   -0.89256  -0.75566  -0.69961  -0.57688  -0.50189
 Alpha  occ. eigenvalues --   -0.48726  -0.45377  -0.44004  -0.40801  -0.32274
 Alpha  occ. eigenvalues --   -0.28492  -0.23050  -0.21712
 Alpha virt. eigenvalues --   -0.09504  -0.00774   0.01348   0.01479   0.02269
 Alpha virt. eigenvalues --    0.04158   0.04228   0.05458   0.06035   0.07072
 Alpha virt. eigenvalues --    0.09063   0.10703   0.11036   0.11860   0.11964

  Beta  occ. eigenvalues --  -10.23355 -10.22085 -10.21359 -10.19867 -10.17765
  Beta  occ. eigenvalues --   -0.88002  -0.74812  -0.68384  -0.54444  -0.49492
  Beta  occ. eigenvalues --   -0.47434  -0.44024  -0.43355  -0.39155  -0.28116
  Beta  occ. eigenvalues --   -0.27876
  Beta virt. eigenvalues --   -0.10210  -0.08359  -0.05467  -0.00590   0.01396
  Beta virt. eigenvalues --    0.01796   0.02597   0.04305   0.04794   0.05516
  Beta virt. eigenvalues --    0.06259   0.07306   0.09339   0.10681   0.11491

 Mulliken charges and spin densities:
               1          2
     1  C   -0.294937  -0.051199
     2  H    0.167579   0.031763
     3  H    0.167579   0.031763
     4  C    0.414060  -0.437020
     5  C   -0.300795   0.631003
     6  C   -0.195208   1.829860
     7  C   -0.255264  -0.090547
     8  H    0.148493   0.027187
     9  H    0.148493   0.027187
 Sum of Mulliken charges =  -0.00000   2.00000

 Dipole moment (field-independent basis, Debye):
    X=              1.0155    Y=             -0.7145    Z=             -0.0000  Tot=              1.2417
 Quadrupole moment (field-independent basis, Debye-Ang):
   XX=            -35.4110   YY=            -25.7162   ZZ=            -30.0791
   XY=             -0.6421   XZ=             -0.0000   YZ=             -0.0000

  Exact polarizability:  68.566  -4.119  64.762   0.000  -0.000  41.341
 Approx polarizability: 114.612  -8.431 109.536   0.000  -0.000  59.722

                      1                      2                      3
                     A"                     A"                     A'
 Frequencies --    197.7946               279.5837               333.9521
 Red. masses --      2.6820                 2.9480                10.4999
 Frc consts  --      0.0618                 0.1358                 0.6899
 IR Inten    --      8.6312                 5.9603                66.8761

                      4                      5                      6
                     A'                     A'                     A"
 Frequencies --    586.4407               695.5115               882.7739
 Red. masses --      7.8378                 5.2648                 1.5933
 Frc consts  --      1.5881                 1.5005                 0.7316
 IR Inten    --      9.9319                27.7051                 0.1954

                      7                      8                      9
                     A'                     A"                     A'
 Frequencies --    937.0674               944.4152               979.8350
 Red. masses --      9.5796                 1.3683                 6.5458
 Frc consts  --      4.9561                 0.7191                 3.7027
 IR Inten    --      7.6345                 0.0010                33.7779

                     10                     11                     12
                     A"                     A'                     A"
 Frequencies --   1073.8311              1082.8090              1109.0550
 Red. masses --      1.0826                 6.6759                 1.0667
 Frc consts  --      0.7355                 4.6117                 0.7731
 IR Inten    --      0.2633                 5.9833                 0.5537

                     13                     14                     15
                     A'                     A'                     A'
 Frequencies --   1195.4418              1227.0594              1464.5374
 Red. masses --      1.2131                 1.2372                 1.0729
 Frc consts  --      1.0214                 1.0975                 1.3558
 IR Inten    --      2.6833                 0.4335                 0.6259

                     16                     17                     18
                     A'                     A'                     A'
 Frequencies --   1482.5350              1839.9829              3030.4117
 Red. masses --      1.0957                10.6156                 1.0542
 Frc consts  --      1.4189                21.1750                 5.7039
 IR Inten    --      0.4644                 0.8712                32.4776

                     19                     20                     21
                     A'                     A"                     A"
 Frequencies --   3031.9515              3060.4766              3062.3283
 Red. masses --      1.0554                 1.1053                 1.1088
 Frc consts  --      5.7165                 6.0996                 6.1263
 IR Inten    --     25.5214                 0.3757                10.2013

 - Thermochemistry -
 -------------------
 Temperature   298.150 Kelvin.  Pressure   1.00000 Atm.
 Atom     1 has atomic number  6 and mass  12.00000

 Molecular mass:    64.03130 amu.
 Principal axes and moments of inertia in atomic units:
                           1         2         3
     Eigenvalues --   159.55660 250.11373 387.07190
           X           -0.36979   0.92912   0.00000
           Y            0.92912   0.36979   0.00000
           Z           -0.00000  -0.00000   1.00000
 This molecule is an asymmetric top.
 Rotational symmetry number  1.
 Rotational temperatures (Kelvin)      0.54284     0.34630     0.22377
 Rotational constants (GHZ):          11.31098     7.21568     4.66255
 Zero-point vibrational energy     170454.7 (Joules/Mol)
                                   40.73964 (Kcal/Mol)
 Warning -- explicit consideration of   4 degrees of freedom as
           vibrations may cause significant error
 Vibrational temperatures:    284.58   402.26   480.48   843.76  1000.68
          (Kelvin)           1270.11  1348.23  1358.80  1409.76  1545.00
                             1557.92  1595.68  1719.97  1765.46  2107.14
                             2133.03  2647.32  4360.08  4362.30  4403.34
                             4406.00

 Zero-point correction=                           0.064923 (Hartree/Particle)
 Thermal correction to Energy=                    0.069740
 Thermal correction to Enthalpy=                  0.070684
 Thermal correction to Gibbs Free Energy=         0.036792
 Sum of electronic and zero-point Energies=           -192.628287
 Sum of electronic and thermal Energies=              -192.623470
 Sum of electronic and thermal Enthalpies=            -192.622526
 Sum of electronic and thermal Free Energies=         -192.656417

                     E (Thermal)             CV                S
                      KCal/Mol        Cal/Mol-Kelvin    Cal/Mol-Kelvin
 Total                   43.762             16.293             71.331
 Electronic               0.000              0.000              2.183
 Translational            0.889              2.981             38.389
 Rotational               0.889              2.981             24.250
 Vibrational             41.985             10.331              6.509
 Vibration     1          0.637              1.843              2.154
 Vibration     2          0.680              1.711              1.536
 Vibration     3          0.715              1.608              1.241
 Vibration     4          0.944              1.061              0.474

 Optimization completed.
    -- Stationary point found.
 Normal termination of Gaussian 09 at Wed Jul 20 12:18:35 2016.
