 Gaussian 09, Revision E.01,
 Gaussian 09:  EM64L-G09RevE.01 30-Nov-2015

 ---------------------------------------------
 #p b3lyp/6-311++G(3df,2p) freq symmetry=Loose
 ---------------------------------------------

 ---------
 b3lyp opt
 ---------
 Symbolic Z-matrix:
 Charge =  2 Multiplicity = 3

                         Standard orientation:
 ---------------------------------------------------------------------
 Center     Atomic      Atomic             Coordinates (Angstroms)
 Number     Number       Type             X           Y           Z
 ---------------------------------------------------------------------
      1          6           0       -1.303334   -0.867158   -0.279085
      2          6           0       -1.666486    0.420986   -0.077512
      3          6           0       -0.309391   -0.083960    0.430412
      4          1           0       -2.306735    1.297786   -0.187918
      5          1           0       -0.270860   -0.261920    1.527587
      6          6           0        1.076315    0.410440   -0.111556
      7          1           0        1.471559    1.310414    0.452342
      8          1           0        1.095390    0.716109   -1.197286
      9          6           0        2.204670   -0.390706   -0.061380
 ---------------------------------------------------------------------

 SCF Done:  E(UB3LYP) =  -191.760717494     A.U. after   23 cycles

 The electronic state is 3-A.
 Alpha  occ. eigenvalues --  -10.80826 -10.74475 -10.73526 -10.71926 -10.68738
 Alpha  occ. eigenvalues --   -1.40883  -1.30433  -1.10610  -1.04172  -1.00359
 Alpha  occ. eigenvalues --   -0.94756  -0.92348  -0.90466  -0.84931  -0.78930
 Alpha  occ. eigenvalues --   -0.77006  -0.73634
 Alpha virt. eigenvalues --   -0.58838  -0.57203  -0.50806  -0.36258  -0.32811
 Alpha virt. eigenvalues --   -0.32254  -0.30157  -0.29744  -0.27846  -0.27204
 Alpha virt. eigenvalues --   -0.26320  -0.23854  -0.21771  -0.21402  -0.20193

  Beta  occ. eigenvalues --  -10.80740 -10.72597 -10.72366 -10.71656 -10.68551
  Beta  occ. eigenvalues --   -1.38031  -1.29709  -1.08525  -1.02183  -0.98678
  Beta  occ. eigenvalues --   -0.93706  -0.90011  -0.86146  -0.82786  -0.77898
  Beta virt. eigenvalues --   -0.65059  -0.58703  -0.58008  -0.56928  -0.44136
  Beta virt. eigenvalues --   -0.34853  -0.31933  -0.31701  -0.29249  -0.28542
  Beta virt. eigenvalues --   -0.27256  -0.26765  -0.25675  -0.23292  -0.21347

 Mulliken charges and spin densities:
               1          2
     1  C    0.226843   1.177349
     2  C    0.175061   0.560859
     3  C    0.362183   0.013689
     4  H    0.376817  -0.009756
     5  H    0.289498   0.092871
     6  C   -0.168749   0.089806
     7  H    0.288326   0.007163
     8  H    0.313909   0.001355
     9  C    0.136112   0.066664
 Sum of Mulliken charges =   2.00000   2.00000

 Dipole moment (field-independent basis, Debye):
    X=              0.2497    Y=              2.2358    Z=              0.1072  Tot=              2.2522
 Quadrupole moment (field-independent basis, Debye-Ang):
   XX=              0.0801   YY=            -18.7713   ZZ=            -19.5660
   XY=             -0.3349   XZ=             -0.3631   YZ=             -0.8994

  Exact polarizability:  66.393  -2.940  40.065   2.875   1.148  33.966
 Approx polarizability:  97.802  -6.216  70.976   7.020   4.214  55.105

                      1                      2                      3
                      A                      A                      A
 Frequencies --     74.6526               194.6043               299.6674
 Red. masses --      3.2988                 5.8096                 2.2265
 Frc consts  --      0.0108                 0.1296                 0.1178
 IR Inten    --      1.6267                 0.8339                 2.2363

                      4                      5                      6
                      A                      A                      A
 Frequencies --    313.4845               386.4361               668.5928
 Red. masses --      2.2328                 2.6449                 4.4004
 Frc consts  --      0.1293                 0.2327                 1.1590
 IR Inten    --      4.6375                 0.5976                 2.2273

                      7                      8                      9
                      A                      A                      A
 Frequencies --    680.6479               779.6128               892.6352
 Red. masses --      1.3466                 4.4665                 1.2795
 Frc consts  --      0.3676                 1.5995                 0.6007
 IR Inten    --     19.0969                 7.6317                 5.8705

                     10                     11                     12
                      A                      A                      A
 Frequencies --    921.0462               935.0930               958.4262
 Red. masses --      1.3163                 1.2699                 1.3824
 Frc consts  --      0.6579                 0.6542                 0.7482
 IR Inten    --     41.2019                47.8700                18.1965

                     13                     14                     15
                      A                      A                      A
 Frequencies --   1110.5724              1171.7864              1226.5306
 Red. masses --      3.8398                 1.1563                 1.1051
 Frc consts  --      2.7903                 0.9355                 0.9795
 IR Inten    --      4.4457                 4.7663                57.6682

                     16                     17                     18
                      A                      A                      A
 Frequencies --   1397.4055              1484.1292              2718.2886
 Red. masses --      5.4726                 7.4325                 1.0661
 Frc consts  --      6.2964                 9.6456                 4.6411
 IR Inten    --    318.1667                28.7975               207.8176

                     19                     20                     21
                      A                      A                      A
 Frequencies --   2763.0548              2832.2126              3145.1128
 Red. masses --      1.0773                 1.0744                 1.1142
 Frc consts  --      4.8459                 5.0775                 6.4935
 IR Inten    --    133.5843               179.9082               215.0801

 - Thermochemistry -
 -------------------
 Temperature   298.150 Kelvin.  Pressure   1.00000 Atm.
 Atom     1 has atomic number  6 and mass  12.00000

 Molecular mass:    64.03130 amu.
 Principal axes and moments of inertia in atomic units:
                           1         2         3
     Eigenvalues --    94.31862 511.75976 553.30937
           X            0.99999  -0.00218  -0.00470
           Y            0.00182   0.99717  -0.07520
           Z            0.00485   0.07519   0.99716
 This molecule is an asymmetric top.
 Rotational symmetry number  1.
 Rotational temperatures (Kelvin)      0.91831     0.16925     0.15654
 Rotational constants (GHZ):          19.13452     3.52654     3.26172
 Zero-point vibrational energy     149258.0 (Joules/Mol)
                                   35.67352 (Kcal/Mol)
 Warning -- explicit consideration of   5 degrees of freedom as
           vibrations may cause significant error
 Vibrational temperatures:    107.41   279.99   431.15   451.03   555.99
          (Kelvin)            961.95   979.30  1121.69  1284.30  1325.18
                             1345.39  1378.96  1597.86  1685.94  1764.70
                             2010.55  2135.33  3911.01  3975.41  4074.92
                             4525.11

 Zero-point correction=                           0.056849 (Hartree/Particle)
 Thermal correction to Energy=                    0.062780
 Thermal correction to Enthalpy=                  0.063724
 Thermal correction to Gibbs Free Energy=         0.027172
 Sum of electronic and zero-point Energies=           -191.703868
 Sum of electronic and thermal Energies=              -191.697938
 Sum of electronic and thermal Enthalpies=            -191.696993
 Sum of electronic and thermal Free Energies=         -191.733546

                     E (Thermal)             CV                S
                      KCal/Mol        Cal/Mol-Kelvin    Cal/Mol-Kelvin
 Total                   39.395             19.770             76.931
 Electronic               0.000              0.000              2.183
 Translational            0.889              2.981             38.389
 Rotational               0.889              2.981             24.794
 Vibrational             37.618             13.809             11.565
 Vibration     1          0.599              1.966              4.027
 Vibration     2          0.635              1.847              2.184
 Vibration     3          0.692              1.674              1.419
 Vibration     4          0.701              1.648              1.344
 Vibration     5          0.755              1.499              1.014

 Normal termination of Gaussian 09 at Mon Jun 20 08:59:48 2016.
