 Gaussian 09, Revision E.01,
 Gaussian 09:  EM64L-G09RevE.01 30-Nov-2015

 ---------------------------------------------
 #p b3lyp/6-311++G(3df,2p) freq symmetry=Loose
 ---------------------------------------------

 ---------
 b3lyp opt
 ---------
 Symbolic Z-matrix:
 Charge =  0 Multiplicity = 1

                         Standard orientation:
 ---------------------------------------------------------------------
 Center     Atomic      Atomic             Coordinates (Angstroms)
 Number     Number       Type             X           Y           Z
 ---------------------------------------------------------------------
      1          6           0        0.706555   -0.980461   -0.415921
      2          6           0        1.417007   -0.196709    0.603538
      3          6           0       -0.303601    0.003800   -0.199812
      4          6           0        0.789182    0.861187   -0.126720
      5          1           0        1.118586    1.760742   -0.624931
      6          6           0       -1.741780    0.012139    0.128190
      7          1           0       -2.223640    0.920045   -0.233870
      8          1           0       -2.234548   -0.863386   -0.291735
      9          1           0       -1.864573   -0.017130    1.214889
 ---------------------------------------------------------------------

 SCF Done:  E(RB3LYP) =  -192.761369787     A.U. after   13 cycles

 The electronic state is 1-A.
 Alpha  occ. eigenvalues --  -10.25473 -10.24282 -10.22034 -10.21710 -10.20774
 Alpha  occ. eigenvalues --   -0.96976  -0.78017  -0.64890  -0.60662  -0.51889
 Alpha  occ. eigenvalues --   -0.48271  -0.45549  -0.44744  -0.37558  -0.36142
 Alpha  occ. eigenvalues --   -0.27569  -0.23900
 Alpha virt. eigenvalues --   -0.05366  -0.04791  -0.02945  -0.01437   0.01018
 Alpha virt. eigenvalues --    0.02450   0.02916   0.04851   0.05937   0.06150
 Alpha virt. eigenvalues --    0.07679   0.07874   0.10030   0.10275   0.10659

 Mulliken charges:
               1
     1  C   -0.204584
     2  C   -0.303656
     3  C    0.243609
     4  C   -0.061820
     5  H    0.224872
     6  C   -0.379376
     7  H    0.153588
     8  H    0.150249
     9  H    0.177118
 Sum of Mulliken charges =  -0.00000

 Dipole moment (field-independent basis, Debye):
    X=             -3.1672    Y=              2.7921    Z=             -0.6279  Tot=              4.2686
 Quadrupole moment (field-independent basis, Debye-Ang):
   XX=            -30.4343   YY=            -30.8674   ZZ=            -32.9080
   XY=              3.5114   XZ=             -2.9139   YZ=             -2.4495

  Exact polarizability:  67.919  -0.488  58.369   4.808   2.090  46.098
 Approx polarizability: 107.975  -0.445 106.858  13.920   5.379  73.638

                      1                      2                      3
                      A                      A                      A
 Frequencies --    119.3437               253.3591               348.8985
 Red. masses --      1.0883                 3.9533                 2.8078
 Frc consts  --      0.0091                 0.1495                 0.2014
 IR Inten    --      1.1990                 9.1439                 5.6371

                      4                      5                      6
                      A                      A                      A
 Frequencies --    562.9881               585.6846               649.4784
 Red. masses --      3.5319                 5.7244                 4.6410
 Frc consts  --      0.6596                 1.1569                 1.1534
 IR Inten    --      5.7133                 8.2976                 5.7669

                      7                      8                      9
                      A                      A                      A
 Frequencies --    780.3513               890.8301              1031.3536
 Red. masses --      2.5476                 1.8907                 1.4563
 Frc consts  --      0.9140                 0.8840                 0.9127
 IR Inten    --     14.3377                37.2054                 5.3992

                     10                     11                     12
                      A                      A                      A
 Frequencies --   1050.4588              1075.0768              1252.3661
 Red. masses --      1.8744                 1.5080                 5.2874
 Frc consts  --      1.2186                 1.0269                 4.8860
 IR Inten    --      7.8818                 1.4098                 8.2614

                     13                     14                     15
                      A                      A                      A
 Frequencies --   1277.9424              1400.2907              1474.0302
 Red. masses --      3.9181                 1.2030                 1.0551
 Frc consts  --      3.7700                 1.3898                 1.3507
 IR Inten    --      4.9230                 6.5686                11.1331

                     16                     17                     18
                      A                      A                      A
 Frequencies --   1479.0025              1568.7435              3020.4634
 Red. masses --      1.0793                 7.6456                 1.0407
 Frc consts  --      1.3910                11.0857                 5.5938
 IR Inten    --     12.2145                20.6819                 4.9612

                     19                     20                     21
                      A                      A                      A
 Frequencies --   3081.5134              3117.6249              3207.0457
 Red. masses --      1.0917                 1.1037                 1.1002
 Frc consts  --      6.1080                 6.3202                 6.6673
 IR Inten    --      5.2809                 4.6003                 0.2998

 - Thermochemistry -
 -------------------
 Temperature   298.150 Kelvin.  Pressure   1.00000 Atm.
 Atom     1 has atomic number  6 and mass  12.00000

 Molecular mass:    64.03130 amu.
 Principal axes and moments of inertia in atomic units:
                           1         2         3
     Eigenvalues --   124.39396 352.61527 411.14159
           X            0.99941   0.02506  -0.02364
           Y           -0.02661   0.99733  -0.06799
           Z            0.02187   0.06858   0.99741
 This molecule is an asymmetric top.
 Rotational symmetry number  1.
 Rotational temperatures (Kelvin)      0.69629     0.24563     0.21067
 Rotational constants (GHZ):          14.50827     5.11816     4.38959
 Zero-point vibrational energy     168834.0 (Joules/Mol)
                                   40.35230 (Kcal/Mol)
 Warning -- explicit consideration of   5 degrees of freedom as
           vibrations may cause significant error
 Vibrational temperatures:    171.71   364.53   501.99   810.01   842.67
          (Kelvin)            934.45  1122.75  1281.70  1483.89  1511.37
                             1546.79  1801.87  1838.67  2014.70  2120.80
                             2127.95  2257.07  4345.77  4433.60  4485.56
                             4614.22

 Zero-point correction=                           0.064305 (Hartree/Particle)
 Thermal correction to Energy=                    0.069443
 Thermal correction to Enthalpy=                  0.070387
 Thermal correction to Gibbs Free Energy=         0.036720
 Sum of electronic and zero-point Energies=           -192.697064
 Sum of electronic and thermal Energies=              -192.691927
 Sum of electronic and thermal Enthalpies=            -192.690982
 Sum of electronic and thermal Free Energies=         -192.724650

                     E (Thermal)             CV                S
                      KCal/Mol        Cal/Mol-Kelvin    Cal/Mol-Kelvin
 Total                   43.576             17.160             70.859
 Electronic               0.000              0.000              0.000
 Translational            0.889              2.981             38.389
 Rotational               0.889              2.981             24.404
 Vibrational             41.799             11.198              8.066
 Vibration     1          0.609              1.933              3.111
 Vibration     2          0.665              1.757              1.707
 Vibration     3          0.726              1.578              1.171
 Vibration     4          0.919              1.111              0.518
 Vibration     5          0.943              1.062              0.475

 Normal termination of Gaussian 09 at Wed Jun 22 02:10:06 2016.
