 Gaussian 09, Revision E.01,
 Gaussian 09:  EM64L-G09RevE.01 30-Nov-2015

 ------------------------------------------------------
 #p b3lyp/6-311++G(3df,2p) freq IOp(2/17=3) IOp(2/18=3)
 ------------------------------------------------------

 ---------
 b3lyp opt
 ---------
 Symbolic Z-matrix:
 Charge =  0 Multiplicity = 3

                         Standard orientation:
 ---------------------------------------------------------------------
 Center     Atomic      Atomic             Coordinates (Angstroms)
 Number     Number       Type             X           Y           Z
 ---------------------------------------------------------------------
      1          6           0        1.057454   -0.716288    0.000000
      2          6           0       -1.265525    0.106814    0.000000
      3          1           0        1.773743   -1.540915    0.000000
      4          1           0       -0.703049   -1.989590    0.000000
      5          1           0       -2.324743   -0.132829    0.000000
      6          6           0       -0.884265    1.386488    0.000000
      7          6           0        1.645924    0.468214    0.000000
      8          6           0       -0.344579   -0.970033    0.000000
      9          1           0        0.000000    2.012161    0.000000
 ---------------------------------------------------------------------

 SCF Done:  E(UB3LYP) =  -192.725191450     A.U. after   18 cycles

 The electronic state is 3-A".
 Alpha  occ. eigenvalues --  -10.23858 -10.22434 -10.22211 -10.20248 -10.18866
 Alpha  occ. eigenvalues --   -0.85989  -0.78021  -0.70256  -0.59150  -0.54079
 Alpha  occ. eigenvalues --   -0.50852  -0.44061  -0.42685  -0.38402  -0.31326
 Alpha  occ. eigenvalues --   -0.30151  -0.26350  -0.22108
 Alpha virt. eigenvalues --   -0.10224  -0.01838  -0.00931   0.01018   0.02014
 Alpha virt. eigenvalues --    0.03340   0.04446   0.05741   0.06117   0.07268
 Alpha virt. eigenvalues --    0.08568   0.09759   0.10101   0.10360   0.10959

  Beta  occ. eigenvalues --  -10.23232 -10.21198 -10.20597 -10.20435 -10.19105
  Beta  occ. eigenvalues --   -0.84590  -0.76847  -0.67068  -0.57263  -0.53399
  Beta  occ. eigenvalues --   -0.49593  -0.43229  -0.41800  -0.35747  -0.29795
  Beta  occ. eigenvalues --   -0.28101
  Beta virt. eigenvalues --   -0.12705  -0.11380  -0.06286  -0.00882   0.00729
  Beta virt. eigenvalues --    0.01024   0.02420   0.03372   0.04905   0.06663
  Beta virt. eigenvalues --    0.06966   0.07386   0.08575   0.10297   0.10605

 Mulliken charges and spin densities:
               1          2
     1  C    0.376677  -0.168375
     2  C    0.092647  -0.342555
     3  H    0.139648  -0.003180
     4  H    0.177366  -0.006895
     5  H    0.148517   0.034743
     6  C   -0.394130   1.400338
     7  C   -0.671773   0.425262
     8  C   -0.128304   0.655036
     9  H    0.259352   0.005626
 Sum of Mulliken charges =  -0.00000   2.00000

 Dipole moment (field-independent basis, Debye):
    X=             -1.2533    Y=             -2.1497    Z=              0.0000  Tot=              2.4884
 Quadrupole moment (field-independent basis, Debye-Ang):
   XX=            -30.9829   YY=            -27.9057   ZZ=            -33.5727
   XY=             -2.3455   XZ=              0.0000   YZ=              0.0000

  Exact polarizability:  79.803  -4.222  69.759   0.000   0.000  40.676
 Approx polarizability: 129.662  -7.082 117.155  -0.000  -0.000  58.652

                      1                      2                      3
                     A'                     A"                     A'
 Frequencies --    104.9290               189.3553               345.8001
 Red. masses --      8.7751                 2.0136                 2.5413
 Frc consts  --      0.0569                 0.0425                 0.1790
 IR Inten    --      1.9816                18.4265                14.1357

                      4                      5                      6
                     A"                     A"                     A'
 Frequencies --    409.9123               558.5072               569.3371
 Red. masses --      1.8741                 1.9496                 1.8558
 Frc consts  --      0.1855                 0.3583                 0.3544
 IR Inten    --      0.0374                41.3624                58.2652

                      7                      8                      9
                     A"                     A'                     A"
 Frequencies --    644.7859               758.7613               764.6232
 Red. masses --      1.2791                 2.6143                 1.4247
 Frc consts  --      0.3133                 0.8868                 0.4907
 IR Inten    --     39.6787                39.5294                 2.1431

                     10                     11                     12
                     A"                     A'                     A'
 Frequencies --    878.2453               958.3912              1046.0386
 Red. masses --      1.3003                 2.2464                 1.5942
 Frc consts  --      0.5909                 1.2157                 1.0277
 IR Inten    --     15.9744                 3.7393                 3.2596

                     13                     14                     15
                     A'                     A'                     A'
 Frequencies --   1116.6001              1251.8189              1292.4496
 Red. masses --      1.9263                 1.5002                 2.5083
 Frc consts  --      1.4150                 1.3851                 2.4686
 IR Inten    --      4.1814                 4.2216                 3.0411

                     16                     17                     18
                     A'                     A'                     A'
 Frequencies --   1478.5476              1571.3468              3085.6946
 Red. masses --      2.8470                 5.9423                 1.0831
 Frc consts  --      3.6670                 8.6447                 6.0758
 IR Inten    --      2.0096                36.8080                15.2851

                     19                     20                     21
                     A'                     A'                     A'
 Frequencies --   3125.8668              3182.6098              3190.4416
 Red. masses --      1.0852                 1.0978                 1.0910
 Frc consts  --      6.2474                 6.5512                 6.5433
 IR Inten    --      0.8735                 9.5027                 6.6791

 - Thermochemistry -
 -------------------
 Temperature   298.150 Kelvin.  Pressure   1.00000 Atm.
 Atom     1 has atomic number  6 and mass  12.00000

 Molecular mass:    64.03130 amu.
 Principal axes and moments of inertia in atomic units:
                           1         2         3
     Eigenvalues --   174.56272 320.98795 495.55066
           X            0.93912   0.34358   0.00000
           Y           -0.34358   0.93912   0.00000
           Z           -0.00000   0.00000   1.00000
 This molecule is an asymmetric top.
 Rotational symmetry number  1.
 Rotational temperatures (Kelvin)      0.49618     0.26984     0.17478
 Rotational constants (GHZ):          10.33864     5.62246     3.64189
 Zero-point vibrational energy     158649.1 (Joules/Mol)
                                   37.91805 (Kcal/Mol)
 Warning -- explicit consideration of   6 degrees of freedom as
           vibrations may cause significant error
 Vibrational temperatures:    150.97   272.44   497.53   589.77   803.57
          (Kelvin)            819.15   927.70  1091.69  1100.12  1263.60
                             1378.91  1505.01  1606.54  1801.09  1859.54
                             2127.30  2260.81  4439.62  4497.42  4579.06
                             4590.33

 Zero-point correction=                           0.060426 (Hartree/Particle)
 Thermal correction to Energy=                    0.066097
 Thermal correction to Enthalpy=                  0.067041
 Thermal correction to Gibbs Free Energy=         0.031175
 Sum of electronic and zero-point Energies=           -192.664765
 Sum of electronic and thermal Energies=              -192.659095
 Sum of electronic and thermal Enthalpies=            -192.658150
 Sum of electronic and thermal Free Energies=         -192.694016

                     E (Thermal)             CV                S
                      KCal/Mol        Cal/Mol-Kelvin    Cal/Mol-Kelvin
 Total                   41.476             19.399             75.487
 Electronic               0.000              0.000              2.183
 Translational            0.889              2.981             38.389
 Rotational               0.889              2.981             24.833
 Vibrational             39.699             13.437             10.082
 Vibration     1          0.605              1.945              3.361
 Vibration     2          0.633              1.855              2.234
 Vibration     3          0.724              1.584              1.185
 Vibration     4          0.774              1.449              0.927
 Vibration     5          0.914              1.121              0.527
 Vibration     6          0.925              1.098              0.506

 Optimization completed.
    -- Stationary point found.
 Normal termination of Gaussian 09 at Thu Jan 31 07:15:48 2019.
