 Gaussian 09, Revision E.01,
 Gaussian 09:  EM64L-G09RevE.01 30-Nov-2015

 ---------------------------------------------
 #p b3lyp/6-311++G(3df,2p) freq symmetry=Loose
 ---------------------------------------------

 ---------
 b3lyp opt
 ---------
 Symbolic Z-matrix:
 Charge =  2 Multiplicity = 1

                         Standard orientation:
 ---------------------------------------------------------------------
 Center     Atomic      Atomic             Coordinates (Angstroms)
 Number     Number       Type             X           Y           Z
 ---------------------------------------------------------------------
      1          6           0        0.851839   -1.982636   -0.000000
      2          1           0       -0.150467   -2.396542   -0.000000
      3          1           0        1.534860   -2.421058    0.792812
      4          1           0        1.534860   -2.421058   -0.792812
      5          6           0       -0.000000    0.365834    0.000000
      6          6           0       -0.882716    1.226094    0.000000
      7          6           0       -1.842386    2.215475    0.000000
      8          6           0        1.043927   -0.591323   -0.000000
      9          1           0        2.056764   -0.162002   -0.000000
 ---------------------------------------------------------------------

 SCF Done:  E(RB3LYP) =  -191.888759262     A.U. after   14 cycles

 The electronic state is 1-A'.
 Alpha  occ. eigenvalues --  -10.79287 -10.75248 -10.75111 -10.69059 -10.62977
 Alpha  occ. eigenvalues --   -1.32226  -1.26606  -1.18094  -1.11401  -0.98137
 Alpha  occ. eigenvalues --   -0.91736  -0.86442  -0.84010  -0.80920  -0.80623
 Alpha  occ. eigenvalues --   -0.77082
 Alpha virt. eigenvalues --   -0.65081  -0.60101  -0.53449  -0.38115  -0.34040
 Alpha virt. eigenvalues --   -0.33250  -0.29462  -0.28938  -0.28671  -0.28315
 Alpha virt. eigenvalues --   -0.25078  -0.24522  -0.22428  -0.21413  -0.20180

 Mulliken charges:
               1
     1  C   -0.379735
     2  H    0.256358
     3  H    0.300312
     4  H    0.300312
     5  C    0.096417
     6  C    1.158349
     7  C   -0.039513
     8  C    0.019933
     9  H    0.287567
 Sum of Mulliken charges =   2.00000

 Dipole moment (field-independent basis, Debye):
    X=              2.0918    Y=             -1.6866    Z=             -0.0000  Tot=              2.6870
 Quadrupole moment (field-independent basis, Debye-Ang):
   XX=             -6.6250   YY=              3.9728   ZZ=            -23.2268
   XY=            -17.5773   XZ=             -0.0000   YZ=              0.0000

  Exact polarizability:  60.387 -34.431  83.613   0.000  -0.000  30.407
 Approx polarizability: 126.331 -91.744 172.063  -0.000   0.000  46.425

                      1                      2                      3
                     A'                     A"                     A"
 Frequencies --    112.6949               119.1842               185.7294
 Red. masses --      5.8375                 3.6674                 1.3093
 Frc consts  --      0.0437                 0.0307                 0.0266
 IR Inten    --      0.2778                 2.1549                38.4298

                      4                      5                      6
                     A'                     A"                     A'
 Frequencies --    247.9098               361.0143               562.2969
 Red. masses --      4.8377                 5.0370                 5.4695
 Frc consts  --      0.1752                 0.3868                 1.0189
 IR Inten    --      0.6588                 0.3538                 3.1765

                      7                      8                      9
                     A"                     A'                     A'
 Frequencies --    717.0513               729.2594               906.7190
 Red. masses --      1.1020                 2.6696                 1.4237
 Frc consts  --      0.3339                 0.8365                 0.6896
 IR Inten    --     10.7118                82.0685               618.7164

                     10                     11                     12
                     A"                     A'                     A'
 Frequencies --    963.9126              1027.0014              1223.9999
 Red. masses --      1.9593                 1.2783                 3.7910
 Frc consts  --      1.0726                 0.7944                 3.3463
 IR Inten    --      2.6056               272.8820               174.8171

                     13                     14                     15
                     A"                     A'                     A'
 Frequencies --   1247.0578              1262.6555              1352.1877
 Red. masses --      1.0698                 2.1379                 1.4664
 Frc consts  --      0.9802                 2.0082                 1.5797
 IR Inten    --     38.5765               327.8771                84.1525

                     16                     17                     18
                     A'                     A'                     A"
 Frequencies --   1491.7409              2183.4458              2634.0090
 Red. masses --      1.6351                11.9546                 1.0638
 Frc consts  --      2.1438                33.5791                 4.3485
 IR Inten    --     24.5363               581.7008               169.7259

                     19                     20                     21
                     A'                     A'                     A'
 Frequencies --   2727.0357              3027.3576              3176.8264
 Red. masses --      1.0636                 1.0893                 1.0981
 Frc consts  --      4.6601                 5.8823                 6.5295
 IR Inten    --    863.0568               143.4785                46.4386

 - Thermochemistry -
 -------------------
 Temperature   298.150 Kelvin.  Pressure   1.00000 Atm.
 Atom     1 has atomic number  6 and mass  12.00000

 Molecular mass:    64.03130 amu.
 Principal axes and moments of inertia in atomic units:
                           1         2         3
     Eigenvalues --    45.79950 774.67061 811.42147
           X           -0.58128   0.81371   0.00000
           Y            0.81371   0.58128   0.00000
           Z           -0.00000  -0.00000   1.00000
 This molecule is an asymmetric top.
 Rotational symmetry number  1.
 Rotational temperatures (Kelvin)      1.89115     0.11181     0.10674
 Rotational constants (GHZ):          39.40526     2.32969     2.22417
 Zero-point vibrational energy     157064.2 (Joules/Mol)
                                   37.53925 (Kcal/Mol)
 Warning -- explicit consideration of   6 degrees of freedom as
           vibrations may cause significant error
 Vibrational temperatures:    162.14   171.48   267.22   356.69   519.42
          (Kelvin)            809.02  1031.68  1049.24  1304.56  1386.85
                             1477.62  1761.06  1794.24  1816.68  1945.49
                             2146.28  3141.49  3789.75  3923.59  4355.69
                             4570.74

 Zero-point correction=                           0.059823 (Hartree/Particle)
 Thermal correction to Energy=                    0.066061
 Thermal correction to Enthalpy=                  0.067005
 Thermal correction to Gibbs Free Energy=         0.030766
 Sum of electronic and zero-point Energies=           -191.828937
 Sum of electronic and thermal Energies=              -191.822699
 Sum of electronic and thermal Enthalpies=            -191.821755
 Sum of electronic and thermal Free Energies=         -191.857994

                     E (Thermal)             CV                S
                      KCal/Mol        Cal/Mol-Kelvin    Cal/Mol-Kelvin
 Total                   41.454             19.697             76.272
 Electronic               0.000              0.000              0.000
 Translational            0.889              2.981             38.389
 Rotational               0.889              2.981             24.869
 Vibrational             39.676             13.735             13.014
 Vibration     1          0.607              1.939              3.222
 Vibration     2          0.609              1.933              3.114
 Vibration     3          0.632              1.859              2.270
 Vibration     4          0.662              1.766              1.745
 Vibration     5          0.735              1.553              1.118
 Vibration     6          0.918              1.113              0.519

 Normal termination of Gaussian 09 at Tue Jul 19 20:59:31 2016.
