 Gaussian 09, Revision E.01,
 Gaussian 09:  EM64L-G09RevE.01 30-Nov-2015

 ---------------------------------------------
 #p b3lyp/6-311++G(3df,2p) freq symmetry=Loose
 ---------------------------------------------

 ---------
 b3lyp opt
 ---------
 Symbolic Z-matrix:
 Charge =  3 Multiplicity = 4

                         Standard orientation:
 ---------------------------------------------------------------------
 Center     Atomic      Atomic             Coordinates (Angstroms)
 Number     Number       Type             X           Y           Z
 ---------------------------------------------------------------------
      1          6           0        0.000000    0.000000   -1.321762
      2          1           0        0.000000    0.586886   -2.390576
      3          1           0       -0.000000   -0.586886   -2.390576
      4          6           0       -1.053118    0.000000   -0.330054
      5          6           0        1.053118   -0.000000   -0.330054
      6          1           0        2.159177   -0.000000   -0.338234
      7          6           0       -0.000000    0.000000    0.733665
      8          6           0       -0.000000    0.000000    2.157812
      9          1           0       -2.159177    0.000000   -0.338234
 ---------------------------------------------------------------------

 SCF Done:  E(UB3LYP) =  -190.981910709     A.U. after   16 cycles

 The electronic state is 4-A2.
 Alpha  occ. eigenvalues --  -11.03750 -10.99773 -10.99382 -10.99379 -10.96812
 Alpha  occ. eigenvalues --   -1.64716  -1.48578  -1.37949  -1.37735  -1.21656
 Alpha  occ. eigenvalues --   -1.19243  -1.16252  -1.13330  -1.10028  -1.07748
 Alpha  occ. eigenvalues --   -1.01845  -0.94827
 Alpha virt. eigenvalues --   -0.83409  -0.82658  -0.67679  -0.58617  -0.54686
 Alpha virt. eigenvalues --   -0.53614  -0.52473  -0.50721  -0.48364  -0.43893
 Alpha virt. eigenvalues --   -0.42676  -0.41213  -0.40570  -0.39980  -0.38492

  Beta  occ. eigenvalues --  -10.99535 -10.99371 -10.99370 -10.98794 -10.96297
  Beta  occ. eigenvalues --   -1.63520  -1.43119  -1.37506  -1.33997  -1.21623
  Beta  occ. eigenvalues --   -1.15651  -1.14879  -1.09900  -1.09433
  Beta virt. eigenvalues --   -0.90196  -0.83530  -0.83259  -0.77152  -0.73839
  Beta virt. eigenvalues --   -0.61282  -0.57508  -0.52918  -0.51930  -0.50517
  Beta virt. eigenvalues --   -0.50435  -0.48120  -0.43068  -0.42448  -0.40188

 Mulliken charges and spin densities:
               1          2
     1  C   -0.103408   0.333456
     2  H    0.291034   0.064870
     3  H    0.291034   0.064870
     4  C    0.336327   0.011809
     5  C    0.336327   0.011809
     6  H    0.427502   0.000480
     7  C    0.447654   0.549857
     8  C    0.546029   1.962367
     9  H    0.427502   0.000480
 Sum of Mulliken charges =   3.00000   3.00000

 Dipole moment (field-independent basis, Debye):
    X=             -0.0000    Y=             -0.0000    Z=             -2.9491  Tot=              2.9491
 Quadrupole moment (field-independent basis, Debye-Ang):
   XX=             -6.1209   YY=            -20.7209   ZZ=             19.0719
   XY=             -0.0000   XZ=              0.0000   YZ=              0.0000

  Exact polarizability:  37.716   0.000  23.689  -0.000   0.000  69.534
 Approx polarizability:  59.396  -0.000  37.065  -0.000  -0.000 128.876

                      1                      2                      3
                     B2                     B2                     B1
 Frequencies --     98.4908               385.0725               392.8557
 Red. masses --      2.1095                 2.5075                 4.8547
 Frc consts  --      0.0121                 0.2191                 0.4414
 IR Inten    --      5.6016                58.6918                 2.9787

                      4                      5                      6
                     B2                     A2                     A1
 Frequencies --    577.6848               600.3022               660.4900
 Red. masses --      1.5679                 1.0087                 3.3651
 Frc consts  --      0.3083                 0.2142                 0.8649
 IR Inten    --    105.8052                 0.0000               386.8946

                      7                      8                      9
                     A1                     B1                     A1
 Frequencies --    742.5404               822.4015               893.2911
 Red. masses --      1.6932                 1.2819                 2.0349
 Frc consts  --      0.5501                 0.5108                 0.9567
 IR Inten    --    435.1328                17.6176               176.8191

                     10                     11                     12
                     B2                     B1                     A2
 Frequencies --    999.5452              1019.2037              1048.5156
 Red. masses --      2.0648                 6.0317                 1.3455
 Frc consts  --      1.2154                 3.6916                 0.8715
 IR Inten    --      0.5435                25.4364                 0.0000

                     13                     14                     15
                     A1                     B1                     B1
 Frequencies --   1084.5126              1187.5263              1262.6913
 Red. masses --      2.4269                 1.3796                 4.2004
 Frc consts  --      1.6818                 1.1462                 3.9458
 IR Inten    --      0.4160                11.5344               247.3426

                     16                     17                     18
                     A1                     A1                     B2
 Frequencies --   1275.3028              1283.3519              1904.3955
 Red. masses --      2.0642                 5.1521                 1.0344
 Frc consts  --      1.9781                 4.9995                 2.2103
 IR Inten    --     18.9319               144.7329               324.4917

                     19                     20                     21
                     A1                     B1                     A1
 Frequencies --   2299.9175              3004.1178              3009.2388
 Red. masses --      1.1392                 1.1064                 1.1143
 Frc consts  --      3.5504                 5.8830                 5.9450
 IR Inten    --    970.7900               420.6143                 4.2567

 - Thermochemistry -
 -------------------
 Temperature   298.150 Kelvin.  Pressure   1.00000 Atm.
 Atom     1 has atomic number  6 and mass  12.00000

 Molecular mass:    64.03130 amu.
 Principal axes and moments of inertia in atomic units:
                           1         2         3
     Eigenvalues --   131.08904 349.60077 475.73131
           X            0.00000   1.00000   0.00000
           Y            0.00000  -0.00000   1.00000
           Z            1.00000   0.00000  -0.00000
 This molecule is an asymmetric top.
 Rotational symmetry number  2.
 Rotational temperatures (Kelvin)      0.66073     0.24775     0.18206
 Rotational constants (GHZ):          13.76729     5.16229     3.79361
 Zero-point vibrational energy     146850.3 (Joules/Mol)
                                   35.09806 (Kcal/Mol)
 Warning -- explicit consideration of   5 degrees of freedom as
           vibrations may cause significant error
 Vibrational temperatures:    141.71   554.03   565.23   831.16   863.70
          (Kelvin)            950.30  1068.35  1183.25  1285.25  1438.12
                             1466.40  1508.58  1560.37  1708.58  1816.73
                             1834.87  1846.45  2740.00  3309.06  4322.25
                             4329.62

 Zero-point correction=                           0.055932 (Hartree/Particle)
 Thermal correction to Energy=                    0.061013
 Thermal correction to Enthalpy=                  0.061958
 Thermal correction to Gibbs Free Energy=         0.027653
 Sum of electronic and zero-point Energies=           -190.925978
 Sum of electronic and thermal Energies=              -190.920897
 Sum of electronic and thermal Enthalpies=            -190.919953
 Sum of electronic and thermal Free Energies=         -190.954258

                     E (Thermal)             CV                S
                      KCal/Mol        Cal/Mol-Kelvin    Cal/Mol-Kelvin
 Total                   38.286             17.864             72.200
 Electronic               0.000              0.000              2.755
 Translational            0.889              2.981             38.389
 Rotational               0.889              2.981             23.215
 Vibrational             36.509             11.903              7.841
 Vibration     1          0.604              1.950              3.484
 Vibration     2          0.754              1.502              1.019
 Vibration     3          0.760              1.485              0.989
 Vibration     4          0.934              1.080              0.490
 Vibration     5          0.958              1.031              0.449

 Optimization completed.
    -- Stationary point found.
 Normal termination of Gaussian 09 at Wed Jul 20 15:13:06 2016.
