 Gaussian 09, Revision E.01,
 Gaussian 09:  EM64L-G09RevE.01 30-Nov-2015

 ---------------------------------------------
 #p b3lyp/6-311++G(3df,2p) freq symmetry=Loose
 ---------------------------------------------

 ---------
 b3lyp opt
 ---------
 Symbolic Z-matrix:
 Charge =  1 Multiplicity = 4

                         Standard orientation:
 ---------------------------------------------------------------------
 Center     Atomic      Atomic             Coordinates (Angstroms)
 Number     Number       Type             X           Y           Z
 ---------------------------------------------------------------------
      1          6           0        2.463805    0.168138    0.005659
      2          1           0        2.876293    1.164926   -0.125794
      3          1           0        3.154441   -0.659618    0.142266
      4          6           0        1.143244   -0.032791   -0.002095
      5          6           0       -0.093729   -0.239371   -0.013432
      6          6           0       -2.407827    0.762393   -0.003137
      7          6           0       -1.484554   -0.428112   -0.025387
      8          1           0       -1.897441   -0.733385    0.977919
      9          1           0       -1.858927   -1.153461   -0.764048
 ---------------------------------------------------------------------

 SCF Done:  E(UB3LYP) =  -192.356781906     A.U. after   24 cycles

 The electronic state is 4-A.
 Alpha  occ. eigenvalues --  -10.51457 -10.46620 -10.45701 -10.45528 -10.41536
 Alpha  occ. eigenvalues --   -1.08252  -1.02728  -0.94163  -0.83301  -0.73983
 Alpha  occ. eigenvalues --   -0.70695  -0.70355  -0.67237  -0.58545  -0.57570
 Alpha  occ. eigenvalues --   -0.51818  -0.46505  -0.43623
 Alpha virt. eigenvalues --   -0.33922  -0.22839  -0.16804  -0.15819  -0.13196
 Alpha virt. eigenvalues --   -0.11268  -0.10191  -0.08941  -0.08593  -0.06901
 Alpha virt. eigenvalues --   -0.06234  -0.04802  -0.04275  -0.03710  -0.03280

  Beta  occ. eigenvalues --  -10.49161 -10.46570 -10.45499 -10.44396 -10.40557
  Beta  occ. eigenvalues --   -1.05709  -1.00304  -0.90820  -0.79570  -0.71400
  Beta  occ. eigenvalues --   -0.69324  -0.68982  -0.65298  -0.54315  -0.51228
  Beta virt. eigenvalues --   -0.42186  -0.32333  -0.29931  -0.28353  -0.19788
  Beta virt. eigenvalues --   -0.15629  -0.14088  -0.12700  -0.11069  -0.09797
  Beta virt. eigenvalues --   -0.08386  -0.08174  -0.06460  -0.04881  -0.04263

 Mulliken charges and spin densities:
               1          2
     1  C   -0.428770   0.678772
     2  H    0.239446   0.011891
     3  H    0.245907   0.009518
     4  C    0.472691   0.099643
     5  C    0.438975   0.623254
     6  C   -0.142716   1.440550
     7  C   -0.330428   0.053902
     8  H    0.257827   0.024977
     9  H    0.247069   0.057494
 Sum of Mulliken charges =   1.00000   3.00000

 Dipole moment (field-independent basis, Debye):
    X=              0.1248    Y=             -0.9969    Z=              0.1867  Tot=              1.0219
 Quadrupole moment (field-independent basis, Debye-Ang):
   XX=             -4.2350   YY=            -24.6732   ZZ=            -26.7151
   XY=              3.5151   XZ=             -0.4850   YZ=             -0.6419

  Exact polarizability: 163.470 -15.774  46.237  -1.392   0.346  35.309
 Approx polarizability: 328.823 -50.842  79.419  -0.200  -1.685  52.401

                      1                      2                      3
                      A                      A                      A
 Frequencies --    129.1681               139.6142               301.2676
 Red. masses --      4.1467                 3.1208                 1.1919
 Frc consts  --      0.0408                 0.0358                 0.0637
 IR Inten    --      5.2041                 9.4138                 0.7934

                      4                      5                      6
                      A                      A                      A
 Frequencies --    341.6970               384.9857               419.2246
 Red. masses --      2.8546                 3.6149                 1.8416
 Frc consts  --      0.1964                 0.3157                 0.1907
 IR Inten    --      3.7570                 0.5156                 4.3183

                      7                      8                      9
                      A                      A                      A
 Frequencies --    533.8258               742.9567               784.2007
 Red. masses --      6.1282                 1.3443                 4.4512
 Frc consts  --      1.0289                 0.4372                 1.6128
 IR Inten    --      3.1588                49.8558                 3.3221

                     10                     11                     12
                      A                      A                      A
 Frequencies --    876.7364               918.5708              1008.6228
 Red. masses --      3.9245                 1.6416                 1.2969
 Frc consts  --      1.7774                 0.8161                 0.7774
 IR Inten    --     11.3589                 3.2687                12.5744

                     13                     14                     15
                      A                      A                      A
 Frequencies --   1120.8581              1269.7844              1321.7345
 Red. masses --      1.1463                 1.2956                 1.5524
 Frc consts  --      0.8485                 1.2308                 1.5979
 IR Inten    --     66.1085                28.0830                14.7476

                     16                     17                     18
                      A                      A                      A
 Frequencies --   1399.8585              1959.6008              2766.8613
 Red. masses --      2.0032                11.7555                 1.0690
 Frc consts  --      2.3128                26.5966                 4.8218
 IR Inten    --    104.8464               732.5988                89.4396

                     19                     20                     21
                      A                      A                      A
 Frequencies --   2973.4366              3090.3832              3180.1083
 Red. masses --      1.0814                 1.0507                 1.1139
 Frc consts  --      5.6330                 5.9125                 6.6372
 IR Inten    --     50.1502               272.6628                50.7753

 - Thermochemistry -
 -------------------
 Temperature   298.150 Kelvin.  Pressure   1.00000 Atm.
 Atom     1 has atomic number  6 and mass  12.00000

 Molecular mass:    64.03130 amu.
 Principal axes and moments of inertia in atomic units:
                           1         2         3
     Eigenvalues --    54.84399 756.21073 799.64914
           X            0.99971   0.02403  -0.00178
           Y           -0.02404   0.99968  -0.00725
           Z            0.00161   0.00729   0.99997
 This molecule is an asymmetric top.
 Rotational symmetry number  1.
 Rotational temperatures (Kelvin)      1.57928     0.11454     0.10831
 Rotational constants (GHZ):          32.90682     2.38656     2.25692
 Zero-point vibrational energy     153501.8 (Joules/Mol)
                                   36.68781 (Kcal/Mol)
 Warning -- explicit consideration of   7 degrees of freedom as
           vibrations may cause significant error
 Vibrational temperatures:    185.84   200.87   433.46   491.63   553.91
          (Kelvin)            603.17   768.06  1068.95  1128.29  1261.43
                             1321.62  1451.18  1612.66  1826.93  1901.68
                             2014.08  2819.42  3980.89  4278.11  4446.37
                             4575.46

 Zero-point correction=                           0.058466 (Hartree/Particle)
 Thermal correction to Energy=                    0.064624
 Thermal correction to Enthalpy=                  0.065568
 Thermal correction to Gibbs Free Energy=         0.028501
 Sum of electronic and zero-point Energies=           -192.298316
 Sum of electronic and thermal Energies=              -192.292158
 Sum of electronic and thermal Enthalpies=            -192.291214
 Sum of electronic and thermal Free Energies=         -192.328281

                     E (Thermal)             CV                S
                      KCal/Mol        Cal/Mol-Kelvin    Cal/Mol-Kelvin
 Total                   40.552             20.655             78.013
 Electronic               0.000              0.000              2.755
 Translational            0.889              2.981             38.389
 Rotational               0.889              2.981             25.009
 Vibrational             38.774             14.694             11.860
 Vibration     1          0.612              1.924              2.958
 Vibration     2          0.615              1.914              2.809
 Vibration     3          0.693              1.671              1.410
 Vibration     4          0.721              1.592              1.204
 Vibration     5          0.754              1.502              1.020
 Vibration     6          0.782              1.428              0.895
 Vibration     7          0.889              1.175              0.579

 Optimization completed.
    -- Stationary point found.
 Normal termination of Gaussian 09 at Mon Jun 20 05:33:52 2016.
