 Gaussian 09, Revision E.01,
 Gaussian 09:  EM64L-G09RevE.01 30-Nov-2015

 ---------------------------------------------
 #p b3lyp/6-311++G(3df,2p) freq symmetry=Loose
 ---------------------------------------------

 ---------
 b3lyp opt
 ---------
 Symbolic Z-matrix:
 Charge =  0 Multiplicity = 1

                         Standard orientation:
 ---------------------------------------------------------------------
 Center     Atomic      Atomic             Coordinates (Angstroms)
 Number     Number       Type             X           Y           Z
 ---------------------------------------------------------------------
      1          6           0        0.483353   -1.032258   -0.000000
      2          6           0        0.000000    0.268140    0.000000
      3          6           0        0.176231    1.551868    0.000000
      4          1           0        1.210482   -3.177788   -0.000000
      5          1           0        0.858233    2.382680   -0.000000
      6          6           0       -1.255697    1.120618    0.000000
      7          1           0       -1.842574    1.193663    0.913040
      8          1           0       -1.842574    1.193663   -0.913040
      9          6           0        0.865518   -2.173738   -0.000000
 ---------------------------------------------------------------------

 SCF Done:  E(RB3LYP) =  -192.840482976     A.U. after   12 cycles

 The electronic state is 1-A'.
 Alpha  occ. eigenvalues --  -10.21420 -10.20140 -10.19478 -10.19355 -10.18357
 Alpha  occ. eigenvalues --   -0.89397  -0.77418  -0.64831  -0.60701  -0.54206
 Alpha  occ. eigenvalues --   -0.52187  -0.45619  -0.38975  -0.33613  -0.33410
 Alpha  occ. eigenvalues --   -0.27792  -0.25015
 Alpha virt. eigenvalues --   -0.05130  -0.00217   0.00424   0.00892   0.01813
 Alpha virt. eigenvalues --    0.02868   0.04328   0.05814   0.07252   0.07656
 Alpha virt. eigenvalues --    0.08168   0.08490   0.09129   0.11105   0.11430

 Mulliken charges:
               1
     1  C   -0.725037
     2  C   -0.186456
     3  C    0.314486
     4  H    0.306141
     5  H    0.254711
     6  C   -0.589483
     7  H    0.143810
     8  H    0.143810
     9  C    0.338018
 Sum of Mulliken charges =  -0.00000

 Dipole moment (field-independent basis, Debye):
    X=              0.2346    Y=              0.2569    Z=             -0.0000  Tot=              0.3479
 Quadrupole moment (field-independent basis, Debye-Ang):
   XX=            -29.4485   YY=            -23.4287   ZZ=            -30.7761
   XY=             -0.9994   XZ=              0.0000   YZ=             -0.0000

  Exact polarizability:  54.344 -14.713  90.264   0.000   0.000  39.222
 Approx polarizability:  76.041 -23.828 161.646   0.000  -0.000  55.455

                      1                      2                      3
                     A'                     A"                     A"
 Frequencies --    195.5301               207.0380               478.3636
 Red. masses --      3.4849                 3.2000                 3.2710
 Frc consts  --      0.0785                 0.0808                 0.4410
 IR Inten    --      2.6704                 9.0201                 3.0512

                      4                      5                      6
                     A'                     A'                     A'
 Frequencies --    515.2797               648.3391               656.1164
 Red. masses --      5.1202                 2.5559                 1.5663
 Frc consts  --      0.8010                 0.6330                 0.3973
 IR Inten    --      8.0902                15.6730                33.5793

                      7                      8                      9
                     A"                     A"                     A'
 Frequencies --    669.5797               753.5637               957.3491
 Red. masses --      1.2857                 1.5131                 1.8920
 Frc consts  --      0.3396                 0.5062                 1.0217
 IR Inten    --     40.5072                33.7963                16.1567

                     10                     11                     12
                     A"                     A'                     A'
 Frequencies --   1004.1809              1007.5825              1070.2047
 Red. masses --      1.1510                 2.9831                 1.3507
 Frc consts  --      0.6839                 1.7843                 0.9115
 IR Inten    --      0.0670                 3.6364                21.8444

                     13                     14                     15
                     A"                     A'                     A'
 Frequencies --   1098.5259              1150.7620              1520.7499
 Red. masses --      1.2828                 4.5525                 1.0932
 Frc consts  --      0.9121                 3.5520                 1.4896
 IR Inten    --      0.8196                 0.8692                 7.7113

                     16                     17                     18
                     A'                     A'                     A'
 Frequencies --   1802.8918              2201.6619              3039.6571
 Red. masses --      7.0905                 6.3285                 1.0469
 Frc consts  --     13.5790                18.0739                 5.6991
 IR Inten    --     10.9584                13.1395                72.2888

                     19                     20                     21
                     A"                     A'                     A'
 Frequencies --   3107.1089              3264.0290              3462.4002
 Red. masses --      1.1178                 1.1138                 1.1561
 Frc consts  --      6.3582                 6.9914                 8.1657
 IR Inten    --     33.0627                 1.3502                94.6326

 - Thermochemistry -
 -------------------
 Temperature   298.150 Kelvin.  Pressure   1.00000 Atm.
 Atom     1 has atomic number  6 and mass  12.00000

 Molecular mass:    64.03130 amu.
 Principal axes and moments of inertia in atomic units:
                           1         2         3
     Eigenvalues --    75.63097 554.73996 618.36978
           X           -0.39195   0.91999   0.00000
           Y            0.91999   0.39195   0.00000
           Z           -0.00000   0.00000   1.00000
 This molecule is an asymmetric top.
 Rotational symmetry number  1.
 Rotational temperatures (Kelvin)      1.14522     0.15613     0.14007
 Rotational constants (GHZ):          23.86246     3.25331     2.91855
 Zero-point vibrational energy     172327.5 (Joules/Mol)
                                   41.18727 (Kcal/Mol)
 Warning -- explicit consideration of   4 degrees of freedom as
           vibrations may cause significant error
 Vibrational temperatures:    281.32   297.88   688.26   741.37   932.81
          (Kelvin)            944.00   963.37  1084.21  1377.41  1444.79
                             1449.68  1539.78  1580.53  1655.69  2188.02
                             2593.96  3167.70  4373.38  4470.43  4696.20
                             4981.62

 Zero-point correction=                           0.065636 (Hartree/Particle)
 Thermal correction to Energy=                    0.070720
 Thermal correction to Enthalpy=                  0.071664
 Thermal correction to Gibbs Free Energy=         0.038141
 Sum of electronic and zero-point Energies=           -192.774847
 Sum of electronic and thermal Energies=              -192.769763
 Sum of electronic and thermal Enthalpies=            -192.768819
 Sum of electronic and thermal Free Energies=         -192.802342

                     E (Thermal)             CV                S
                      KCal/Mol        Cal/Mol-Kelvin    Cal/Mol-Kelvin
 Total                   44.378             17.713             70.555
 Electronic               0.000              0.000              0.000
 Translational            0.889              2.981             38.389
 Rotational               0.889              2.981             24.765
 Vibrational             42.600             11.751              7.401
 Vibration     1          0.636              1.846              2.175
 Vibration     2          0.641              1.830              2.070
 Vibration     3          0.835              1.298              0.714
 Vibration     4          0.870              1.216              0.621

 Optimization completed.
    -- Stationary point found.
 Normal termination of Gaussian 09 at Wed Jul 20 01:40:45 2016.
