 Gaussian 09, Revision E.01,
 Gaussian 09:  EM64L-G09RevE.01 30-Nov-2015

 ---------------------------------------------
 #p b3lyp/6-311++G(3df,2p) freq symmetry=Loose
 ---------------------------------------------

 ---------
 b3lyp opt
 ---------
 Symbolic Z-matrix:
 Charge =  3 Multiplicity = 4

                         Standard orientation:
 ---------------------------------------------------------------------
 Center     Atomic      Atomic             Coordinates (Angstroms)
 Number     Number       Type             X           Y           Z
 ---------------------------------------------------------------------
      1          6           0       -1.628761    0.999053   -0.089334
      2          6           0       -0.402429   -0.233514    0.041483
      3          6           0        0.968070   -0.482727    0.001603
      4          1           0        1.186866   -1.597096    0.013954
      5          6           0        2.162490    0.326985    0.003150
      6          1           0        2.373407    1.092962    0.783664
      7          1           0        2.953126    0.127089   -0.757435
      8          6           0       -1.746678   -0.366709    0.021060
      9          1           0       -2.629550   -1.081478    0.092047
 ---------------------------------------------------------------------

 SCF Done:  E(UB3LYP) =  -191.039988116     A.U. after   16 cycles

 The electronic state is 4-A.
 Alpha  occ. eigenvalues --  -11.07419 -11.02210 -10.97788 -10.96913 -10.96454
 Alpha  occ. eigenvalues --   -1.64813  -1.52052  -1.38631  -1.27725  -1.24665
 Alpha  occ. eigenvalues --   -1.19374  -1.14794  -1.12120  -1.10251  -1.09114
 Alpha  occ. eigenvalues --   -1.01069  -0.97827
 Alpha virt. eigenvalues --   -0.82397  -0.75560  -0.70427  -0.66168  -0.53762
 Alpha virt. eigenvalues --   -0.50945  -0.48228  -0.46943  -0.44730  -0.43238
 Alpha virt. eigenvalues --   -0.41572  -0.40900  -0.40217  -0.38910  -0.37564

  Beta  occ. eigenvalues --  -11.04031 -11.01589 -10.97419 -10.96710 -10.95584
  Beta  occ. eigenvalues --   -1.61345  -1.49232  -1.36513  -1.22020  -1.21191
  Beta  occ. eigenvalues --   -1.17367  -1.12876  -1.09886  -1.06832
  Beta virt. eigenvalues --   -0.90126  -0.87017  -0.85871  -0.79096  -0.69853
  Beta virt. eigenvalues --   -0.63723  -0.61986  -0.51430  -0.49963  -0.47348
  Beta virt. eigenvalues --   -0.45655  -0.43552  -0.42604  -0.40294  -0.40054

 Mulliken charges and spin densities:
               1          2
     1  C    0.423349   1.701640
     2  C    0.449663   0.281359
     3  C    0.212839   0.458976
     4  H    0.330277   0.039922
     5  C    0.032324   0.118985
     6  H    0.340280   0.022862
     7  H    0.341632   0.020618
     8  C    0.443752   0.236122
     9  H    0.425884   0.119515
 Sum of Mulliken charges =   3.00000   3.00000

 Dipole moment (field-independent basis, Debye):
    X=              1.3141    Y=              0.2316    Z=             -0.0445  Tot=              1.3351
 Quadrupole moment (field-independent basis, Debye-Ang):
   XX=             34.0817   YY=             -9.7026   ZZ=            -21.4428
   XY=              2.0106   XZ=             -0.3935   YZ=              0.1963

  Exact polarizability:  82.630  -1.585  37.549  -0.527   0.274  24.343
 Approx polarizability: 136.301 -14.310  71.274   0.228  -1.168  35.305

                      1                      2                      3
                      A                      A                      A
 Frequencies --    122.4145               206.0029               241.3780
 Red. masses --      2.2558                 3.0018                 2.0105
 Frc consts  --      0.0199                 0.0751                 0.0690
 IR Inten    --     88.4870                14.8083                41.3272

                      4                      5                      6
                      A                      A                      A
 Frequencies --    304.3864               418.3190               508.7274
 Red. masses --      3.3189                 3.2805                 3.9101
 Frc consts  --      0.1812                 0.3382                 0.5962
 IR Inten    --     17.6591                53.9051                 7.4144

                      7                      8                      9
                      A                      A                      A
 Frequencies --    646.5649               715.3135               766.0576
 Red. masses --      1.4164                 1.2759                 2.7909
 Frc consts  --      0.3489                 0.3847                 0.9650
 IR Inten    --     76.7888                35.1043                 2.6478

                     10                     11                     12
                      A                      A                      A
 Frequencies --    931.2101               942.9279              1033.0246
 Red. masses --      1.3348                 1.4594                 1.6506
 Frc consts  --      0.6820                 0.7645                 1.0378
 IR Inten    --     47.8942                55.3076                34.1393

                     13                     14                     15
                      A                      A                      A
 Frequencies --   1143.9346              1206.0341              1290.4746
 Red. masses --      1.9772                 3.3851                 2.2701
 Frc consts  --      1.5244                 2.9010                 2.2274
 IR Inten    --     14.2564                72.8401                99.3779

                     16                     17                     18
                      A                      A                      A
 Frequencies --   1349.5304              1587.2043              2624.3789
 Red. masses --      1.1046                 7.6828                 1.1016
 Frc consts  --      1.1853                11.4035                 4.4703
 IR Inten    --     96.5478                13.0824               664.2331

                     19                     20                     21
                      A                      A                      A
 Frequencies --   2668.2301              2834.0292              2942.8928
 Red. masses --      1.0966                 1.0457                 1.1226
 Frc consts  --      4.5999                 4.9486                 5.7283
 IR Inten    --    703.2936               448.8589               244.3654

 - Thermochemistry -
 -------------------
 Temperature   298.150 Kelvin.  Pressure   1.00000 Atm.
 Atom     1 has atomic number  6 and mass  12.00000

 Molecular mass:    64.03130 amu.
 Principal axes and moments of inertia in atomic units:
                           1         2         3
     Eigenvalues --    87.42510 577.75839 655.84213
           X            0.99961   0.02779  -0.00303
           Y           -0.02770   0.99922   0.02818
           Z            0.00381  -0.02809   0.99960
 This molecule is an asymmetric top.
 Rotational symmetry number  1.
 Rotational temperatures (Kelvin)      0.99072     0.14991     0.13207
 Rotational constants (GHZ):          20.64328     3.12370     2.75179
 Zero-point vibrational energy     146441.1 (Joules/Mol)
                                   35.00026 (Kcal/Mol)
 Warning -- explicit consideration of   6 degrees of freedom as
           vibrations may cause significant error
 Vibrational temperatures:    176.13   296.39   347.29   437.94   601.87
          (Kelvin)            731.94   930.26  1029.18  1102.18  1339.80
                             1356.66  1486.29  1645.86  1735.21  1856.70
                             1941.67  2283.63  3775.89  3838.98  4077.53
                             4234.16

 Zero-point correction=                           0.055776 (Hartree/Particle)
 Thermal correction to Energy=                    0.061795
 Thermal correction to Enthalpy=                  0.062740
 Thermal correction to Gibbs Free Energy=         0.025970
 Sum of electronic and zero-point Energies=           -190.984212
 Sum of electronic and thermal Energies=              -190.978193
 Sum of electronic and thermal Enthalpies=            -190.977248
 Sum of electronic and thermal Free Energies=         -191.014018

                     E (Thermal)             CV                S
                      KCal/Mol        Cal/Mol-Kelvin    Cal/Mol-Kelvin
 Total                   38.777             20.297             77.388
 Electronic               0.000              0.000              2.755
 Translational            0.889              2.981             38.389
 Rotational               0.889              2.981             25.008
 Vibrational             37.000             14.335             11.236
 Vibration     1          0.610              1.930              3.062
 Vibration     2          0.640              1.831              2.079
 Vibration     3          0.658              1.777              1.793
 Vibration     4          0.695              1.665              1.393
 Vibration     5          0.781              1.430              0.898
 Vibration     6          0.864              1.231              0.637

 Optimization completed.
    -- Stationary point found.
 Normal termination of Gaussian 09 at Mon Jun 20 12:55:11 2016.
