 Gaussian 09, Revision E.01,
 Gaussian 09:  EM64L-G09RevE.01 30-Nov-2015

 ------------------------------------------------------
 #p b3lyp/6-311++G(3df,2p) freq IOp(2/17=3) IOp(2/18=3)
 ------------------------------------------------------

 ---------
 b3lyp opt
 ---------
 Symbolic Z-matrix:
 Charge =  2 Multiplicity = 1

                         Standard orientation:
 ---------------------------------------------------------------------
 Center     Atomic      Atomic             Coordinates (Angstroms)
 Number     Number       Type             X           Y           Z
 ---------------------------------------------------------------------
      1          1           0        1.756877   -2.451403    0.000000
      2          6           0        0.000000    0.473535    0.000000
      3          1           0       -1.922677   -0.638484    0.000000
      4          1           0        0.453066    1.485540    0.000000
      5          6           0       -2.041192    1.514206    0.000000
      6          6           0        0.958474   -0.507258    0.000000
      7          6           0       -1.377751    0.312521    0.000000
      8          6           0        1.916561   -1.355203    0.000000
      9          1           0        2.976179   -1.022459    0.000000
 ---------------------------------------------------------------------

 SCF Done:  E(RB3LYP) =  -191.914609460     A.U. after   13 cycles

 The electronic state is 1-A'.
 Alpha  occ. eigenvalues --  -10.75918 -10.74896 -10.73443 -10.69333 -10.65609
 Alpha  occ. eigenvalues --   -1.33376  -1.27242  -1.18756  -1.02109  -1.00573
 Alpha  occ. eigenvalues --   -0.96068  -0.92049  -0.88670  -0.84602  -0.75574
 Alpha  occ. eigenvalues --   -0.73830
 Alpha virt. eigenvalues --   -0.59459  -0.58706  -0.54894  -0.44756  -0.37419
 Alpha virt. eigenvalues --   -0.33766  -0.30934  -0.27901  -0.26452  -0.25092
 Alpha virt. eigenvalues --   -0.24987  -0.24435  -0.21830  -0.20038  -0.19735

 Mulliken charges:
               1
     1  H    0.323755
     2  C    0.150090
     3  H    0.264401
     4  H    0.264385
     5  C    0.018401
     6  C    0.600744
     7  C    0.196736
     8  C   -0.149889
     9  H    0.331377
 Sum of Mulliken charges =   2.00000

 Dipole moment (field-independent basis, Debye):
    X=              3.0119    Y=             -2.5818    Z=              0.0000  Tot=              3.9670
 Quadrupole moment (field-independent basis, Debye-Ang):
   XX=              7.5316   YY=             -8.5868   ZZ=            -26.3492
   XY=            -13.1312   XZ=              0.0000   YZ=              0.0000

  Exact polarizability:  85.827 -31.771  57.647  -0.000   0.000  27.675
 Approx polarizability: 175.327 -75.202 107.354  -0.000  -0.000  40.656

                      1                      2                      3
                     A'                     A"                     A'
 Frequencies --    136.9974               149.0346               211.5426
 Red. masses --      4.8309                 5.4387                 3.5983
 Frc consts  --      0.0534                 0.0712                 0.0949
 IR Inten    --      1.4246                 0.5538                12.2080

                      4                      5                      6
                     A"                     A"                     A'
 Frequencies --    346.9914               401.0018               403.8220
 Red. masses --      3.2349                 1.1736                 1.7333
 Frc consts  --      0.2295                 0.1112                 0.1665
 IR Inten    --     12.4390                 1.2592                 9.0213

                      7                      8                      9
                     A'                     A"                     A"
 Frequencies --    756.7954               818.3946               891.9911
 Red. masses --      2.6771                 1.9410                 1.1406
 Frc consts  --      0.9034                 0.7659                 0.5347
 IR Inten    --      1.5002                10.2562                63.2863

                     10                     11                     12
                     A"                     A'                     A'
 Frequencies --    917.9536               943.9286              1061.7930
 Red. masses --      1.3404                 3.2642                 1.3158
 Frc consts  --      0.6655                 1.7136                 0.8740
 IR Inten    --     44.6571                 5.9187                17.3949

                     13                     14                     15
                     A'                     A'                     A'
 Frequencies --   1217.1067              1231.6023              1346.5987
 Red. masses --      1.2172                 1.2856                 4.6239
 Frc consts  --      1.0624                 1.1490                 4.9401
 IR Inten    --    105.7606               117.6544               118.3353

                     16                     17                     18
                     A'                     A'                     A'
 Frequencies --   1527.1394              1752.5601              2897.2531
 Red. masses --      5.3878                 9.6704                 1.0633
 Frc consts  --      7.4032                17.5000                 5.2588
 IR Inten    --    546.1893                52.4271               608.2949

                     19                     20                     21
                     A'                     A'                     A'
 Frequencies --   2934.1303              2957.4444              3055.2871
 Red. masses --      1.0834                 1.1041                 1.0900
 Frc consts  --      5.4955                 5.6899                 5.9950
 IR Inten    --    173.4264               264.1463               139.9215

 - Thermochemistry -
 -------------------
 Temperature   298.150 Kelvin.  Pressure   1.00000 Atm.
 Atom     1 has atomic number  1 and mass   1.00783

 Molecular mass:    64.03130 amu.
 Principal axes and moments of inertia in atomic units:
                           1         2         3
     Eigenvalues --    42.26522 707.04123 749.30644
           X            0.84159   0.54012   0.00000
           Y           -0.54012   0.84159   0.00000
           Z           -0.00000   0.00000   1.00000
 This molecule is an asymmetric top.
 Rotational symmetry number  1.
 Rotational temperatures (Kelvin)      2.04929     0.12250     0.11559
 Rotational constants (GHZ):          42.70039     2.55253     2.40855
 Zero-point vibrational energy     155271.5 (Joules/Mol)
                                   37.11078 (Kcal/Mol)
 Warning -- explicit consideration of   6 degrees of freedom as
           vibrations may cause significant error
 Vibrational temperatures:    197.11   214.43   304.36   499.24   576.95
          (Kelvin)            581.01  1088.86  1177.49  1283.37  1320.73
                             1358.10  1527.68  1751.14  1772.00  1937.45
                             2197.21  2521.54  4168.50  4221.55  4255.10
                             4395.87

 Zero-point correction=                           0.059140 (Hartree/Particle)
 Thermal correction to Energy=                    0.065197
 Thermal correction to Enthalpy=                  0.066141
 Thermal correction to Gibbs Free Energy=         0.030663
 Sum of electronic and zero-point Energies=           -191.855470
 Sum of electronic and thermal Energies=              -191.849413
 Sum of electronic and thermal Enthalpies=            -191.848469
 Sum of electronic and thermal Free Energies=         -191.883947

                     E (Thermal)             CV                S
                      KCal/Mol        Cal/Mol-Kelvin    Cal/Mol-Kelvin
 Total                   40.912             19.811             74.670
 Electronic               0.000              0.000              0.000
 Translational            0.889              2.981             38.389
 Rotational               0.889              2.981             24.619
 Vibrational             39.134             13.849             11.662
 Vibration     1          0.614              1.916              2.845
 Vibration     2          0.618              1.904              2.685
 Vibration     3          0.643              1.823              2.030
 Vibration     4          0.725              1.581              1.180
 Vibration     5          0.767              1.468              0.959
 Vibration     6          0.769              1.462              0.949

 Normal termination of Gaussian 09 at Thu Jan 31 08:01:12 2019.
