 Gaussian 09, Revision E.01,
 Gaussian 09:  EM64L-G09RevE.01 30-Nov-2015

 ---------------------------------------------
 #p b3lyp/6-311++G(3df,2p) freq symmetry=Loose
 ---------------------------------------------

 ---------
 b3lyp opt
 ---------
 Symbolic Z-matrix:
 Charge =  0 Multiplicity = 3

                         Standard orientation:
 ---------------------------------------------------------------------
 Center     Atomic      Atomic             Coordinates (Angstroms)
 Number     Number       Type             X           Y           Z
 ---------------------------------------------------------------------
      1          6           0        0.567267   -0.471455   -0.678053
      2          6           0       -0.813736   -0.469288    0.000163
      3          1           0       -1.274132   -1.454065   -0.000555
      4          1           0        1.169650    1.624948   -0.000837
      5          6           0       -1.676171    0.628856    0.000192
      6          1           0       -2.742776    0.792048   -0.001562
      7          6           0        0.566521   -0.471069    0.678107
      8          6           0        1.418250    0.565464   -0.000051
      9          1           0        2.474478    0.342024    0.000810
 ---------------------------------------------------------------------

 SCF Done:  E(UB3LYP) =  -192.668113899     A.U. after   16 cycles

 The electronic state is 3-A.
 Alpha  occ. eigenvalues --  -10.24572 -10.23932 -10.22413 -10.21027 -10.20953
 Alpha  occ. eigenvalues --   -0.96007  -0.78768  -0.68586  -0.57151  -0.51850
 Alpha  occ. eigenvalues --   -0.49127  -0.48490  -0.43213  -0.35608  -0.30556
 Alpha  occ. eigenvalues --   -0.28965  -0.27159  -0.24323
 Alpha virt. eigenvalues --   -0.07386  -0.00515   0.00928   0.01447   0.03605
 Alpha virt. eigenvalues --    0.03640   0.05092   0.06113   0.07366   0.07973
 Alpha virt. eigenvalues --    0.09191   0.09677   0.09785   0.11461   0.12025

  Beta  occ. eigenvalues --  -10.24786 -10.22165 -10.21398 -10.20708 -10.20632
  Beta  occ. eigenvalues --   -0.95621  -0.76294  -0.65689  -0.55263  -0.50725
  Beta  occ. eigenvalues --   -0.47852  -0.47485  -0.42305  -0.33441  -0.29626
  Beta  occ. eigenvalues --   -0.26577
  Beta virt. eigenvalues --   -0.12897  -0.11075  -0.04041  -0.00262   0.01013
  Beta virt. eigenvalues --    0.01581   0.03651   0.04113   0.05418   0.06587
  Beta virt. eigenvalues --    0.07567   0.08415   0.09606   0.09933   0.10533

 Mulliken charges and spin densities:
               1          2
     1  C   -0.117967   0.120641
     2  C    0.329003  -0.273164
     3  H    0.182823   0.060988
     4  H    0.138081  -0.006596
     5  C   -0.594681   1.806827
     6  H    0.210685   0.004217
     7  C   -0.116755   0.120699
     8  C   -0.193759   0.171431
     9  H    0.162570  -0.005044
 Sum of Mulliken charges =  -0.00000   2.00000

 Dipole moment (field-independent basis, Debye):
    X=             -1.3031    Y=              0.7216    Z=             -0.0005  Tot=              1.4895
 Quadrupole moment (field-independent basis, Debye-Ang):
   XX=            -23.7385   YY=            -29.6768   ZZ=            -35.3218
   XY=              1.7397   XZ=              0.0062   YZ=             -0.0033

  Exact polarizability:  76.573  -3.871  51.694  -0.006   0.003  48.984
 Approx polarizability: 113.558  -9.178  78.674  -0.032   0.006  92.586

                      1                      2                      3
                      A                      A                      A
 Frequencies --    183.4043               224.5181               343.5317
 Red. masses --      3.6756                 2.8707                 3.2019
 Frc consts  --      0.0728                 0.0853                 0.2226
 IR Inten    --     52.2198                 8.5537                35.1688

                      4                      5                      6
                      A                      A                      A
 Frequencies --    469.0504               517.9583               678.3112
 Red. masses --      1.7437                 3.0021                 2.7162
 Frc consts  --      0.2260                 0.4745                 0.7363
 IR Inten    --     73.7727                 0.3567                 2.5112

                      7                      8                      9
                      A                      A                      A
 Frequencies --    727.1544               905.1808               935.1192
 Red. masses --      2.1347                 2.1745                 1.1353
 Frc consts  --      0.6650                 1.0497                 0.5849
 IR Inten    --     28.8064                 0.7591                 0.7214

                     10                     11                     12
                      A                      A                      A
 Frequencies --   1041.1525              1060.9350              1092.3775
 Red. masses --      1.3654                 1.3993                 1.5571
 Frc consts  --      0.8720                 0.9280                 1.0947
 IR Inten    --      7.1177                 3.4787                 6.7809

                     13                     14                     15
                      A                      A                      A
 Frequencies --   1133.2198              1208.6648              1310.7149
 Red. masses --      4.7529                 6.3142                 1.2545
 Frc consts  --      3.5961                 5.4347                 1.2698
 IR Inten    --     13.2661                32.4013                 0.0713

                     16                     17                     18
                      A                      A                      A
 Frequencies --   1427.0124              1526.9310              3071.4225
 Red. masses --      3.0563                 1.4000                 1.0620
 Frc consts  --      3.6669                 1.9231                 5.9025
 IR Inten    --     24.6920                 3.1780                34.9516

                     19                     20                     21
                      A                      A                      A
 Frequencies --   3095.6492              3202.9996              3226.9503
 Red. masses --      1.0837                 1.1061                 1.0934
 Frc consts  --      6.1185                 6.6857                 6.7086
 IR Inten    --      1.5501                 2.7537                 2.9393

 - Thermochemistry -
 -------------------
 Temperature   298.150 Kelvin.  Pressure   1.00000 Atm.
 Atom     1 has atomic number  6 and mass  12.00000

 Molecular mass:    64.03130 amu.
 Principal axes and moments of inertia in atomic units:
                           1         2         3
     Eigenvalues --   117.92354 362.08979 401.19976
           X            0.99938   0.03513   0.00007
           Y           -0.03513   0.99938  -0.00012
           Z           -0.00008   0.00012   1.00000
 This molecule is an asymmetric top.
 Rotational symmetry number  1.
 Rotational temperatures (Kelvin)      0.73449     0.23921     0.21589
 Rotational constants (GHZ):          15.30433     4.98424     4.49836
 Zero-point vibrational energy     163782.3 (Joules/Mol)
                                   39.14490 (Kcal/Mol)
 Warning -- explicit consideration of   5 degrees of freedom as
           vibrations may cause significant error
 Vibrational temperatures:    263.88   323.03   494.26   674.86   745.23
          (Kelvin)            975.94  1046.21  1302.35  1345.43  1497.98
                             1526.45  1571.69  1630.45  1739.00  1885.82
                             2053.15  2196.91  4419.09  4453.94  4608.40
                             4642.86

 Zero-point correction=                           0.062381 (Hartree/Particle)
 Thermal correction to Energy=                    0.067622
 Thermal correction to Enthalpy=                  0.068566
 Thermal correction to Gibbs Free Energy=         0.033919
 Sum of electronic and zero-point Energies=           -192.605733
 Sum of electronic and thermal Energies=              -192.600492
 Sum of electronic and thermal Enthalpies=            -192.599547
 Sum of electronic and thermal Free Energies=         -192.634195

                     E (Thermal)             CV                S
                      KCal/Mol        Cal/Mol-Kelvin    Cal/Mol-Kelvin
 Total                   42.434             18.037             72.922
 Electronic               0.000              0.000              2.183
 Translational            0.889              2.981             38.389
 Rotational               0.889              2.981             24.353
 Vibrational             40.656             12.076              7.997
 Vibration     1          0.631              1.862              2.293
 Vibration     2          0.649              1.804              1.922
 Vibration     3          0.722              1.588              1.196
 Vibration     4          0.826              1.319              0.740
 Vibration     5          0.873              1.210              0.615

 Normal termination of Gaussian 09 at Mon Jun 20 02:47:55 2016.
