 Gaussian 09, Revision E.01,
 Gaussian 09:  EM64L-G09RevE.01 30-Nov-2015

 ------------------------------------------------------
 #p b3lyp/6-311++G(3df,2p) freq IOp(2/17=3) IOp(2/18=3)
 ------------------------------------------------------

 ---------
 b3lyp opt
 ---------
 Symbolic Z-matrix:
 Charge =  0 Multiplicity = 3

                         Standard orientation:
 ---------------------------------------------------------------------
 Center     Atomic      Atomic             Coordinates (Angstroms)
 Number     Number       Type             X           Y           Z
 ---------------------------------------------------------------------
      1          6           0       -1.132454    0.000000   -0.532112
      2          1           0       -1.163504    0.000000   -1.616085
      3          1           0       -2.090850    0.000000   -0.033828
      4          1           0        1.163504   -0.000000   -1.616085
      5          6           0        0.000000    0.790579    0.125691
      6          6           0       -0.000000   -0.790579    0.125691
      7          6           0       -0.000000    0.000000    1.362653
      8          6           0        1.132454   -0.000000   -0.532112
      9          1           0        2.090850   -0.000000   -0.033828
 ---------------------------------------------------------------------

 SCF Done:  E(UB3LYP) =  -192.686106647     A.U. after   13 cycles

 The electronic state is 3-B1.
 Alpha  occ. eigenvalues --  -10.23739 -10.23715 -10.23591 -10.21723 -10.21721
 Alpha  occ. eigenvalues --   -1.00615  -0.72134  -0.70230  -0.55778  -0.55485
 Alpha  occ. eigenvalues --   -0.48310  -0.45659  -0.39977  -0.35515  -0.34519
 Alpha  occ. eigenvalues --   -0.34377  -0.28737  -0.22115
 Alpha virt. eigenvalues --   -0.02338  -0.00440   0.01513   0.02313   0.02319
 Alpha virt. eigenvalues --    0.04484   0.05053   0.07447   0.07496   0.08411
 Alpha virt. eigenvalues --    0.08519   0.11176   0.11205   0.11230   0.12021

  Beta  occ. eigenvalues --  -10.23475 -10.23456 -10.21538 -10.21535 -10.20715
  Beta  occ. eigenvalues --   -0.99330  -0.71467  -0.67745  -0.54526  -0.53841
  Beta  occ. eigenvalues --   -0.46932  -0.42870  -0.39599  -0.34174  -0.33926
  Beta  occ. eigenvalues --   -0.29615
  Beta virt. eigenvalues --   -0.15568  -0.05181  -0.00849  -0.00402   0.01990
  Beta virt. eigenvalues --    0.02403   0.02575   0.04625   0.05522   0.07513
  Beta virt. eigenvalues --    0.07674   0.08554   0.08587   0.11347   0.11649

 Mulliken charges and spin densities:
               1          2
     1  C   -0.488331   0.051339
     2  H    0.166999   0.032170
     3  H    0.173123   0.003037
     4  H    0.166999   0.032170
     5  C    0.345145  -0.009638
     6  C    0.345145  -0.009638
     7  C   -0.393873   1.846185
     8  C   -0.488331   0.051339
     9  H    0.173123   0.003037
 Sum of Mulliken charges =  -0.00000   2.00000

 Dipole moment (field-independent basis, Debye):
    X=              0.0000    Y=             -0.0000    Z=             -1.6409  Tot=              1.6409
 Quadrupole moment (field-independent basis, Debye-Ang):
   XX=            -26.9043   YY=            -33.9068   ZZ=            -29.9577
   XY=              0.0000   XZ=              0.0000   YZ=              0.0000

  Exact polarizability:  53.296  -0.000  46.586  -0.000  -0.000  58.040
 Approx polarizability:  74.558   0.000  90.425  -0.000   0.000  86.939

                      1                      2                      3
                     A1                     B2                     B1
 Frequencies --    526.2524               594.5802               617.5042
 Red. masses --      1.9121                 4.5095                 3.6410
 Frc consts  --      0.3120                 0.9393                 0.8180
 IR Inten    --      0.8658                53.5828                 4.0289

                      4                      5                      6
                     A2                     B2                     A1
 Frequencies --    695.5693               752.4265               860.8006
 Red. masses --      4.3223                 4.2198                 7.6501
 Frc consts  --      1.2321                 1.4076                 3.3398
 IR Inten    --      0.0000                48.1713                12.2339

                      7                      8                      9
                     A2                     B1                     A1
 Frequencies --    979.3969               992.0584              1071.4645
 Red. masses --      1.1867                 1.5385                 2.6909
 Frc consts  --      0.6707                 0.8921                 1.8201
 IR Inten    --      0.0000                 0.1991                 0.1987

                     10                     11                     12
                     A2                     B2                     B2
 Frequencies --   1078.4103              1100.0274              1128.0260
 Red. masses --      1.2333                 1.2138                 1.4119
 Frc consts  --      0.8451                 0.8654                 1.0585
 IR Inten    --      0.0000                15.9819                 0.0986

                     13                     14                     15
                     B1                     A1                     A1
 Frequencies --   1137.0869              1164.2595              1209.2273
 Red. masses --      4.7185                 2.4474                 9.5604
 Frc consts  --      3.5945                 1.9546                 8.2365
 IR Inten    --      0.3675                 0.2100                 4.4040

                     16                     17                     18
                     B1                     A1                     B1
 Frequencies --   1467.0115              1503.4086              3109.9022
 Red. masses --      1.1179                 1.1576                 1.0571
 Frc consts  --      1.4175                 1.5416                 6.0237
 IR Inten    --      3.6192                 1.2186                 9.6158

                     19                     20                     21
                     A1                     B1                     A1
 Frequencies --   3112.6364              3217.1743              3217.8557
 Red. masses --      1.0568                 1.1130                 1.1155
 Frc consts  --      6.0324                 6.7874                 6.8055
 IR Inten    --     13.6124                 1.5069                 2.0683

 - Thermochemistry -
 -------------------
 Temperature   298.150 Kelvin.  Pressure   1.00000 Atm.
 Atom     1 has atomic number  6 and mass  12.00000

 Molecular mass:    64.03130 amu.
 Principal axes and moments of inertia in atomic units:
                           1         2         3
     Eigenvalues --   176.96875 204.69215 274.52628
           X            1.00000   0.00000   0.00000
           Y           -0.00000   0.00000   1.00000
           Z           -0.00000   1.00000  -0.00000
 This molecule is an asymmetric top.
 Rotational symmetry number  2.
 Rotational temperatures (Kelvin)      0.48943     0.42314     0.31550
 Rotational constants (GHZ):          10.19808     8.81686     6.57402
 Zero-point vibrational energy     176659.0 (Joules/Mol)
                                   42.22251 (Kcal/Mol)
 Warning -- explicit consideration of   3 degrees of freedom as
           vibrations may cause significant error
 Vibrational temperatures:    757.16   855.47   888.45  1000.77  1082.57
          (Kelvin)           1238.50  1409.13  1427.35  1541.60  1551.59
                             1582.69  1622.98  1636.01  1675.11  1739.81
                             2110.70  2163.07  4474.45  4478.38  4628.79
                             4629.77

 Zero-point correction=                           0.067286 (Hartree/Particle)
 Thermal correction to Energy=                    0.071155
 Thermal correction to Enthalpy=                  0.072100
 Thermal correction to Gibbs Free Energy=         0.040823
 Sum of electronic and zero-point Energies=           -192.618821
 Sum of electronic and thermal Energies=              -192.614951
 Sum of electronic and thermal Enthalpies=            -192.614007
 Sum of electronic and thermal Free Energies=         -192.645284

                     E (Thermal)             CV                S
                      KCal/Mol        Cal/Mol-Kelvin    Cal/Mol-Kelvin
 Total                   44.651             14.081             65.827
 Electronic               0.000              0.000              2.183
 Translational            0.889              2.981             38.389
 Rotational               0.889              2.981             22.435
 Vibrational             42.873              8.120              2.820
 Vibration     1          0.881              1.192              0.596
 Vibration     2          0.952              1.043              0.459
 Vibration     3          0.977              0.995              0.421

 Optimization completed.
    -- Stationary point found.
 Normal termination of Gaussian 09 at Thu Jan 31 07:08:19 2019.
