 Gaussian 09, Revision E.01,
 Gaussian 09:  EM64L-G09RevE.01 30-Nov-2015

 ---------------------------------------------
 #p b3lyp/6-311++G(3df,2p) freq symmetry=Loose
 ---------------------------------------------

 ---------
 b3lyp opt
 ---------
 Symbolic Z-matrix:
 Charge =  0 Multiplicity = 3

                         Standard orientation:
 ---------------------------------------------------------------------
 Center     Atomic      Atomic             Coordinates (Angstroms)
 Number     Number       Type             X           Y           Z
 ---------------------------------------------------------------------
      1          6           0       -1.530233   -0.622825   -0.344742
      2          1           0       -2.160677   -1.397842    0.087130
      3          6           0       -0.282991   -0.042266    0.112924
      4          1           0       -1.731479    1.740887    0.208824
      5          6           0       -1.321145    0.758216    0.059759
      6          6           0        1.153538   -0.254010    0.371086
      7          1           0        1.525899    0.511095    1.106920
      8          1           0        1.372717   -1.232652    0.818183
      9          6           0        2.146422    0.223970   -0.569202
 ---------------------------------------------------------------------

 SCF Done:  E(UB3LYP) =  -192.651284683     A.U. after   23 cycles

 The electronic state is 3-A.
 Alpha  occ. eigenvalues --  -10.24764 -10.23051 -10.22674 -10.21643 -10.20117
 Alpha  occ. eigenvalues --   -0.91902  -0.82412  -0.61708  -0.60357  -0.55059
 Alpha  occ. eigenvalues --   -0.50841  -0.48059  -0.40985  -0.35503  -0.33973
 Alpha  occ. eigenvalues --   -0.31116  -0.22731  -0.17188
 Alpha virt. eigenvalues --   -0.10425  -0.03920  -0.00783   0.00558   0.01051
 Alpha virt. eigenvalues --    0.02798   0.04066   0.05320   0.06719   0.07115
 Alpha virt. eigenvalues --    0.08359   0.09130   0.09404   0.10555   0.11337

  Beta  occ. eigenvalues --  -10.23274 -10.22800 -10.22769 -10.21448 -10.18913
  Beta  occ. eigenvalues --   -0.90986  -0.81182  -0.59680  -0.58633  -0.53660
  Beta  occ. eigenvalues --   -0.49426  -0.47516  -0.38309  -0.34028  -0.32867
  Beta  occ. eigenvalues --   -0.28805
  Beta virt. eigenvalues --   -0.08721  -0.07408  -0.04469  -0.02799  -0.00623
  Beta virt. eigenvalues --    0.00582   0.01143   0.02860   0.04370   0.05624
  Beta virt. eigenvalues --    0.07015   0.07475   0.08647   0.09170   0.09937

 Mulliken charges and spin densities:
               1          2
     1  C   -0.502839   0.837277
     2  H    0.157415   0.045366
     3  C    0.159483  -0.020881
     4  H    0.256345  -0.007628
     5  C    0.154484   0.142553
     6  C   -0.098136  -0.040634
     7  H    0.193568  -0.014862
     8  H    0.162350   0.054626
     9  C   -0.482670   1.004183
 Sum of Mulliken charges =  -0.00000   2.00000

 Dipole moment (field-independent basis, Debye):
    X=             -1.1717    Y=              0.0566    Z=              2.7610  Tot=              2.9998
 Quadrupole moment (field-independent basis, Debye-Ang):
   XX=            -36.3879   YY=            -28.2166   ZZ=            -32.4153
   XY=             -3.4637   XZ=              2.7910   YZ=              0.5262

  Exact polarizability: 104.135   4.938  57.441  -1.222   0.724  49.399
 Approx polarizability: 140.934   2.757  85.849  -2.402   3.700  72.198

                      1                      2                      3
                      A                      A                      A
 Frequencies --     60.6726               186.7673               300.0565
 Red. masses --      3.4671                 4.4941                 1.8220
 Frc consts  --      0.0075                 0.0924                 0.0966
 IR Inten    --      5.0973                10.6036                 2.9385

                      4                      5                      6
                      A                      A                      A
 Frequencies --    411.1654               456.5750               651.5495
 Red. masses --      1.9343                 3.1778                 1.9282
 Frc consts  --      0.1927                 0.3903                 0.4823
 IR Inten    --      6.7842                20.3636                21.3599

                      7                      8                      9
                      A                      A                      A
 Frequencies --    777.4512               853.6954               891.1873
 Red. masses --      2.0663                 1.5335                 2.6308
 Frc consts  --      0.7358                 0.6585                 1.2311
 IR Inten    --     22.8700               191.7548                91.3019

                     10                     11                     12
                      A                      A                      A
 Frequencies --    932.5534               985.8821              1032.3310
 Red. masses --      1.2260                 1.5267                 1.9051
 Frc consts  --      0.6282                 0.8743                 1.1962
 IR Inten    --     12.6144                 4.3454                 3.0500

                     13                     14                     15
                      A                      A                      A
 Frequencies --   1103.5870              1191.2983              1266.1235
 Red. masses --      1.6671                 2.7325                 1.8618
 Frc consts  --      1.1963                 2.2848                 1.7585
 IR Inten    --     13.7348                 9.3435                29.8167

                     16                     17                     18
                      A                      A                      A
 Frequencies --   1323.1373              1765.5052              2794.1157
 Red. masses --      1.3088                 7.5600                 1.0691
 Frc consts  --      1.3500                13.8839                 4.9176
 IR Inten    --      4.9573                 1.0375                23.3574

                     19                     20                     21
                      A                      A                      A
 Frequencies --   2978.8666              3060.6375              3260.9111
 Red. masses --      1.0819                 1.0901                 1.1111
 Frc consts  --      5.6566                 6.0165                 6.9609
 IR Inten    --      8.5067                43.9589                 6.9589

 - Thermochemistry -
 -------------------
 Temperature   298.150 Kelvin.  Pressure   1.00000 Atm.
 Atom     1 has atomic number  6 and mass  12.00000

 Molecular mass:    64.03130 amu.
 Principal axes and moments of inertia in atomic units:
                           1         2         3
     Eigenvalues --   102.73474 508.03976 546.47049
           X            0.99981  -0.00746   0.01794
           Y            0.00784   0.99974  -0.02121
           Z           -0.01778   0.02135   0.99961
 This molecule is an asymmetric top.
 Rotational symmetry number  1.
 Rotational temperatures (Kelvin)      0.84308     0.17049     0.15850
 Rotational constants (GHZ):          17.56700     3.55236     3.30254
 Zero-point vibrational energy     157213.6 (Joules/Mol)
                                   37.57496 (Kcal/Mol)
 Warning -- explicit consideration of   5 degrees of freedom as
           vibrations may cause significant error
 Vibrational temperatures:     87.29   268.72   431.71   591.57   656.91
          (Kelvin)            937.43  1118.58  1228.28  1282.22  1341.73
                             1418.46  1485.29  1587.81  1714.01  1821.67
                             1903.70  2540.17  4020.10  4285.92  4403.57
                             4691.72

 Zero-point correction=                           0.059880 (Hartree/Particle)
 Thermal correction to Energy=                    0.065608
 Thermal correction to Enthalpy=                  0.066552
 Thermal correction to Gibbs Free Energy=         0.030149
 Sum of electronic and zero-point Energies=           -192.591405
 Sum of electronic and thermal Energies=              -192.585676
 Sum of electronic and thermal Enthalpies=            -192.584732
 Sum of electronic and thermal Free Energies=         -192.621136

                     E (Thermal)             CV                S
                      KCal/Mol        Cal/Mol-Kelvin    Cal/Mol-Kelvin
 Total                   41.170             18.964             76.618
 Electronic               0.000              0.000              2.183
 Translational            0.889              2.981             38.389
 Rotational               0.889              2.981             24.859
 Vibrational             39.392             13.002             11.186
 Vibration     1          0.597              1.973              4.435
 Vibration     2          0.632              1.858              2.260
 Vibration     3          0.693              1.674              1.417
 Vibration     4          0.775              1.446              0.923
 Vibration     5          0.815              1.346              0.776

 Normal termination of Gaussian 09 at Wed Jun 22 04:19:29 2016.
