 Gaussian 09, Revision E.01,
 Gaussian 09:  EM64L-G09RevE.01 30-Nov-2015

 ---------------------------------------------
 #p b3lyp/6-311++G(3df,2p) freq symmetry=Loose
 ---------------------------------------------

 ---------
 b3lyp opt
 ---------
 Symbolic Z-matrix:
 Charge =  1 Multiplicity = 2

                         Standard orientation:
 ---------------------------------------------------------------------
 Center     Atomic      Atomic             Coordinates (Angstroms)
 Number     Number       Type             X           Y           Z
 ---------------------------------------------------------------------
      1          6           0       -1.487175   -0.000302   -0.000380
      2          6           0       -0.165165    0.000046   -0.005852
      3          1           0       -3.784252   -0.000267    0.008129
      4          6           0        1.070579    0.000640   -0.013014
      5          6           0       -2.713785    0.000137    0.004170
      6          6           0        2.491055    0.000387   -0.003783
      7          1           0        2.823053   -0.025539    1.047232
      8          1           0        2.893036   -0.891827   -0.491276
      9          1           0        2.895112    0.912180   -0.450931
 ---------------------------------------------------------------------

 SCF Done:  E(UB3LYP) =  -192.546599867     A.U. after   24 cycles

 The electronic state is 2-A.
 Alpha  occ. eigenvalues --  -10.47453 -10.45750 -10.45030 -10.44730 -10.39860
 Alpha  occ. eigenvalues --   -1.06625  -1.02033  -0.95601  -0.86826  -0.75734
 Alpha  occ. eigenvalues --   -0.69596  -0.65815  -0.65334  -0.59873  -0.58751
 Alpha  occ. eigenvalues --   -0.50909  -0.49103
 Alpha virt. eigenvalues --   -0.27862  -0.26444  -0.15343  -0.12314  -0.11022
 Alpha virt. eigenvalues --   -0.10979  -0.10345  -0.08842  -0.08271  -0.07591
 Alpha virt. eigenvalues --   -0.07017  -0.06677  -0.04666  -0.04272  -0.04014

  Beta  occ. eigenvalues --  -10.46924 -10.45079 -10.44794 -10.44676 -10.39855
  Beta  occ. eigenvalues --   -1.05238  -1.00549  -0.94571  -0.86038  -0.75116
  Beta  occ. eigenvalues --   -0.69100  -0.65122  -0.63975  -0.58513  -0.56781
  Beta  occ. eigenvalues --   -0.48375
  Beta virt. eigenvalues --   -0.41510  -0.25946  -0.24168  -0.15237  -0.12178
  Beta virt. eigenvalues --   -0.10737  -0.10297  -0.10257  -0.08163  -0.07695
  Beta virt. eigenvalues --   -0.07406  -0.06613  -0.06603  -0.04316  -0.04186

 Mulliken charges and spin densities:
               1          2
     1  C   -0.145769   0.203065
     2  C   -0.692090   0.302232
     3  H    0.377894  -0.012760
     4  C    0.751926   0.126281
     5  C    0.485780   0.307445
     6  C   -0.410184   0.013428
     7  H    0.213022   0.042522
     8  H    0.209830   0.009505
     9  H    0.209590   0.008282
 Sum of Mulliken charges =   1.00000   1.00000

 Dipole moment (field-independent basis, Debye):
    X=             -0.4281    Y=             -0.0067    Z=              0.1219  Tot=              0.4452
 Quadrupole moment (field-independent basis, Debye-Ang):
   XX=              9.9022   YY=            -27.4818   ZZ=            -25.9798
   XY=             -0.0171   XZ=              0.2983   YZ=             -0.0101

  Exact polarizability: 128.878  -0.058  33.599   0.668   0.045  32.023
 Approx polarizability: 244.975  -0.081  45.475   0.977  -0.002  45.619

                      1                      2                      3
                      A                      A                      A
 Frequencies --    137.5932               139.3928               270.6446
 Red. masses --      3.5022                 3.0177                 2.0189
 Frc consts  --      0.0391                 0.0345                 0.0871
 IR Inten    --      8.9801                17.9124                21.9080

                      4                      5                      6
                      A                      A                      A
 Frequencies --    350.7529               469.4719               547.3714
 Red. masses --      3.3895                 2.7068                 4.8531
 Frc consts  --      0.2457                 0.3515                 0.8567
 IR Inten    --      0.7275                67.1305                 3.2205

                      7                      8                      9
                      A                      A                      A
 Frequencies --    557.3082               645.4244               693.6593
 Red. masses --      6.6418                 1.2552                 4.7357
 Frc consts  --      1.2154                 0.3081                 1.3425
 IR Inten    --      8.2965                45.0296                 5.9534

                     10                     11                     12
                      A                      A                      A
 Frequencies --    761.8498               952.6064              1229.7316
 Red. masses --      1.4010                 1.5919                 5.2362
 Frc consts  --      0.4791                 0.8511                 4.6654
 IR Inten    --     15.4978                20.3191                11.2422

                     13                     14                     15
                      A                      A                      A
 Frequencies --   1284.7671              1349.5344              1432.7199
 Red. masses --      1.0609                 1.1718                 1.1270
 Frc consts  --      1.0318                 1.2574                 1.3630
 IR Inten    --     25.3445                65.8507                 9.1172

                     16                     17                     18
                      A                      A                      A
 Frequencies --   1997.0754              2287.0241              2954.7408
 Red. masses --      7.3627                10.1772                 1.0520
 Frc consts  --     17.3012                31.3632                 5.4115
 IR Inten    --    439.3918                67.1399               174.1643

                     19                     20                     21
                      A                      A                      A
 Frequencies --   3036.8102              3045.0426              3380.0189
 Red. masses --      1.0742                 1.0850                 1.1473
 Frc consts  --      5.8369                 5.9277                 7.7225
 IR Inten    --     25.7257                33.7953               185.5248

 - Thermochemistry -
 -------------------
 Temperature   298.150 Kelvin.  Pressure   1.00000 Atm.
 Atom     1 has atomic number  6 and mass  12.00000

 Molecular mass:    64.03130 amu.
 Principal axes and moments of inertia in atomic units:
                           1         2         3
     Eigenvalues --    11.41596 871.36153 871.66457
           X            1.00000  -0.00004   0.00085
           Y            0.00004   1.00000   0.00044
           Z           -0.00085  -0.00044   1.00000
 This molecule is an asymmetric top.
 Rotational symmetry number  1.
 Rotational temperatures (Kelvin)      7.58708     0.09940     0.09937
 Rotational constants (GHZ):         158.08936     2.07117     2.07045
 Zero-point vibrational energy     164627.3 (Joules/Mol)
                                   39.34688 (Kcal/Mol)
 Warning -- explicit consideration of   7 degrees of freedom as
           vibrations may cause significant error
 Vibrational temperatures:    197.97   200.55   389.40   504.65   675.46
          (Kelvin)            787.54   801.84   928.62   998.02  1096.13
                             1370.59  1769.31  1848.49  1941.68  2061.36
                             2873.34  3290.51  4251.21  4369.29  4381.13
                             4863.09

 Zero-point correction=                           0.062703 (Hartree/Particle)
 Thermal correction to Energy=                    0.068735
 Thermal correction to Enthalpy=                  0.069679
 Thermal correction to Gibbs Free Energy=         0.034132
 Sum of electronic and zero-point Energies=           -192.483897
 Sum of electronic and thermal Energies=              -192.477865
 Sum of electronic and thermal Enthalpies=            -192.476921
 Sum of electronic and thermal Free Energies=         -192.512468

                     E (Thermal)             CV                S
                      KCal/Mol        Cal/Mol-Kelvin    Cal/Mol-Kelvin
 Total                   43.132             20.184             74.816
 Electronic               0.000              0.000              1.377
 Translational            0.889              2.981             38.389
 Rotational               0.889              2.981             23.676
 Vibrational             41.354             14.223             11.373
 Vibration     1          0.614              1.916              2.837
 Vibration     2          0.615              1.914              2.812
 Vibration     3          0.674              1.727              1.592
 Vibration     4          0.728              1.574              1.163
 Vibration     5          0.827              1.318              0.739
 Vibration     6          0.903              1.145              0.550
 Vibration     7          0.913              1.124              0.529

 Optimization completed.
    -- Stationary point found.
 Normal termination of Gaussian 09 at Mon Jun 20 04:00:34 2016.
