 Gaussian 09, Revision E.01,
 Gaussian 09:  EM64L-G09RevE.01 30-Nov-2015

 ------------------------------------------------------
 #p b3lyp/6-311++G(3df,2p) freq IOp(2/17=3) IOp(2/18=3)
 ------------------------------------------------------

 ---------
 b3lyp opt
 ---------
 Symbolic Z-matrix:
 Charge =  3 Multiplicity = 4

                         Standard orientation:
 ---------------------------------------------------------------------
 Center     Atomic      Atomic             Coordinates (Angstroms)
 Number     Number       Type             X           Y           Z
 ---------------------------------------------------------------------
      1          6           0       -0.227537   -1.592036    0.000000
      2          6           0        0.056304   -0.645452    1.043875
      3          1           0        0.281692   -0.681503    2.126814
      4          6           0       -0.000000    1.793687    0.000000
      5          1           0       -0.088904    2.728024    0.780326
      6          6           0        0.056304   -0.645452   -1.043875
      7          1           0        0.281692   -0.681503   -2.126814
      8          6           0        0.050485    0.407081    0.000000
      9          1           0       -0.088904    2.728024   -0.780326
 ---------------------------------------------------------------------

 SCF Done:  E(UB3LYP) =  -191.024074351     A.U. after   15 cycles

 The electronic state is 4-A".
 Alpha  occ. eigenvalues --  -11.02058 -10.99396 -10.99280 -10.98555 -10.98552
 Alpha  occ. eigenvalues --   -1.65582  -1.51089  -1.37612  -1.34097  -1.23614
 Alpha  occ. eigenvalues --   -1.21261  -1.17614  -1.11445  -1.10982  -1.07864
 Alpha  occ. eigenvalues --   -1.01216  -0.97979
 Alpha virt. eigenvalues --   -0.82040  -0.78152  -0.63710  -0.62654  -0.59047
 Alpha virt. eigenvalues --   -0.53600  -0.49514  -0.48086  -0.47008  -0.42520
 Alpha virt. eigenvalues --   -0.41931  -0.41708  -0.40613  -0.39063  -0.38461

  Beta  occ. eigenvalues --  -11.00003 -10.99300 -10.98283 -10.98281 -10.96956
  Beta  occ. eigenvalues --   -1.63673  -1.45688  -1.36454  -1.28916  -1.20729
  Beta  occ. eigenvalues --   -1.19535  -1.14146  -1.09104  -1.08372
  Beta virt. eigenvalues --   -0.94441  -0.87991  -0.81124  -0.78302  -0.71361
  Beta virt. eigenvalues --   -0.60460  -0.58317  -0.55049  -0.52516  -0.48868
  Beta virt. eigenvalues --   -0.47628  -0.45041  -0.41559  -0.41058  -0.40525

 Mulliken charges and spin densities:
               1          2
     1  C    0.432962   1.191164
     2  C    0.176401   0.099070
     3  H    0.402713   0.004812
     4  C   -0.284680   1.155252
     5  H    0.423769   0.189438
     6  C    0.176401   0.099070
     7  H    0.402713   0.004812
     8  C    0.845952   0.066943
     9  H    0.423769   0.189438
 Sum of Mulliken charges =   3.00000   3.00000

 Dipole moment (field-independent basis, Debye):
    X=              0.0633    Y=              6.0834    Z=             -0.0000  Tot=              6.0837
 Quadrupole moment (field-independent basis, Debye-Ang):
   XX=            -22.4421   YY=             21.7723   ZZ=             -2.9535
   XY=             -0.7348   XZ=              0.0000   YZ=              0.0000

  Exact polarizability:  22.610   0.610  66.965   0.000  -0.000  42.447
 Approx polarizability:  34.734   3.593 121.929  -0.000  -0.000  72.894

                      1                      2                      3
                     A'                     A"                     A'
 Frequencies --    116.8737               332.1444               409.2033
 Red. masses --      2.8919                 2.0297                 2.1033
 Frc consts  --      0.0233                 0.1319                 0.2075
 IR Inten    --      3.3832                25.1105                92.8312

                      4                      5                      6
                     A"                     A'                     A"
 Frequencies --    446.1434               553.1190               580.1356
 Red. masses --      1.0591                 1.7102                 1.7160
 Frc consts  --      0.1242                 0.3083                 0.3403
 IR Inten    --      6.9644                92.1153                96.4839

                      7                      8                      9
                     A'                     A'                     A'
 Frequencies --    683.1253               849.5121               944.3790
 Red. masses --      5.8695                 2.3705                 1.8488
 Frc consts  --      1.6138                 1.0079                 0.9715
 IR Inten    --     12.0149                35.4731                15.7832

                     10                     11                     12
                     A"                     A'                     A"
 Frequencies --    977.8691              1000.9018              1035.8803
 Red. masses --      1.7832                 1.3648                 3.0708
 Frc consts  --      1.0047                 0.8055                 1.9414
 IR Inten    --     15.0423               131.3175                14.6905

                     13                     14                     15
                     A'                     A"                     A"
 Frequencies --   1107.4223              1124.4236              1236.1442
 Red. masses --      2.0268                 1.3225                 5.3627
 Frc consts  --      1.4645                 0.9852                 4.8280
 IR Inten    --      8.0231                17.9525                60.7390

                     16                     17                     18
                     A'                     A'                     A"
 Frequencies --   1260.7372              1335.1790              1630.1042
 Red. masses --      2.5731                 3.5281                 1.0481
 Frc consts  --      2.4096                 3.7057                 1.6408
 IR Inten    --    133.4352                77.1592               744.9862

                     19                     20                     21
                     A'                     A"                     A'
 Frequencies --   2315.4230              2991.5580              2992.1518
 Red. masses --      1.1817                 1.1074                 1.1107
 Frc consts  --      3.7326                 5.8393                 5.8589
 IR Inten    --   1135.3909               507.0155                34.2712

 - Thermochemistry -
 -------------------
 Temperature   298.150 Kelvin.  Pressure   1.00000 Atm.
 Atom     1 has atomic number  6 and mass  12.00000

 Molecular mass:    64.03130 amu.
 Principal axes and moments of inertia in atomic units:
                           1         2         3
     Eigenvalues --   133.25611 348.50261 475.91294
           X            0.02941   0.00000   0.99957
           Y            0.99957   0.00000  -0.02941
           Z            0.00000   1.00000  -0.00000
 This molecule is an asymmetric top.
 Rotational symmetry number  1.
 Rotational temperatures (Kelvin)      0.64998     0.24853     0.18200
 Rotational constants (GHZ):          13.54340     5.17856     3.79217
 Zero-point vibrational energy     143087.9 (Joules/Mol)
                                   34.19883 (Kcal/Mol)
 Warning -- explicit consideration of   6 degrees of freedom as
           vibrations may cause significant error
 Vibrational temperatures:    168.16   477.88   588.75   641.90   795.81
          (Kelvin)            834.68   982.86  1222.26  1358.75  1406.93
                             1440.07  1490.40  1593.33  1617.79  1778.53
                             1813.92  1921.02  2345.35  3331.37  4304.18
                             4305.03

 Zero-point correction=                           0.054499 (Hartree/Particle)
 Thermal correction to Energy=                    0.059769
 Thermal correction to Enthalpy=                  0.060713
 Thermal correction to Gibbs Free Energy=         0.025546
 Sum of electronic and zero-point Energies=           -190.969575
 Sum of electronic and thermal Energies=              -190.964305
 Sum of electronic and thermal Enthalpies=            -190.963361
 Sum of electronic and thermal Free Energies=         -190.998529

                     E (Thermal)             CV                S
                      KCal/Mol        Cal/Mol-Kelvin    Cal/Mol-Kelvin
 Total                   37.506             18.597             74.017
 Electronic               0.000              0.000              2.755
 Translational            0.889              2.981             38.389
 Rotational               0.889              2.981             24.606
 Vibrational             35.728             12.635              8.267
 Vibration     1          0.608              1.935              3.151
 Vibration     2          0.714              1.611              1.250
 Vibration     3          0.774              1.450              0.929
 Vibration     4          0.805              1.369              0.808
 Vibration     5          0.908              1.133              0.538
 Vibration     6          0.937              1.074              0.485

 Optimization completed.
    -- Stationary point found.
 Normal termination of Gaussian 09 at Thu Jan 31 08:43:12 2019.
