 Gaussian 09, Revision E.01,
 Gaussian 09:  EM64L-G09RevE.01 30-Nov-2015

 ---------------------------------------------
 #p b3lyp/6-311++G(3df,2p) freq symmetry=Loose
 ---------------------------------------------

 ---------
 b3lyp opt
 ---------
 Symbolic Z-matrix:
 Charge =  0 Multiplicity = 3

                         Standard orientation:
 ---------------------------------------------------------------------
 Center     Atomic      Atomic             Coordinates (Angstroms)
 Number     Number       Type             X           Y           Z
 ---------------------------------------------------------------------
      1          6           0       -1.231852   -1.049039    0.010164
      2          1           0       -1.056771   -1.658785   -0.876217
      3          1           0       -1.002409   -1.659672    0.883605
      4          1           0       -2.280747   -0.761327    0.042815
      5          6           0        1.059949   -0.001841   -0.069208
      6          6           0        2.315056   -0.169389    0.048708
      7          6           0       -0.318055    0.163387   -0.015666
      8          6           0       -0.805229    1.422207    0.009324
      9          1           0       -1.779284    1.887839    0.049868
 ---------------------------------------------------------------------

 SCF Done:  E(UB3LYP) =  -192.724206682     A.U. after   24 cycles

 The electronic state is 3-A.
 Alpha  occ. eigenvalues --  -10.26310 -10.25662 -10.20601 -10.19850 -10.19706
 Alpha  occ. eigenvalues --   -0.87449  -0.76258  -0.73597  -0.64320  -0.52582
 Alpha  occ. eigenvalues --   -0.48552  -0.46260  -0.43283  -0.36977  -0.30292
 Alpha  occ. eigenvalues --   -0.29155  -0.28413  -0.28134
 Alpha virt. eigenvalues --   -0.07942  -0.01946   0.00077   0.01805   0.02503
 Alpha virt. eigenvalues --    0.02938   0.04394   0.05868   0.06163   0.06518
 Alpha virt. eigenvalues --    0.06784   0.07952   0.08547   0.10230   0.10774

  Beta  occ. eigenvalues --  -10.25887 -10.24107 -10.20474 -10.19317 -10.19155
  Beta  occ. eigenvalues --   -0.86042  -0.74017  -0.71098  -0.62293  -0.51008
  Beta  occ. eigenvalues --   -0.47207  -0.46009  -0.42865  -0.33852  -0.27543
  Beta  occ. eigenvalues --   -0.27400
  Beta virt. eigenvalues --   -0.18049  -0.12602  -0.04459  -0.01825   0.00382
  Beta virt. eigenvalues --    0.02227   0.02835   0.03377   0.04538   0.06629
  Beta virt. eigenvalues --    0.06797   0.07221   0.07864   0.08252   0.08831

 Mulliken charges and spin densities:
               1          2
     1  C   -0.507341   0.035804
     2  H    0.172707   0.001086
     3  H    0.170299   0.001481
     4  H    0.148445  -0.001736
     5  C    0.635734   0.324689
     6  C   -0.634691   0.301407
     7  C    0.150096  -0.073047
     8  C   -0.354941   1.393408
     9  H    0.219693   0.016908
 Sum of Mulliken charges =  -0.00000   2.00000

 Dipole moment (field-independent basis, Debye):
    X=             -5.6909    Y=              0.2740    Z=             -0.2396  Tot=              5.7026
 Quadrupole moment (field-independent basis, Debye-Ang):
   XX=            -38.8977   YY=            -28.9247   ZZ=            -30.2327
   XY=             -0.4879   XZ=             -1.0190   YZ=              0.1722

  Exact polarizability: 101.898 -12.413  62.321  -4.367   1.100  43.537
 Approx polarizability: 147.532 -26.859  91.065  -0.465   0.570  61.733

                      1                      2                      3
                      A                      A                      A
 Frequencies --    109.7923               142.5887               166.3807
 Red. masses --      1.0969                 5.2617                 5.5995
 Frc consts  --      0.0078                 0.0630                 0.0913
 IR Inten    --      3.7110                36.8780                 3.3209

                      4                      5                      6
                      A                      A                      A
 Frequencies --    349.1131               481.3414               510.7670
 Red. masses --      2.4561                 3.2513                 5.4661
 Frc consts  --      0.1764                 0.4438                 0.8402
 IR Inten    --      1.8716                41.0624                 1.1212

                      7                      8                      9
                      A                      A                      A
 Frequencies --    682.4710               770.3366               862.1077
 Red. masses --      1.2650                 3.9199                 1.5591
 Frc consts  --      0.3471                 1.3705                 0.6827
 IR Inten    --     17.1306                 6.0392                20.7279

                     10                     11                     12
                      A                      A                      A
 Frequencies --   1015.0050              1027.3516              1197.1487
 Red. masses --      1.6317                 1.4594                 4.4284
 Frc consts  --      0.9904                 0.9075                 3.7393
 IR Inten    --      9.2325                 3.0988                16.9902

                     13                     14                     15
                      A                      A                      A
 Frequencies --   1391.4355              1419.9984              1478.4625
 Red. masses --      1.5816                 2.1845                 1.0437
 Frc consts  --      1.8041                 2.5952                 1.3442
 IR Inten    --     30.0091                46.1484                 8.9619

                     16                     17                     18
                      A                      A                      A
 Frequencies --   1494.2760              1929.4982              3036.8496
 Red. masses --      1.1997                11.9497                 1.0334
 Frc consts  --      1.5783                26.2117                 5.6149
 IR Inten    --     35.4748                31.6556                 5.3439

                     19                     20                     21
                      A                      A                      A
 Frequencies --   3102.2849              3120.0671              3215.0082
 Red. masses --      1.1013                 1.1037                 1.0961
 Frc consts  --      6.2450                 6.3302                 6.6754
 IR Inten    --      2.4692                 9.8498                 0.3757

 - Thermochemistry -
 -------------------
 Temperature   298.150 Kelvin.  Pressure   1.00000 Atm.
 Atom     1 has atomic number  6 and mass  12.00000

 Molecular mass:    64.03130 amu.
 Principal axes and moments of inertia in atomic units:
                           1         2         3
     Eigenvalues --   176.37839 416.77946 581.33222
           X            0.99956   0.02952  -0.00135
           Y           -0.02952   0.99956   0.00091
           Z            0.00137  -0.00087   1.00000
 This molecule is an asymmetric top.
 Rotational symmetry number  1.
 Rotational temperatures (Kelvin)      0.49107     0.20782     0.14899
 Rotational constants (GHZ):          10.23221     4.33021     3.10449
 Zero-point vibrational energy     164500.2 (Joules/Mol)
                                   39.31649 (Kcal/Mol)
 Warning -- explicit consideration of   6 degrees of freedom as
           vibrations may cause significant error
 Vibrational temperatures:    157.97   205.15   239.38   502.30   692.54
          (Kelvin)            734.88   981.92  1108.34  1240.38  1460.36
                             1478.13  1722.43  2001.96  2043.06  2127.18
                             2149.93  2776.11  4369.34  4463.49  4489.08
                             4625.67

 Zero-point correction=                           0.062655 (Hartree/Particle)
 Thermal correction to Energy=                    0.068672
 Thermal correction to Enthalpy=                  0.069616
 Thermal correction to Gibbs Free Energy=         0.032624
 Sum of electronic and zero-point Energies=           -192.661552
 Sum of electronic and thermal Energies=              -192.655535
 Sum of electronic and thermal Enthalpies=            -192.654590
 Sum of electronic and thermal Free Energies=         -192.691583

                     E (Thermal)             CV                S
                      KCal/Mol        Cal/Mol-Kelvin    Cal/Mol-Kelvin
 Total                   43.092             19.207             77.858
 Electronic               0.000              0.000              2.183
 Translational            0.889              2.981             38.389
 Rotational               0.889              2.981             25.261
 Vibrational             41.315             13.245             12.024
 Vibration     1          0.606              1.941              3.273
 Vibration     2          0.616              1.911              2.769
 Vibration     3          0.624              1.884              2.476
 Vibration     4          0.726              1.577              1.170
 Vibration     5          0.838              1.291              0.706
 Vibration     6          0.866              1.226              0.632

 Normal termination of Gaussian 09 at Wed Jun 22 04:46:19 2016.
