 Gaussian 09, Revision E.01,
 Gaussian 09:  EM64L-G09RevE.01 30-Nov-2015

 ------------------------------------------------------
 #p b3lyp/6-311++G(3df,2p) freq IOp(2/17=3) IOp(2/18=3)
 ------------------------------------------------------

 ---------
 b3lyp opt
 ---------
 Symbolic Z-matrix:
 Charge =  3 Multiplicity = 2

                         Standard orientation:
 ---------------------------------------------------------------------
 Center     Atomic      Atomic             Coordinates (Angstroms)
 Number     Number       Type             X           Y           Z
 ---------------------------------------------------------------------
      1          6           0        0.115506   -1.513845   -0.000000
      2          6           0       -0.286319   -0.613346   -1.019769
      3          1           0       -0.698912   -0.639874   -2.051368
      4          6           0       -0.000000    0.392874    0.000000
      5          6           0       -0.286319   -0.613346    1.019769
      6          1           0       -0.698912   -0.639874    2.051368
      7          1           0        1.566170    2.032207    0.000000
      8          6           0        0.473728    1.785038    0.000000
      9          1           0       -0.270845    2.623896    0.000000
 ---------------------------------------------------------------------

 SCF Done:  E(UB3LYP) =  -191.123401470     A.U. after   14 cycles

 The electronic state is 2-A'.
 Alpha  occ. eigenvalues --  -11.02971 -11.02958 -11.02892 -11.00854 -11.00852
 Alpha  occ. eigenvalues --   -1.70293  -1.49420  -1.39886  -1.32435  -1.23840
 Alpha  occ. eigenvalues --   -1.20359  -1.16982  -1.16812  -1.13457  -1.10194
 Alpha  occ. eigenvalues --   -1.01484
 Alpha virt. eigenvalues --   -0.86081  -0.81704  -0.80951  -0.70874  -0.54992
 Alpha virt. eigenvalues --   -0.53024  -0.50664  -0.49195  -0.47252  -0.46121
 Alpha virt. eigenvalues --   -0.45385  -0.45178  -0.42420  -0.41940  -0.40301

  Beta  occ. eigenvalues --  -11.02923 -11.02623 -11.01090 -11.00821 -11.00815
  Beta  occ. eigenvalues --   -1.69378  -1.48879  -1.39582  -1.30468  -1.23653
  Beta  occ. eigenvalues --   -1.18863  -1.16381  -1.16114  -1.13098  -1.09154
  Beta virt. eigenvalues --   -0.86044  -0.84718  -0.81912  -0.77489  -0.68876
  Beta virt. eigenvalues --   -0.54298  -0.52733  -0.50424  -0.48736  -0.46292
  Beta virt. eigenvalues --   -0.45894  -0.45157  -0.44922  -0.41735  -0.41553

 Mulliken charges and spin densities:
               1          2
     1  C    0.470021   0.897362
     2  C    0.302543  -0.014097
     3  H    0.413402   0.003026
     4  C    0.410236   0.124407
     5  C    0.302543  -0.014097
     6  H    0.413402   0.003026
     7  H    0.373135   0.010605
     8  C   -0.060557  -0.011162
     9  H    0.375275   0.000930
 Sum of Mulliken charges =   3.00000   1.00000

 Dipole moment (field-independent basis, Debye):
    X=              0.2374    Y=              3.2531    Z=             -0.0000  Tot=              3.2618
 Quadrupole moment (field-independent basis, Debye-Ang):
   XX=            -16.3838   YY=              9.9634   ZZ=             -5.1131
   XY=              7.0540   XZ=              0.0000   YZ=              0.0000

  Exact polarizability:  25.912   4.200  51.113  -0.000  -0.000  37.639
 Approx polarizability:  38.661   4.213  88.514  -0.000   0.000  65.889

                      1                      2                      3
                     A'                     A"                     A"
 Frequencies --    273.8816               275.4760               315.5989
 Red. masses --      3.8480                 1.0640                 2.9887
 Frc consts  --      0.1701                 0.0476                 0.1754
 IR Inten    --      4.1598                 1.3211                 6.4286

                      4                      5                      6
                     A'                     A'                     A'
 Frequencies --    408.5914               605.5885               754.3873
 Red. masses --      2.2304                 3.7182                 2.5864
 Frc consts  --      0.2194                 0.8034                 0.8672
 IR Inten    --     23.8321                14.7653                 3.9568

                      7                      8                      9
                     A"                     A'                     A'
 Frequencies --    873.9657               955.0595               960.6383
 Red. masses --      2.7786                 1.6502                 1.8950
 Frc consts  --      1.2505                 0.8868                 1.0303
 IR Inten    --     56.0303                27.0604                13.2860

                     10                     11                     12
                     A"                     A'                     A"
 Frequencies --   1006.6400              1059.8260              1082.5919
 Red. masses --      1.8437                 1.5948                 1.1730
 Frc consts  --      1.1008                 1.0554                 0.8100
 IR Inten    --      5.2389                32.3934                 0.6294

                     13                     14                     15
                     A"                     A'                     A"
 Frequencies --   1178.1872              1228.2870              1300.9559
 Red. masses --      1.7959                 3.8534                 3.9527
 Frc consts  --      1.4688                 3.4253                 3.9416
 IR Inten    --     40.6649                48.8844                81.7625

                     16                     17                     18
                     A'                     A'                     A'
 Frequencies --   1326.5007              1351.3552              2786.8022
 Red. masses --      1.7725                 2.0227                 1.0462
 Frc consts  --      1.8376                 2.1763                 4.7872
 IR Inten    --      0.2837               104.1986               502.2636

                     19                     20                     21
                     A'                     A"                     A'
 Frequencies --   2894.5855              2945.1101              2955.8462
 Red. masses --      1.1262                 1.1143                 1.1160
 Frc consts  --      5.5597                 5.6943                 5.7446
 IR Inten    --    286.3387               617.5379                79.7222

 - Thermochemistry -
 -------------------
 Temperature   298.150 Kelvin.  Pressure   1.00000 Atm.
 Atom     1 has atomic number  6 and mass  12.00000

 Molecular mass:    64.03130 amu.
 Principal axes and moments of inertia in atomic units:
                           1         2         3
     Eigenvalues --   138.68293 345.39331 445.54569
           X            0.18548   0.00000   0.98265
           Y            0.98265   0.00000  -0.18548
           Z           -0.00000   1.00000  -0.00000
 This molecule is an asymmetric top.
 Rotational symmetry number  1.
 Rotational temperatures (Kelvin)      0.62455     0.25077     0.19440
 Rotational constants (GHZ):          13.01343     5.22518     4.05063
 Zero-point vibrational energy     158743.7 (Joules/Mol)
                                   37.94066 (Kcal/Mol)
 Warning -- explicit consideration of   5 degrees of freedom as
           vibrations may cause significant error
 Vibrational temperatures:    394.05   396.35   454.08   587.87   871.31
          (Kelvin)           1085.39  1257.44  1374.12  1382.14  1448.33
                             1524.85  1557.61  1695.15  1767.23  1871.78
                             1908.54  1944.30  4009.58  4164.66  4237.35
                             4252.80

 Zero-point correction=                           0.060462 (Hartree/Particle)
 Thermal correction to Energy=                    0.065454
 Thermal correction to Enthalpy=                  0.066398
 Thermal correction to Gibbs Free Energy=         0.032575
 Sum of electronic and zero-point Energies=           -191.062939
 Sum of electronic and thermal Energies=              -191.057948
 Sum of electronic and thermal Enthalpies=            -191.057004
 Sum of electronic and thermal Free Energies=         -191.090827

                     E (Thermal)             CV                S
                      KCal/Mol        Cal/Mol-Kelvin    Cal/Mol-Kelvin
 Total                   41.073             17.431             71.187
 Electronic               0.000              0.000              1.377
 Translational            0.889              2.981             38.389
 Rotational               0.889              2.981             24.571
 Vibrational             39.295             11.470              6.849
 Vibration     1          0.676              1.722              1.572
 Vibration     2          0.677              1.719              1.562
 Vibration     3          0.703              1.644              1.333
 Vibration     4          0.773              1.452              0.932
 Vibration     5          0.964              1.020              0.440

 Optimization completed.
    -- Stationary point found.
 Normal termination of Gaussian 09 at Thu Jan 31 08:21:11 2019.
