 Gaussian 09, Revision E.01,
 Gaussian 09:  EM64L-G09RevE.01 30-Nov-2015

 ---------------------------------------------
 #p b3lyp/6-311++G(3df,2p) freq symmetry=Loose
 ---------------------------------------------

 ---------
 b3lyp opt
 ---------
 Symbolic Z-matrix:
 Charge =  1 Multiplicity = 4

                         Standard orientation:
 ---------------------------------------------------------------------
 Center     Atomic      Atomic             Coordinates (Angstroms)
 Number     Number       Type             X           Y           Z
 ---------------------------------------------------------------------
      1          6           0        1.369754   -0.692848   -0.501052
      2          6           0        0.230232   -0.296241    0.069281
      3          1           0        2.026851    0.661682    1.133068
      4          6           0       -1.174792   -0.345417    0.341520
      5          1           0       -1.446147    0.121544    1.316053
      6          1           0       -1.597122   -1.359663    0.316336
      7          6           0       -2.035617    0.598663   -0.465779
      8          6           0        1.520390    0.580632    0.165210
      9          1           0        1.556614    1.507708   -0.420538
 ---------------------------------------------------------------------

 SCF Done:  E(UB3LYP) =  -192.293885539     A.U. after   21 cycles

 The electronic state is 4-A.
 Alpha  occ. eigenvalues --  -10.50641 -10.49762 -10.49448 -10.45530 -10.45374
 Alpha  occ. eigenvalues --   -1.16779  -1.04999  -0.87243  -0.83179  -0.75462
 Alpha  occ. eigenvalues --   -0.71740  -0.70150  -0.66350  -0.62681  -0.56668
 Alpha  occ. eigenvalues --   -0.51481  -0.50190  -0.45871
 Alpha virt. eigenvalues --   -0.33562  -0.27321  -0.16173  -0.15674  -0.13652
 Alpha virt. eigenvalues --   -0.12034  -0.11073  -0.09904  -0.08812  -0.07488
 Alpha virt. eigenvalues --   -0.07051  -0.05571  -0.04723  -0.03797  -0.03481

  Beta  occ. eigenvalues --  -10.49025 -10.48742 -10.47560 -10.45499 -10.45028
  Beta  occ. eigenvalues --   -1.14116  -1.03205  -0.84461  -0.79772  -0.72836
  Beta  occ. eigenvalues --   -0.70102  -0.67675  -0.60973  -0.60662  -0.51067
  Beta virt. eigenvalues --   -0.41615  -0.36237  -0.31366  -0.28737  -0.21889
  Beta virt. eigenvalues --   -0.15730  -0.14471  -0.13225  -0.11666  -0.10450
  Beta virt. eigenvalues --   -0.09440  -0.08332  -0.06871  -0.06092  -0.05087

 Mulliken charges and spin densities:
               1          2
     1  C    0.235554   1.098095
     2  C    0.484280   0.333035
     3  H    0.238697   0.067640
     4  C   -0.180192  -0.008494
     5  H    0.250643   0.026939
     6  H    0.225525   0.053220
     7  C   -0.113732   1.205590
     8  C   -0.373364   0.150858
     9  H    0.232590   0.073117
 Sum of Mulliken charges =   1.00000   3.00000

 Dipole moment (field-independent basis, Debye):
    X=              0.3561    Y=              0.0685    Z=              1.5909  Tot=              1.6317
 Quadrupole moment (field-independent basis, Debye-Ang):
   XX=            -17.6044   YY=            -24.4697   ZZ=            -24.4627
   XY=              4.1953   XZ=             -1.1457   YZ=              0.5942

  Exact polarizability: 111.508 -10.534  48.646   6.499  -0.154  41.519
 Approx polarizability: 193.221 -32.409  81.061  14.762   0.559  69.084

                      1                      2                      3
                      A                      A                      A
 Frequencies --    117.5598               174.4188               310.3723
 Red. masses --      3.6827                 5.7676                 2.3684
 Frc consts  --      0.0300                 0.1034                 0.1344
 IR Inten    --      3.0946                 2.7087                 4.0632

                      4                      5                      6
                      A                      A                      A
 Frequencies --    480.5099               525.9121               636.7644
 Red. masses --      3.1108                 1.7096                 5.0253
 Frc consts  --      0.4232                 0.2786                 1.2005
 IR Inten    --      2.2090                 3.9892                12.7797

                      7                      8                      9
                      A                      A                      A
 Frequencies --    822.7424               858.0383               866.6368
 Red. masses --      1.3177                 1.3554                 3.7690
 Frc consts  --      0.5255                 0.5879                 1.6678
 IR Inten    --      5.8207                 7.3282                27.7946

                     10                     11                     12
                      A                      A                      A
 Frequencies --    947.6840              1009.4113              1079.8141
 Red. masses --      4.0997                 1.3072                 1.4293
 Frc consts  --      2.1693                 0.7847                 0.9819
 IR Inten    --    147.8347                94.3959               110.6470

                     13                     14                     15
                      A                      A                      A
 Frequencies --   1104.1342              1152.3201              1319.7889
 Red. masses --      2.9981                 1.5196                 1.1338
 Frc consts  --      2.1535                 1.1889                 1.1636
 IR Inten    --    111.4745                12.0776                32.5766

                     16                     17                     18
                      A                      A                      A
 Frequencies --   1365.4498              1675.1424              2871.8121
 Red. masses --      1.0854                11.2770                 1.0677
 Frc consts  --      1.1923                18.6444                 5.1881
 IR Inten    --     41.1026                70.8838                77.9271

                     19                     20                     21
                      A                      A                      A
 Frequencies --   2970.8790              2997.7198              3038.0659
 Red. masses --      1.0476                 1.0856                 1.1054
 Frc consts  --      5.4479                 5.7480                 6.0110
 IR Inten    --    154.1656                30.5172                39.9687

 - Thermochemistry -
 -------------------
 Temperature   298.150 Kelvin.  Pressure   1.00000 Atm.
 Atom     1 has atomic number  6 and mass  12.00000

 Molecular mass:    64.03130 amu.
 Principal axes and moments of inertia in atomic units:
                           1         2         3
     Eigenvalues --   112.56818 497.66870 534.33185
           X            0.99861   0.05233  -0.00701
           Y           -0.05243   0.99851  -0.01508
           Z            0.00621   0.01543   0.99986
 This molecule is an asymmetric top.
 Rotational symmetry number  1.
 Rotational temperatures (Kelvin)      0.76943     0.17404     0.16210
 Rotational constants (GHZ):          16.03243     3.62639     3.37757
 Zero-point vibrational energy     157459.5 (Joules/Mol)
                                   37.63373 (Kcal/Mol)
 Warning -- explicit consideration of   5 degrees of freedom as
           vibrations may cause significant error
 Vibrational temperatures:    169.14   250.95   446.56   691.35   756.67
          (Kelvin)            916.16  1183.74  1234.52  1246.90  1363.50
                             1452.32  1553.61  1588.60  1657.93  1898.88
                             1964.58  2410.15  4131.89  4274.43  4313.04
                             4371.09

 Zero-point correction=                           0.059973 (Hartree/Particle)
 Thermal correction to Energy=                    0.065472
 Thermal correction to Enthalpy=                  0.066416
 Thermal correction to Gibbs Free Energy=         0.030503
 Sum of electronic and zero-point Energies=           -192.233912
 Sum of electronic and thermal Energies=              -192.228413
 Sum of electronic and thermal Enthalpies=            -192.227469
 Sum of electronic and thermal Free Energies=         -192.263382

                     E (Thermal)             CV                S
                      KCal/Mol        Cal/Mol-Kelvin    Cal/Mol-Kelvin
 Total                   41.084             18.502             75.585
 Electronic               0.000              0.000              2.755
 Translational            0.889              2.981             38.389
 Rotational               0.889              2.981             24.907
 Vibrational             39.307             12.541              9.534
 Vibration     1          0.608              1.935              3.140
 Vibration     2          0.627              1.874              2.387
 Vibration     3          0.699              1.654              1.360
 Vibration     4          0.837              1.293              0.709
 Vibration     5          0.881              1.193              0.596

 Optimization completed.
    -- Stationary point found.
 Normal termination of Gaussian 09 at Mon Jun 20 05:52:13 2016.
