 Gaussian 09, Revision E.01,
 Gaussian 09:  EM64L-G09RevE.01 30-Nov-2015

 ---------------------------------------------
 #p b3lyp/6-311++G(3df,2p) freq symmetry=Loose
 ---------------------------------------------

 ---------
 b3lyp opt
 ---------
 Symbolic Z-matrix:
 Charge =  2 Multiplicity = 3

                         Standard orientation:
 ---------------------------------------------------------------------
 Center     Atomic      Atomic             Coordinates (Angstroms)
 Number     Number       Type             X           Y           Z
 ---------------------------------------------------------------------
      1          6           0       -0.000000    0.000000    2.303182
      2          6           0        0.000000    1.225441   -1.057015
      3          1           0        0.000000    1.240203   -2.147173
      4          1           0        0.000000    2.184647   -0.539582
      5          6           0       -0.000000    0.000000    1.058202
      6          6           0        0.000000    0.000000   -0.351770
      7          6           0       -0.000000   -1.225441   -1.057015
      8          1           0       -0.000000   -2.184647   -0.539582
      9          1           0       -0.000000   -1.240203   -2.147173
 ---------------------------------------------------------------------

 SCF Done:  E(UB3LYP) =  -191.882105552     A.U. after   14 cycles

 The electronic state is 3-B1.
 Alpha  occ. eigenvalues --  -10.75957 -10.71541 -10.71541 -10.70857 -10.70091
 Alpha  occ. eigenvalues --   -1.32617  -1.25689  -1.16336  -1.09377  -0.97269
 Alpha  occ. eigenvalues --   -0.93039  -0.88357  -0.85966  -0.85346  -0.85276
 Alpha  occ. eigenvalues --   -0.77497  -0.76579
 Alpha virt. eigenvalues --   -0.59986  -0.50748  -0.44570  -0.36237  -0.33077
 Alpha virt. eigenvalues --   -0.29977  -0.27382  -0.27380  -0.26135  -0.24566
 Alpha virt. eigenvalues --   -0.24190  -0.21905  -0.20481  -0.19627  -0.19510

  Beta  occ. eigenvalues --  -10.72754 -10.71407 -10.71407 -10.70313 -10.70024
  Beta  occ. eigenvalues --   -1.31735  -1.21203  -1.15912  -1.08182  -0.96916
  Beta  occ. eigenvalues --   -0.92974  -0.87408  -0.85850  -0.81896  -0.75171
  Beta virt. eigenvalues --   -0.64866  -0.61584  -0.58480  -0.46014  -0.41194
  Beta virt. eigenvalues --   -0.32873  -0.31428  -0.29749  -0.27354  -0.27196
  Beta virt. eigenvalues --   -0.25973  -0.24131  -0.23969  -0.20941  -0.20034

 Mulliken charges and spin densities:
               1          2
     1  C    0.333188   1.552859
     2  C   -0.288009   0.065279
     3  H    0.282857  -0.002767
     4  H    0.293436  -0.002840
     5  C    0.017030   0.266508
     6  C    1.073213   0.061289
     7  C   -0.288009   0.065279
     8  H    0.293436  -0.002840
     9  H    0.282857  -0.002767
 Sum of Mulliken charges =   2.00000   2.00000

 Dipole moment (field-independent basis, Debye):
    X=             -0.0000    Y=              0.0000    Z=             -1.2382  Tot=              1.2382
 Quadrupole moment (field-independent basis, Debye-Ang):
   XX=            -24.3011   YY=             -8.9281   ZZ=              3.3647
   XY=              0.0000   XZ=              0.0000   YZ=              0.0000

  Exact polarizability:  25.149   0.000  52.629  -0.000   0.000  70.670
 Approx polarizability:  37.322   0.000  80.648   0.000   0.000 113.875

                      1                      2                      3
                     B2                     B1                     B1
 Frequencies --    177.8705               263.5233               344.9241
 Red. masses --      5.3745                 2.8728                 1.3358
 Frc consts  --      0.1002                 0.1175                 0.0936
 IR Inten    --      0.9137                10.6543                10.4514

                      4                      5                      6
                     A1                     B2                     A2
 Frequencies --    404.1469               521.3223               524.1223
 Red. masses --      2.3739                 4.9328                 1.0113
 Frc consts  --      0.2284                 0.7899                 0.1637
 IR Inten    --      0.5731                 6.9302                 0.0000

                      7                      8                      9
                     B1                     A1                     B2
 Frequencies --    600.6551               815.0717               987.4734
 Red. masses --      4.5103                 4.4632                 1.3179
 Frc consts  --      0.9588                 1.7470                 0.7572
 IR Inten    --      5.0067                 0.0001                13.9814

                     10                     11                     12
                     A1                     A2                     B1
 Frequencies --   1009.3134              1166.2756              1188.2802
 Red. masses --      1.7416                 1.3183                 1.4494
 Frc consts  --      1.0454                 1.0565                 1.2058
 IR Inten    --     56.0589                 0.0000                14.6097

                     13                     14                     15
                     A1                     B2                     B2
 Frequencies --   1314.6100              1353.7870              1504.9807
 Red. masses --      3.5495                 2.8195                 1.4377
 Frc consts  --      3.6142                 3.0446                 1.9186
 IR Inten    --    133.7697               325.2876                10.7361

                     16                     17                     18
                     A1                     A1                     B2
 Frequencies --   1515.4065              2086.9111              3087.6170
 Red. masses --      1.2095                11.9827                 1.0596
 Frc consts  --      1.6365                30.7477                 5.9516
 IR Inten    --      0.0300                 2.1337                84.1069

                     19                     20                     21
                     A1                     B2                     A1
 Frequencies --   3090.3962              3196.1597              3199.0210
 Red. masses --      1.0573                 1.1243                 1.1263
 Frc consts  --      5.9497                 6.7667                 6.7911
 IR Inten    --     38.6693                32.5348                94.0391

 - Thermochemistry -
 -------------------
 Temperature   298.150 Kelvin.  Pressure   1.00000 Atm.
 Atom     1 has atomic number  6 and mass  12.00000

 Molecular mass:    64.03130 amu.
 Principal axes and moments of inertia in atomic units:
                           1         2         3
     Eigenvalues --   174.12955 410.06065 584.19019
           X            0.00000   0.00000   1.00000
           Y           -0.00000   1.00000  -0.00000
           Z            1.00000   0.00000  -0.00000
 This molecule is an asymmetric top.
 Rotational symmetry number  2.
 Rotational temperatures (Kelvin)      0.49741     0.21122     0.14826
 Rotational constants (GHZ):          10.36436     4.40116     3.08930
 Zero-point vibrational energy     169581.8 (Joules/Mol)
                                   40.53103 (Kcal/Mol)
 Warning -- explicit consideration of   7 degrees of freedom as
           vibrations may cause significant error
 Vibrational temperatures:    255.92   379.15   496.27   581.48   750.07
          (Kelvin)            754.09   864.21  1172.70  1420.75  1452.18
                             1678.01  1709.67  1891.43  1947.80  2165.33
                             2180.33  3002.60  4442.39  4446.39  4598.56
                             4602.67

 Zero-point correction=                           0.064590 (Hartree/Particle)
 Thermal correction to Energy=                    0.069949
 Thermal correction to Enthalpy=                  0.070893
 Thermal correction to Gibbs Free Energy=         0.036323
 Sum of electronic and zero-point Energies=           -191.817515
 Sum of electronic and thermal Energies=              -191.812157
 Sum of electronic and thermal Enthalpies=            -191.811212
 Sum of electronic and thermal Free Energies=         -191.845783

                     E (Thermal)             CV                S
                      KCal/Mol        Cal/Mol-Kelvin    Cal/Mol-Kelvin
 Total                   43.894             18.291             72.759
 Electronic               0.000              0.000              2.183
 Translational            0.889              2.981             38.389
 Rotational               0.889              2.981             23.860
 Vibrational             42.116             12.329              8.327
 Vibration     1          0.628              1.870              2.351
 Vibration     2          0.670              1.740              1.638
 Vibration     3          0.723              1.586              1.189
 Vibration     4          0.769              1.461              0.948
 Vibration     5          0.876              1.203              0.607
 Vibration     6          0.879              1.197              0.600
 Vibration     7          0.959              1.030              0.449

 Optimization completed.
    -- Stationary point found.
 Normal termination of Gaussian 09 at Wed Jul 20 02:01:10 2016.
