 Gaussian 09, Revision E.01,
 Gaussian 09:  EM64L-G09RevE.01 30-Nov-2015

 ------------------------------------------------------
 #p b3lyp/6-311++G(3df,2p) freq IOp(2/17=3) IOp(2/18=3)
 ------------------------------------------------------

 ---------
 b3lyp opt
 ---------
 Symbolic Z-matrix:
 Charge =  3 Multiplicity = 4

                         Standard orientation:
 ---------------------------------------------------------------------
 Center     Atomic      Atomic             Coordinates (Angstroms)
 Number     Number       Type             X           Y           Z
 ---------------------------------------------------------------------
      1          6           0        0.000000    0.882635    0.000000
      2          6           0       -2.006865   -1.011729    0.000000
      3          6           0       -1.008954   -0.131865    0.000000
      4          1           0       -0.162750    1.623140   -0.852910
      5          1           0       -2.477163   -1.399144    0.953565
      6          1           0       -2.477163   -1.399144   -0.953565
      7          1           0       -0.162750    1.623140    0.852910
      8          6           0        1.351915    0.322630    0.000000
      9          6           0        2.543879   -0.136338    0.000000
 ---------------------------------------------------------------------

 SCF Done:  E(UB3LYP) =  -191.029715784     A.U. after   20 cycles

 The electronic state is 4-A".
 Alpha  occ. eigenvalues --  -11.03273 -11.02424 -10.98095 -10.94281 -10.92754
 Alpha  occ. eigenvalues --   -1.56033  -1.51309  -1.45245  -1.26989  -1.20330
 Alpha  occ. eigenvalues --   -1.16945  -1.14664  -1.09977  -1.08426  -1.02574
 Alpha  occ. eigenvalues --   -1.01908  -1.01141
 Alpha virt. eigenvalues --   -0.81124  -0.72679  -0.70109  -0.68530  -0.55771
 Alpha virt. eigenvalues --   -0.47952  -0.47136  -0.46785  -0.44514  -0.43427
 Alpha virt. eigenvalues --   -0.43341  -0.41787  -0.38788  -0.38608  -0.36240

  Beta  occ. eigenvalues --  -11.02477 -10.98847 -10.96986 -10.93799 -10.92763
  Beta  occ. eigenvalues --   -1.53783  -1.46658  -1.41588  -1.25437  -1.18718
  Beta  occ. eigenvalues --   -1.16182  -1.13566  -1.08674  -0.96334
  Beta virt. eigenvalues --   -0.90641  -0.86740  -0.82710  -0.79787  -0.67805
  Beta virt. eigenvalues --   -0.62587  -0.60618  -0.54734  -0.46989  -0.46335
  Beta virt. eigenvalues --   -0.45851  -0.43649  -0.43243  -0.42380  -0.40894

 Mulliken charges and spin densities:
               1          2
     1  C   -0.790515   0.070967
     2  C    0.047543   0.305381
     3  C    0.881951   0.474608
     4  H    0.343946   0.017814
     5  H    0.371535  -0.009070
     6  H    0.371535  -0.009070
     7  H    0.343946   0.017814
     8  C    0.751159   0.578684
     9  C    0.678901   1.552872
 Sum of Mulliken charges =   3.00000   3.00000

 Dipole moment (field-independent basis, Debye):
    X=             -1.6802    Y=             -1.0039    Z=             -0.0000  Tot=              1.9572
 Quadrupole moment (field-independent basis, Debye-Ang):
   XX=             31.9032   YY=             -7.4061   ZZ=            -17.1556
   XY=             12.2587   XZ=              0.0000   YZ=              0.0000

  Exact polarizability: 141.094  22.763  43.532   0.000   0.000  27.735
 Approx polarizability: 302.485  43.206  71.433  -0.000   0.000  41.216

                      1                      2                      3
                     A'                     A"                     A"
 Frequencies --    132.5252               174.5471               309.7089
 Red. masses --      5.3889                 1.0786                 1.5374
 Frc consts  --      0.0558                 0.0194                 0.0869
 IR Inten    --     21.2145                 0.0494                43.6762

                      4                      5                      6
                     A'                     A"                     A'
 Frequencies --    311.7768               362.8843               463.3293
 Red. masses --      6.0667                 2.9800                 7.8381
 Frc consts  --      0.3475                 0.2312                 0.9914
 IR Inten    --      2.2214                 3.9048                55.8066

                      7                      8                      9
                     A"                     A'                     A"
 Frequencies --    608.2307               822.3776               829.5879
 Red. masses --      1.6559                 4.7493                 2.2369
 Frc consts  --      0.3609                 1.8925                 0.9070
 IR Inten    --      0.8924                34.0192                31.5265

                     10                     11                     12
                     A'                     A'                     A'
 Frequencies --    851.9352               920.8462              1062.7086
 Red. masses --      3.1461                 1.4009                 1.0812
 Frc consts  --      1.3454                 0.6999                 0.7194
 IR Inten    --     87.3076                36.1751               236.9474

                     13                     14                     15
                     A"                     A'                     A'
 Frequencies --   1132.0202              1170.1756              1189.5569
 Red. masses --      1.1731                 1.4594                 1.2534
 Frc consts  --      0.8857                 1.1774                 1.0450
 IR Inten    --      0.3530               236.6517               844.2704

                     16                     17                     18
                     A'                     A'                     A"
 Frequencies --   1439.2420              1854.5999              2562.5019
 Red. masses --      4.7174                10.9162                 1.0773
 Frc consts  --      5.7573                22.1220                 4.1680
 IR Inten    --    997.9938               715.7412               313.6368

                     19                     20                     21
                     A'                     A'                     A"
 Frequencies --   2619.4813              2698.7821              2731.3353
 Red. masses --      1.0593                 1.0568                 1.1100
 Frc consts  --      4.2824                 4.5349                 4.8789
 IR Inten    --    840.8189               946.6218               461.2838

 - Thermochemistry -
 -------------------
 Temperature   298.150 Kelvin.  Pressure   1.00000 Atm.
 Atom     1 has atomic number  6 and mass  12.00000

 Molecular mass:    64.03130 amu.
 Principal axes and moments of inertia in atomic units:
                           1         2         3
     Eigenvalues --   100.81083 653.72389 730.97213
           X            0.97503  -0.22206   0.00000
           Y            0.22206   0.97503   0.00000
           Z            0.00000  -0.00000   1.00000
 This molecule is an asymmetric top.
 Rotational symmetry number  1.
 Rotational temperatures (Kelvin)      0.85917     0.13249     0.11849
 Rotational constants (GHZ):          17.90225     2.76071     2.46896
 Zero-point vibrational energy     145036.2 (Joules/Mol)
                                   34.66447 (Kcal/Mol)
 Warning -- explicit consideration of   7 degrees of freedom as
           vibrations may cause significant error
 Vibrational temperatures:    190.67   251.13   445.60   448.58   522.11
          (Kelvin)            666.63   875.11  1183.22  1193.59  1225.74
                             1324.89  1529.00  1628.72  1683.62  1711.50
                             2070.75  2668.35  3686.86  3768.84  3882.94
                             3929.78

 Zero-point correction=                           0.055241 (Hartree/Particle)
 Thermal correction to Energy=                    0.061271
 Thermal correction to Enthalpy=                  0.062215
 Thermal correction to Gibbs Free Energy=         0.025276
 Sum of electronic and zero-point Energies=           -190.974474
 Sum of electronic and thermal Energies=              -190.968445
 Sum of electronic and thermal Enthalpies=            -190.967501
 Sum of electronic and thermal Free Energies=         -191.004440

                     E (Thermal)             CV                S
                      KCal/Mol        Cal/Mol-Kelvin    Cal/Mol-Kelvin
 Total                   38.448             20.337             77.745
 Electronic               0.000              0.000              2.755
 Translational            0.889              2.981             38.389
 Rotational               0.889              2.981             25.380
 Vibrational             36.671             14.375             11.221
 Vibration     1          0.613              1.921              2.909
 Vibration     2          0.627              1.874              2.386
 Vibration     3          0.699              1.655              1.364
 Vibration     4          0.700              1.651              1.353
 Vibration     5          0.737              1.549              1.110
 Vibration     6          0.821              1.331              0.756
 Vibration     7          0.967              1.014              0.436

 Optimization completed.
    -- Stationary point found.
 Normal termination of Gaussian 09 at Thu Jan 31 08:34:39 2019.
