 Gaussian 09, Revision E.01,
 Gaussian 09:  EM64L-G09RevE.01 30-Nov-2015

 ---------------------------------------------
 #p b3lyp/6-311++G(3df,2p) freq symmetry=Loose
 ---------------------------------------------

 ---------
 b3lyp opt
 ---------
 Symbolic Z-matrix:
 Charge =  2 Multiplicity = 3

                         Standard orientation:
 ---------------------------------------------------------------------
 Center     Atomic      Atomic             Coordinates (Angstroms)
 Number     Number       Type             X           Y           Z
 ---------------------------------------------------------------------
      1          6           0        0.517077   -0.188838    0.433488
      2          6           0       -1.725723   -0.118753   -0.020225
      3          6           0       -0.608727   -0.849849   -0.349553
      4          1           0        0.538335   -0.460968    1.488680
      5          6           0        1.792769    0.061152   -0.200409
      6          1           0        2.711565   -0.071170    0.379239
      7          1           0        1.886207    0.382932   -1.241363
      8          6           0       -0.729492    0.809491    0.063752
      9          1           0       -0.611526    1.869986   -0.188872
 ---------------------------------------------------------------------

 SCF Done:  E(UB3LYP) =  -191.832373940     A.U. after   16 cycles

 The electronic state is 3-A.
 Alpha  occ. eigenvalues --  -10.78042 -10.75716 -10.75517 -10.74804 -10.72141
 Alpha  occ. eigenvalues --   -1.45138  -1.26941  -1.11994  -1.10237  -1.00714
 Alpha  occ. eigenvalues --   -0.95881  -0.93550  -0.90361  -0.89859  -0.82706
 Alpha  occ. eigenvalues --   -0.78744  -0.74210
 Alpha virt. eigenvalues --   -0.62980  -0.50505  -0.50064  -0.35537  -0.32325
 Alpha virt. eigenvalues --   -0.31587  -0.29563  -0.28757  -0.27032  -0.24759
 Alpha virt. eigenvalues --   -0.24363  -0.23659  -0.22179  -0.21479  -0.19462

  Beta  occ. eigenvalues --  -10.76447 -10.75489 -10.75338 -10.72818 -10.71865
  Beta  occ. eigenvalues --   -1.43298  -1.25701  -1.10495  -1.08373  -0.99280
  Beta  occ. eigenvalues --   -0.94030  -0.91351  -0.88818  -0.87729  -0.80872
  Beta virt. eigenvalues --   -0.63168  -0.60460  -0.58079  -0.47848  -0.46801
  Beta virt. eigenvalues --   -0.34670  -0.31882  -0.31262  -0.29073  -0.28130
  Beta virt. eigenvalues --   -0.26196  -0.24165  -0.24035  -0.23158  -0.21612

 Mulliken charges and spin densities:
               1          2
     1  C    0.298044   0.027914
     2  C    0.396124   0.993749
     3  C    0.283359   0.792624
     4  H    0.301358  -0.012250
     5  C   -0.319368   0.153976
     6  H    0.300220   0.004323
     7  H    0.316402  -0.002397
     8  C    0.095825   0.018348
     9  H    0.328036   0.023714
 Sum of Mulliken charges =   2.00000   2.00000

 Dipole moment (field-independent basis, Debye):
    X=              2.9629    Y=              1.3571    Z=             -0.3266  Tot=              3.2752
 Quadrupole moment (field-independent basis, Debye-Ang):
   XX=             -0.6719   YY=            -17.6402   ZZ=            -20.5000
   XY=             -0.5014   XZ=             -0.4000   YZ=             -1.1072

  Exact polarizability:  65.799   0.396  37.027  -0.138   0.481  30.511
 Approx polarizability: 106.092   2.063  70.223  -0.560   5.480  46.697

                      1                      2                      3
                      A                      A                      A
 Frequencies --    144.9301               269.6777               307.9503
 Red. masses --      1.1317                 3.0995                 4.2982
 Frc consts  --      0.0140                 0.1328                 0.2402
 IR Inten    --      5.2529                 4.4514                 0.7419

                      4                      5                      6
                      A                      A                      A
 Frequencies --    354.4163               455.5030               613.7522
 Red. masses --      5.7900                 3.5822                 6.9650
 Frc consts  --      0.4285                 0.4379                 1.5458
 IR Inten    --     38.0438                 5.3563                39.5448

                      7                      8                      9
                      A                      A                      A
 Frequencies --    791.8053               874.3348              1058.0744
 Red. masses --      1.4288                 2.2334                 1.1389
 Frc consts  --      0.5278                 1.0059                 0.7512
 IR Inten    --    128.2321                 9.2713                39.6051

                     10                     11                     12
                      A                      A                      A
 Frequencies --   1075.8210              1081.7674              1144.6342
 Red. masses --      1.6395                 1.3318                 3.4628
 Frc consts  --      1.1180                 0.9183                 2.6731
 IR Inten    --      3.3107                19.9895               206.4966

                     13                     14                     15
                      A                      A                      A
 Frequencies --   1210.4981              1273.9265              1369.0377
 Red. masses --      1.5013                 7.2909                 1.2411
 Frc consts  --      1.2962                 6.9714                 1.3705
 IR Inten    --     15.4388                17.8977                18.3558

                     16                     17                     18
                      A                      A                      A
 Frequencies --   1479.7909              1508.1889              3049.4021
 Red. masses --      1.2878                 4.5438                 1.0572
 Frc consts  --      1.6615                 6.0894                 5.7923
 IR Inten    --      5.6108                 7.8324               112.9721

                     19                     20                     21
                      A                      A                      A
 Frequencies --   3065.6702              3104.9775              3164.3691
 Red. masses --      1.0974                 1.0915                 1.1254
 Frc consts  --      6.0769                 6.2002                 6.6396
 IR Inten    --    202.3496                58.4740                97.6355

 - Thermochemistry -
 -------------------
 Temperature   298.150 Kelvin.  Pressure   1.00000 Atm.
 Atom     1 has atomic number  6 and mass  12.00000

 Molecular mass:    64.03130 amu.
 Principal axes and moments of inertia in atomic units:
                           1         2         3
     Eigenvalues --   104.38537 384.77467 431.71675
           X            0.99995  -0.00985  -0.00300
           Y            0.00943   0.99320  -0.11604
           Z            0.00412   0.11601   0.99324
 This molecule is an asymmetric top.
 Rotational symmetry number  1.
 Rotational temperatures (Kelvin)      0.82975     0.22510     0.20063
 Rotational constants (GHZ):          17.28922     4.69038     4.18038
 Zero-point vibrational energy     163879.6 (Joules/Mol)
                                   39.16816 (Kcal/Mol)
 Warning -- explicit consideration of   6 degrees of freedom as
           vibrations may cause significant error
 Vibrational temperatures:    208.52   388.01   443.07   509.93   655.37
          (Kelvin)            883.05  1139.23  1257.97  1522.33  1547.86
                             1556.42  1646.87  1741.63  1832.89  1969.74
                             2129.09  2169.94  4387.40  4410.81  4467.36
                             4552.82

 Zero-point correction=                           0.062418 (Hartree/Particle)
 Thermal correction to Energy=                    0.067833
 Thermal correction to Enthalpy=                  0.068777
 Thermal correction to Gibbs Free Energy=         0.033739
 Sum of electronic and zero-point Energies=           -191.769956
 Sum of electronic and thermal Energies=              -191.764541
 Sum of electronic and thermal Enthalpies=            -191.763597
 Sum of electronic and thermal Free Energies=         -191.798635

                     E (Thermal)             CV                S
                      KCal/Mol        Cal/Mol-Kelvin    Cal/Mol-Kelvin
 Total                   42.566             18.165             73.744
 Electronic               0.000              0.000              2.183
 Translational            0.889              2.981             38.389
 Rotational               0.889              2.981             24.365
 Vibrational             40.788             12.204              8.807
 Vibration     1          0.616              1.908              2.738
 Vibration     2          0.674              1.729              1.598
 Vibration     3          0.698              1.659              1.373
 Vibration     4          0.730              1.566              1.146
 Vibration     5          0.814              1.349              0.779
 Vibration     6          0.973              1.003              0.427

 Optimization completed.
    -- Stationary point found.
 Normal termination of Gaussian 09 at Mon Jun 20 09:36:21 2016.
