 Gaussian 09, Revision E.01,
 Gaussian 09:  EM64L-G09RevE.01 30-Nov-2015

 ---------------------------------------------
 #p b3lyp/6-311++G(3df,2p) freq symmetry=Loose
 ---------------------------------------------

 ---------
 b3lyp opt
 ---------
 Symbolic Z-matrix:
 Charge =  0 Multiplicity = 3

                         Standard orientation:
 ---------------------------------------------------------------------
 Center     Atomic      Atomic             Coordinates (Angstroms)
 Number     Number       Type             X           Y           Z
 ---------------------------------------------------------------------
      1          6           0        2.237015   -0.299784    0.000089
      2          1           0        2.057410   -1.371290   -0.000062
      3          1           0        2.841140   -0.032746    0.873429
      4          1           0        2.841325   -0.032630   -0.873036
      5          6           0       -0.268168   -0.047058   -0.000281
      6          6           0       -1.551851   -0.031818   -0.000105
      7          6           0       -2.859722   -0.125598    0.000212
      8          6           0        0.973542    0.482159    0.000005
      9          1           0        1.075236    1.569262    0.000150
 ---------------------------------------------------------------------

 SCF Done:  E(UB3LYP) =  -192.759722648     A.U. after   16 cycles

 The electronic state is 3-A.
 Alpha  occ. eigenvalues --  -10.26476 -10.22906 -10.21306 -10.21068 -10.20611
 Alpha  occ. eigenvalues --   -0.86287  -0.79884  -0.72737  -0.64802  -0.54819
 Alpha  occ. eigenvalues --   -0.47366  -0.46934  -0.42631  -0.37989  -0.35173
 Alpha  occ. eigenvalues --   -0.29793  -0.27973  -0.21534
 Alpha virt. eigenvalues --   -0.08588  -0.02354   0.00156   0.01542   0.01688
 Alpha virt. eigenvalues --    0.04408   0.05048   0.05610   0.05830   0.06834
 Alpha virt. eigenvalues --    0.06989   0.08839   0.09261   0.09457   0.11063

  Beta  occ. eigenvalues --  -10.25782 -10.22145 -10.21029 -10.20476 -10.20052
  Beta  occ. eigenvalues --   -0.84198  -0.78227  -0.70273  -0.62818  -0.53648
  Beta  occ. eigenvalues --   -0.46239  -0.45667  -0.42172  -0.34916  -0.31855
  Beta  occ. eigenvalues --   -0.27463
  Beta virt. eigenvalues --   -0.18252  -0.10180  -0.04384  -0.02031   0.00356
  Beta virt. eigenvalues --    0.01587   0.01842   0.04867   0.05260   0.05942
  Beta virt. eigenvalues --    0.06298   0.07481   0.07851   0.09030   0.09794

 Mulliken charges and spin densities:
               1          2
     1  C   -0.454012  -0.010034
     2  H    0.168440   0.002766
     3  H    0.161346   0.030680
     4  H    0.161366   0.030690
     5  C   -0.054096   0.571138
     6  C    0.653745   0.212542
     7  C   -0.773167   0.770294
     8  C   -0.030866   0.361621
     9  H    0.167245   0.030302
 Sum of Mulliken charges =  -0.00000   2.00000

 Dipole moment (field-independent basis, Debye):
    X=              6.2516    Y=              0.8159    Z=             -0.0004  Tot=              6.3046
 Quadrupole moment (field-independent basis, Debye-Ang):
   XX=            -40.8258   YY=            -29.9081   ZZ=            -30.0347
   XY=             -0.2465   XZ=              0.0024   YZ=              0.0001

  Exact polarizability: 129.274   5.421  48.423   0.000   0.001  44.155
 Approx polarizability: 213.480  13.740  67.862  -0.006   0.002  61.694

                      1                      2                      3
                      A                      A                      A
 Frequencies --     92.0633               109.9375               149.0143
 Red. masses --      5.0350                 2.0701                 2.0166
 Frc consts  --      0.0251                 0.0147                 0.0264
 IR Inten    --      0.9257                 3.6556                 7.0988

                      4                      5                      6
                      A                      A                      A
 Frequencies --    338.6043               366.0125               437.5919
 Red. masses --      6.4858                 8.2386                 4.0012
 Frc consts  --      0.4381                 0.6503                 0.4514
 IR Inten    --     22.9754                 3.6849                 8.3550

                      7                      8                      9
                      A                      A                      A
 Frequencies --    764.7534               801.7978              1020.5103
 Red. masses --      1.2580                 2.7434                 1.5883
 Frc consts  --      0.4335                 1.0391                 0.9746
 IR Inten    --      7.4736                17.9549                 0.0813

                     10                     11                     12
                      A                      A                      A
 Frequencies --   1056.8415              1120.3156              1314.8933
 Red. masses --      2.0605                 2.5649                 1.4649
 Frc consts  --      1.3559                 1.8967                 1.4923
 IR Inten    --      5.7337                 3.3029                 0.6786

                     13                     14                     15
                      A                      A                      A
 Frequencies --   1390.3471              1456.7717              1466.4042
 Red. masses --      1.2075                 1.3158                 1.0462
 Frc consts  --      1.3753                 1.6453                 1.3255
 IR Inten    --     21.2081               107.6510                 9.7438

                     16                     17                     18
                      A                      A                      A
 Frequencies --   1532.6731              1876.1240              3001.6145
 Red. masses --      2.9362                11.7516                 1.0400
 Frc consts  --      4.0638                24.3708                 5.5205
 IR Inten    --    126.7265                16.9825                 0.3692

                     19                     20                     21
                      A                      A                      A
 Frequencies --   3038.6741              3052.9419              3132.4497
 Red. masses --      1.0959                 1.0838                 1.0984
 Frc consts  --      5.9619                 5.9514                 6.3502
 IR Inten    --      3.3270                12.5572                 7.7552

 - Thermochemistry -
 -------------------
 Temperature   298.150 Kelvin.  Pressure   1.00000 Atm.
 Atom     1 has atomic number  6 and mass  12.00000

 Molecular mass:    64.03130 amu.
 Principal axes and moments of inertia in atomic units:
                           1         2         3
     Eigenvalues --    35.72563 790.54541 815.29355
           X            0.99998  -0.00611   0.00000
           Y            0.00611   0.99998   0.00003
           Z           -0.00000  -0.00003   1.00000
 This molecule is an asymmetric top.
 Rotational symmetry number  1.
 Rotational temperatures (Kelvin)      2.42442     0.10956     0.10624
 Rotational constants (GHZ):          50.51670     2.28291     2.21361
 Zero-point vibrational energy     164608.2 (Joules/Mol)
                                   39.34230 (Kcal/Mol)
 Warning -- explicit consideration of   6 degrees of freedom as
           vibrations may cause significant error
 Vibrational temperatures:    132.46   158.18   214.40   487.18   526.61
          (Kelvin)            629.60  1100.31  1153.61  1468.28  1520.56
                             1611.88  1891.84  2000.40  2095.97  2109.83
                             2205.17  2699.32  4318.65  4371.97  4392.50
                             4506.89

 Zero-point correction=                           0.062696 (Hartree/Particle)
 Thermal correction to Energy=                    0.068921
 Thermal correction to Enthalpy=                  0.069865
 Thermal correction to Gibbs Free Energy=         0.032479
 Sum of electronic and zero-point Energies=           -192.697027
 Sum of electronic and thermal Energies=              -192.690802
 Sum of electronic and thermal Enthalpies=            -192.689858
 Sum of electronic and thermal Free Energies=         -192.727244

                     E (Thermal)             CV                S
                      KCal/Mol        Cal/Mol-Kelvin    Cal/Mol-Kelvin
 Total                   43.248             19.094             78.685
 Electronic               0.000              0.000              2.183
 Translational            0.889              2.981             38.389
 Rotational               0.889              2.981             24.647
 Vibrational             41.471             13.132             13.466
 Vibration     1          0.602              1.955              3.616
 Vibration     2          0.606              1.941              3.270
 Vibration     3          0.618              1.904              2.685
 Vibration     4          0.719              1.598              1.219
 Vibration     5          0.739              1.542              1.096
 Vibration     6          0.798              1.388              0.834

 Optimization completed.
    -- Stationary point found.
 Normal termination of Gaussian 09 at Wed Jun 22 04:40:40 2016.
