 Gaussian 09, Revision E.01,
 Gaussian 09:  EM64L-G09RevE.01 30-Nov-2015

 ---------------------------------------------
 #p b3lyp/6-311++G(3df,2p) freq symmetry=Loose
 ---------------------------------------------

 ---------
 b3lyp opt
 ---------
 Symbolic Z-matrix:
 Charge =  1 Multiplicity = 4

                         Standard orientation:
 ---------------------------------------------------------------------
 Center     Atomic      Atomic             Coordinates (Angstroms)
 Number     Number       Type             X           Y           Z
 ---------------------------------------------------------------------
      1          6           0        0.000000    0.972417    0.000000
      2          6           0       -1.227482    0.270486   -0.000000
      3          1           0       -0.000056    2.055264    0.000000
      4          1           0       -2.129086    0.874513   -0.000000
      5          6           0       -1.385048   -1.141661   -0.000000
      6          1           0       -0.532181   -1.806046   -0.000000
      7          1           0       -2.376117   -1.571753   -0.000000
      8          6           0        1.196755    0.312339    0.000000
      9          6           0        2.255348   -0.338912    0.000000
 ---------------------------------------------------------------------

 SCF Done:  E(UB3LYP) =  -192.406545912     A.U. after   19 cycles

 The electronic state is 4-A'.
 Alpha  occ. eigenvalues --  -10.50119 -10.47084 -10.45956 -10.43828 -10.43478
 Alpha  occ. eigenvalues --   -1.08076  -1.02428  -0.94736  -0.83894  -0.73160
 Alpha  occ. eigenvalues --   -0.72095  -0.64989  -0.63419  -0.62108  -0.61430
 Alpha  occ. eigenvalues --   -0.55795  -0.53985  -0.44778
 Alpha virt. eigenvalues --   -0.27092  -0.21835  -0.15001  -0.14262  -0.12750
 Alpha virt. eigenvalues --   -0.11946  -0.09398  -0.09235  -0.08012  -0.07779
 Alpha virt. eigenvalues --   -0.05635  -0.05554  -0.04977  -0.04003  -0.03159

  Beta  occ. eigenvalues --  -10.47005 -10.46715 -10.45721 -10.42843 -10.42805
  Beta  occ. eigenvalues --   -1.05896  -0.98590  -0.91379  -0.82139  -0.72515
  Beta  occ. eigenvalues --   -0.71006  -0.63804  -0.61175  -0.56082  -0.51754
  Beta virt. eigenvalues --   -0.43551  -0.40380  -0.31816  -0.20268  -0.19130
  Beta virt. eigenvalues --   -0.14654  -0.12215  -0.11703  -0.10345  -0.08833
  Beta virt. eigenvalues --   -0.07879  -0.07477  -0.06908  -0.05036  -0.04259

 Mulliken charges and spin densities:
               1          2
     1  C   -0.727015   0.561552
     2  C    0.145312   0.276579
     3  H    0.198702  -0.018594
     4  H    0.221819  -0.007935
     5  C   -0.364610   0.706993
     6  H    0.199360  -0.016114
     7  H    0.230727  -0.020946
     8  C    0.768746   0.198972
     9  C    0.326961   1.319492
 Sum of Mulliken charges =   1.00000   3.00000

 Dipole moment (field-independent basis, Debye):
    X=             -0.9784    Y=             -0.3448    Z=             -0.0000  Tot=              1.0373
 Quadrupole moment (field-independent basis, Debye-Ang):
   XX=            -10.3080   YY=            -19.7661   ZZ=            -28.1674
   XY=              0.3965   XZ=             -0.0000   YZ=             -0.0000

  Exact polarizability:  93.330   2.694  58.007  -0.002   0.002  30.520
 Approx polarizability: 166.475  -5.291  84.563   0.000   0.000  43.902

                      1                      2                      3
                     ?A                     ?A                     A"
 Frequencies --    120.8682               149.2328               202.0900
 Red. masses --      6.2444                 1.4454                 1.4444
 Frc consts  --      0.0537                 0.0190                 0.0348
 IR Inten    --      0.9881                 1.2680                 0.8104

                      4                      5                      6
                     A'                     A"                     A'
 Frequencies --    322.2196               480.5213               606.3756
 Red. masses --      4.5151                 4.8969                 3.2800
 Frc consts  --      0.2762                 0.6662                 0.7106
 IR Inten    --      4.1868                 2.9775                 3.5470

                      7                      8                      9
                     A"                     A"                     A'
 Frequencies --    664.1739               848.6383               948.9206
 Red. masses --      1.2908                 1.2397                 3.5809
 Frc consts  --      0.3355                 0.5260                 1.8998
 IR Inten    --     38.7441                16.1943                30.1227

                     10                     11                     12
                     A"                     A'                     A'
 Frequencies --    968.0850              1025.7593              1137.4864
 Red. masses --      1.6853                 1.8411                 1.7699
 Frc consts  --      0.9306                 1.1413                 1.3492
 IR Inten    --      6.6620                10.9513                33.8519

                     13                     14                     15
                     A'                     A'                     A'
 Frequencies --   1264.3630              1400.5465              1468.4932
 Red. masses --      1.4834                 1.7748                 1.3885
 Frc consts  --      1.3972                 2.0511                 1.7641
 IR Inten    --     30.2802               191.9372                72.2922

                     16                     17                     18
                     A'                     A'                     A'
 Frequencies --   1522.5473              1992.6202              3154.7189
 Red. masses --      2.0164                11.8522                 1.0524
 Frc consts  --      2.7540                27.7267                 6.1711
 IR Inten    --     61.4134                 1.8158                18.5009

                     19                     20                     21
                     A'                     A'                     A'
 Frequencies --   3165.2080              3179.1570              3268.6264
 Red. masses --      1.0892                 1.0906                 1.1218
 Frc consts  --      6.4293                 6.4942                 7.0615
 IR Inten    --      3.3815                35.2911                 8.7017

 - Thermochemistry -
 -------------------
 Temperature   298.150 Kelvin.  Pressure   1.00000 Atm.
 Atom     1 has atomic number  6 and mass  12.00000

 Molecular mass:    64.03130 amu.
 Principal axes and moments of inertia in atomic units:
                           1         2         3
     Eigenvalues --   140.36516 469.20587 609.57103
           X            0.98957  -0.14404   0.00000
           Y            0.14404   0.98957   0.00000
           Z            0.00000  -0.00000   1.00000
 This molecule is an asymmetric top.
 Rotational symmetry number  1.
 Rotational temperatures (Kelvin)      0.61706     0.18460     0.14209
 Rotational constants (GHZ):          12.85747     3.84637     2.96067
 Zero-point vibrational energy     166823.1 (Joules/Mol)
                                   39.87169 (Kcal/Mol)
 Warning -- explicit consideration of   6 degrees of freedom as
           vibrations may cause significant error
 Vibrational temperatures:    173.90   214.71   290.76   463.60   691.36
          (Kelvin)            872.44   955.60  1221.00  1365.28  1392.86
                             1475.84  1636.59  1819.13  2015.07  2112.83
                             2190.60  2866.93  4538.93  4554.02  4574.09
                             4702.82

 Zero-point correction=                           0.063540 (Hartree/Particle)
 Thermal correction to Energy=                    0.069424
 Thermal correction to Enthalpy=                  0.070368
 Thermal correction to Gibbs Free Energy=         0.033484
 Sum of electronic and zero-point Energies=           -192.343006
 Sum of electronic and thermal Energies=              -192.337122
 Sum of electronic and thermal Enthalpies=            -192.336178
 Sum of electronic and thermal Free Energies=         -192.373062

                     E (Thermal)             CV                S
                      KCal/Mol        Cal/Mol-Kelvin    Cal/Mol-Kelvin
 Total                   43.564             18.936             77.629
 Electronic               0.000              0.000              2.755
 Translational            0.889              2.981             38.389
 Rotational               0.889              2.981             25.199
 Vibrational             41.787             12.975             11.286
 Vibration     1          0.609              1.932              3.086
 Vibration     2          0.618              1.904              2.682
 Vibration     3          0.639              1.837              2.114
 Vibration     4          0.707              1.631              1.299
 Vibration     5          0.837              1.293              0.709
 Vibration     6          0.965              1.018              0.439

 Optimization completed.
    -- Stationary point found.
 Normal termination of Gaussian 09 at Wed Jul 20 17:16:59 2016.
