 Gaussian 09, Revision E.01,
 Gaussian 09:  EM64L-G09RevE.01 30-Nov-2015

 ---------------------------------------------
 #p b3lyp/6-311++G(3df,2p) freq symmetry=Loose
 ---------------------------------------------

 ---------
 b3lyp opt
 ---------
 Symbolic Z-matrix:
 Charge =  2 Multiplicity = 1

                         Standard orientation:
 ---------------------------------------------------------------------
 Center     Atomic      Atomic             Coordinates (Angstroms)
 Number     Number       Type             X           Y           Z
 ---------------------------------------------------------------------
      1          6           0        1.898801    0.207942    0.000000
      2          6           0       -0.000000    0.384841   -0.000000
      3          1           0        1.133510    2.029806    0.899878
      4          6           0       -0.845225   -0.522536   -0.000000
      5          6           0       -1.788212   -1.484701   -0.000000
      6          1           0       -1.511343   -2.546676    0.000000
      7          1           0       -2.853686   -1.219314   -0.000000
      8          6           0        1.084304    1.365518   -0.000000
      9          1           0        1.133510    2.029806   -0.899878
 ---------------------------------------------------------------------

 SCF Done:  E(RB3LYP) =  -191.896879296     A.U. after   13 cycles

 The electronic state is 1-A'.
 Alpha  occ. eigenvalues --  -10.78018 -10.73000 -10.71921 -10.69731 -10.67809
 Alpha  occ. eigenvalues --   -1.34821  -1.26949  -1.17366  -1.02439  -0.98011
 Alpha  occ. eigenvalues --   -0.94811  -0.92055  -0.91131  -0.79968  -0.77132
 Alpha  occ. eigenvalues --   -0.76171
 Alpha virt. eigenvalues --   -0.60559  -0.56533  -0.55370  -0.38536  -0.37815
 Alpha virt. eigenvalues --   -0.32893  -0.30930  -0.28667  -0.27143  -0.26140
 Alpha virt. eigenvalues --   -0.24638  -0.24011  -0.21798  -0.21045  -0.20667

 Mulliken charges:
               1
     1  C    0.153194
     2  C    0.162973
     3  H    0.296599
     4  C    0.966533
     5  C   -0.262153
     6  H    0.309694
     7  H    0.318308
     8  C   -0.241748
     9  H    0.296599
 Sum of Mulliken charges =   2.00000

 Dipole moment (field-independent basis, Debye):
    X=             -1.6176    Y=              0.3242    Z=             -0.0000  Tot=              1.6497
 Quadrupole moment (field-independent basis, Debye-Ang):
   XX=              1.0579   YY=             -1.7867   ZZ=            -22.3010
   XY=             21.0996   XZ=             -0.0000   YZ=             -0.0000

  Exact polarizability:  71.986  27.587  58.864   0.000   0.000  29.095
 Approx polarizability: 135.478  59.448 107.945   0.000  -0.000  45.144

                      1                      2                      3
                     A'                     A"                     A"
 Frequencies --    129.5111               188.4901               255.6197
 Red. masses --      5.0824                 2.8619                 1.1517
 Frc consts  --      0.0502                 0.0599                 0.0443
 IR Inten    --     10.5838                31.6015                 3.9967

                      4                      5                      6
                     A'                     A'                     A"
 Frequencies --    300.7785               363.4832               424.9341
 Red. masses --      7.2771                 3.3837                 3.6484
 Frc consts  --      0.3879                 0.2634                 0.3881
 IR Inten    --    100.9941                10.1440                 0.2102

                      7                      8                      9
                     A"                     A'                     A'
 Frequencies --    456.3422               708.2693               971.4059
 Red. masses --      1.3201                 3.8351                 1.5362
 Frc consts  --      0.1620                 1.1335                 0.8541
 IR Inten    --      0.9195                10.6749                 0.2871

                     10                     11                     12
                     A"                     A'                     A"
 Frequencies --    975.4099              1008.9658              1114.9003
 Red. masses --      1.2868                 1.5151                 1.3531
 Frc consts  --      0.7213                 0.9088                 0.9909
 IR Inten    --      6.0825                 5.1143                14.8014

                     13                     14                     15
                     A'                     A'                     A'
 Frequencies --   1141.3416              1212.4461              1293.8298
 Red. masses --      1.0967                 3.6143                 3.0014
 Frc consts  --      0.8417                 3.1304                 2.9602
 IR Inten    --    100.7113               170.4770               121.1342

                     16                     17                     18
                     A'                     A'                     A'
 Frequencies --   1421.1673              2039.3076              2807.5061
 Red. masses --      1.4853                11.2919                 1.0586
 Frc consts  --      1.7675                27.6683                 4.9162
 IR Inten    --      2.2962                90.8261               589.0207

                     19                     20                     21
                     A"                     A'                     A'
 Frequencies --   2818.4441              3008.0305              3104.9568
 Red. masses --      1.0942                 1.0537                 1.1197
 Frc consts  --      5.1211                 5.6176                 6.3602
 IR Inten    --    218.7688               257.9081               138.7830

 - Thermochemistry -
 -------------------
 Temperature   298.150 Kelvin.  Pressure   1.00000 Atm.
 Atom     1 has atomic number  6 and mass  12.00000

 Molecular mass:    64.03130 amu.
 Principal axes and moments of inertia in atomic units:
                           1         2         3
     Eigenvalues --    72.44217 610.89358 671.67811
           X            0.80905  -0.58773   0.00000
           Y            0.58773   0.80905   0.00000
           Z           -0.00000  -0.00000   1.00000
 This molecule is an asymmetric top.
 Rotational symmetry number  1.
 Rotational temperatures (Kelvin)      1.19563     0.14178     0.12895
 Rotational constants (GHZ):          24.91286     2.95426     2.68691
 Zero-point vibrational energy     153990.1 (Joules/Mol)
                                   36.80453 (Kcal/Mol)
 Warning -- explicit consideration of   7 degrees of freedom as
           vibrations may cause significant error
 Vibrational temperatures:    186.34   271.19   367.78   432.75   522.97
          (Kelvin)            611.38   656.57  1019.04  1397.63  1403.40
                             1451.67  1604.09  1642.13  1744.44  1861.53
                             2044.74  2934.11  4039.37  4055.11  4327.88
                             4467.33

 Zero-point correction=                           0.058652 (Hartree/Particle)
 Thermal correction to Energy=                    0.064838
 Thermal correction to Enthalpy=                  0.065782
 Thermal correction to Gibbs Free Energy=         0.030081
 Sum of electronic and zero-point Energies=           -191.838228
 Sum of electronic and thermal Energies=              -191.832041
 Sum of electronic and thermal Enthalpies=            -191.831097
 Sum of electronic and thermal Free Energies=         -191.866799

                     E (Thermal)             CV                S
                      KCal/Mol        Cal/Mol-Kelvin    Cal/Mol-Kelvin
 Total                   40.686             20.444             75.140
 Electronic               0.000              0.000              0.000
 Translational            0.889              2.981             38.389
 Rotational               0.889              2.981             24.900
 Vibrational             38.909             14.483             11.851
 Vibration     1          0.612              1.924              2.953
 Vibration     2          0.633              1.856              2.243
 Vibration     3          0.666              1.753              1.692
 Vibration     4          0.693              1.672              1.413
 Vibration     5          0.737              1.547              1.107
 Vibration     6          0.787              1.416              0.875
 Vibration     7          0.815              1.347              0.777

 Optimization completed.
    -- Stationary point found.
 Normal termination of Gaussian 09 at Tue Jul 19 20:56:12 2016.
