 Gaussian 09, Revision E.01,
 Gaussian 09:  EM64L-G09RevE.01 30-Nov-2015

 ---------------------------------------------
 #p b3lyp/6-311++G(3df,2p) freq symmetry=Loose
 ---------------------------------------------

 ---------
 b3lyp opt
 ---------
 Symbolic Z-matrix:
 Charge =  0 Multiplicity = 3

                         Standard orientation:
 ---------------------------------------------------------------------
 Center     Atomic      Atomic             Coordinates (Angstroms)
 Number     Number       Type             X           Y           Z
 ---------------------------------------------------------------------
      1          6           0        0.978406    0.113980    0.566180
      2          1           0        1.552866    0.075860    1.474946
      3          6           0        0.846845   -0.267021   -0.787346
      4          6           0       -0.116552   -1.027768    0.002102
      5          1           0       -1.721800    0.061088    1.125917
      6          6           0       -0.068390    0.881956   -0.152776
      7          1           0       -0.025995    1.886618   -0.557521
      8          6           0       -1.268681   -0.022123    0.137323
      9          1           0       -2.034836   -0.097714   -0.636243
 ---------------------------------------------------------------------

 SCF Done:  E(UB3LYP) =  -192.681281514     A.U. after   16 cycles

 The electronic state is 3-A.
 Alpha  occ. eigenvalues --  -10.24202 -10.22561 -10.21848 -10.21649 -10.20203
 Alpha  occ. eigenvalues --   -0.99089  -0.73802  -0.65624  -0.60151  -0.52394
 Alpha  occ. eigenvalues --   -0.49538  -0.45280  -0.41938  -0.38541  -0.32937
 Alpha  occ. eigenvalues --   -0.29211  -0.25115  -0.22519
 Alpha virt. eigenvalues --   -0.00503   0.00723   0.00837   0.02492   0.03854
 Alpha virt. eigenvalues --    0.04550   0.06342   0.06648   0.07350   0.07776
 Alpha virt. eigenvalues --    0.09083   0.09515   0.10235   0.10711   0.11274

  Beta  occ. eigenvalues --  -10.22561 -10.22220 -10.21713 -10.20402 -10.19993
  Beta  occ. eigenvalues --   -0.97466  -0.72771  -0.63691  -0.58842  -0.50572
  Beta  occ. eigenvalues --   -0.48055  -0.43558  -0.39784  -0.34830  -0.31469
  Beta  occ. eigenvalues --   -0.26137
  Beta virt. eigenvalues --   -0.12665  -0.09478  -0.00423   0.00904   0.01204
  Beta virt. eigenvalues --    0.02749   0.04534   0.04919   0.06755   0.06942
  Beta virt. eigenvalues --    0.07740   0.08492   0.09770   0.09830   0.10605

 Mulliken charges and spin densities:
               1          2
     1  C    0.091967   0.238261
     2  H    0.283018  -0.002845
     3  C   -0.454738   0.630944
     4  C    0.066339   0.972657
     5  H    0.151354   0.012629
     6  C    0.170836   0.017428
     7  H    0.211296   0.046178
     8  C   -0.657107   0.062075
     9  H    0.137034   0.022673
 Sum of Mulliken charges =  -0.00000   2.00000

 Dipole moment (field-independent basis, Debye):
    X=             -0.9055    Y=              1.4126    Z=              1.3305  Tot=              2.1414
 Quadrupole moment (field-independent basis, Debye-Ang):
   XX=            -29.0593   YY=            -31.1738   ZZ=            -30.1020
   XY=              0.3161   XZ=              2.5371   YZ=             -0.9638

  Exact polarizability:  58.003   0.143  53.372  -1.894   0.037  50.398
 Approx polarizability:  84.976   1.809  87.393  -3.660   0.669  82.071

                      1                      2                      3
                      A                      A                      A
 Frequencies --    296.1126               419.8173               684.8446
 Red. masses --      5.9901                 1.9701                 3.0362
 Frc consts  --      0.3095                 0.2046                 0.8390
 IR Inten    --     15.5030                 5.3648                 4.7017

                      4                      5                      6
                      A                      A                      A
 Frequencies --    739.5031               783.9600               829.4387
 Red. masses --      1.6475                 5.4057                 3.3619
 Frc consts  --      0.5308                 1.9575                 1.3627
 IR Inten    --     36.6630                 1.2406                 7.5712

                      7                      8                      9
                      A                      A                      A
 Frequencies --    853.8102               902.5639               981.1375
 Red. masses --      1.2370                 1.7207                 2.1142
 Frc consts  --      0.5313                 0.8259                 1.1991
 IR Inten    --     31.9157                 5.8498                 5.8287

                     10                     11                     12
                      A                      A                      A
 Frequencies --    988.0277              1017.5703              1065.9993
 Red. masses --      1.8997                 2.2210                 1.3748
 Frc consts  --      1.0926                 1.3550                 0.9204
 IR Inten    --      1.4856                 5.0820                 1.3563

                     13                     14                     15
                      A                      A                      A
 Frequencies --   1117.3527              1172.3570              1224.9485
 Red. masses --      2.7616                 1.6246                 1.7053
 Frc consts  --      2.0314                 1.3156                 1.5076
 IR Inten    --      2.4375                12.0318                 6.7303

                     16                     17                     18
                      A                      A                      A
 Frequencies --   1371.5036              1479.5568              3033.4578
 Red. masses --      6.1831                 1.1195                 1.0537
 Frc consts  --      6.8525                 1.4439                 5.7127
 IR Inten    --     10.5359                 1.5696                32.2407

                     19                     20                     21
                      A                      A                      A
 Frequencies --   3087.0531              3133.5098              3245.0598
 Red. masses --      1.1091                 1.0901                 1.1008
 Frc consts  --      6.2276                 6.3064                 6.8299
 IR Inten    --     17.8011                 4.5955                 1.8748

 - Thermochemistry -
 -------------------
 Temperature   298.150 Kelvin.  Pressure   1.00000 Atm.
 Atom     1 has atomic number  6 and mass  12.00000

 Molecular mass:    64.03130 amu.
 Principal axes and moments of inertia in atomic units:
                           1         2         3
     Eigenvalues --   151.59838 232.27204 270.86055
           X            0.99882   0.00917   0.04764
           Y           -0.00581   0.99752  -0.07009
           Z           -0.04816   0.06973   0.99640
 This molecule is an asymmetric top.
 Rotational symmetry number  1.
 Rotational temperatures (Kelvin)      0.57134     0.37290     0.31977
 Rotational constants (GHZ):          11.90475     7.76995     6.66299
 Zero-point vibrational energy     170034.7 (Joules/Mol)
                                   40.63927 (Kcal/Mol)
 Warning -- explicit consideration of   2 degrees of freedom as
           vibrations may cause significant error
 Vibrational temperatures:    426.04   604.02   985.34  1063.98  1127.94
          (Kelvin)           1193.38  1228.44  1298.59  1411.64  1421.55
                             1464.05  1533.73  1607.62  1686.76  1762.43
                             1973.29  2128.75  4364.46  4441.58  4508.42
                             4668.91

 Zero-point correction=                           0.064763 (Hartree/Particle)
 Thermal correction to Energy=                    0.069011
 Thermal correction to Enthalpy=                  0.069955
 Thermal correction to Gibbs Free Energy=         0.037406
 Sum of electronic and zero-point Energies=           -192.616519
 Sum of electronic and thermal Energies=              -192.612271
 Sum of electronic and thermal Enthalpies=            -192.611327
 Sum of electronic and thermal Free Energies=         -192.643876

                     E (Thermal)             CV                S
                      KCal/Mol        Cal/Mol-Kelvin    Cal/Mol-Kelvin
 Total                   43.305             15.361             68.506
 Electronic               0.000              0.000              2.183
 Translational            0.889              2.981             38.389
 Rotational               0.889              2.981             23.771
 Vibrational             41.527              9.399              4.163
 Vibration     1          0.690              1.681              1.439
 Vibration     2          0.782              1.427              0.893

 Optimization completed.
    -- Stationary point found.
 Normal termination of Gaussian 09 at Mon Jun 20 03:43:55 2016.
