 Gaussian 09, Revision E.01,
 Gaussian 09:  EM64L-G09RevE.01 30-Nov-2015

 ---------------------------------------------
 #p b3lyp/6-311++G(3df,2p) freq symmetry=Loose
 ---------------------------------------------

 ---------
 b3lyp opt
 ---------
 Symbolic Z-matrix:
 Charge =  0 Multiplicity = 1

                         Standard orientation:
 ---------------------------------------------------------------------
 Center     Atomic      Atomic             Coordinates (Angstroms)
 Number     Number       Type             X           Y           Z
 ---------------------------------------------------------------------
      1          6           0        0.000000    0.000000    1.175432
      2          1           0        0.000000    0.894288    1.805031
      3          1           0       -0.000000   -0.894288    1.805031
      4          6           0        1.017937   -0.000000    0.030320
      5          6           0       -1.017937    0.000000    0.030320
      6          1           0       -2.091561    0.000000   -0.035829
      7          6           0       -0.000000   -0.666710   -0.912903
      8          6           0        0.000000    0.666710   -0.912903
      9          1           0        2.091561   -0.000000   -0.035829
 ---------------------------------------------------------------------

 SCF Done:  E(RB3LYP) =  -192.714969608     A.U. after   10 cycles

 The electronic state is 1-A1.
 Alpha  occ. eigenvalues --  -10.22841 -10.22840 -10.20670 -10.20581 -10.20391
 Alpha  occ. eigenvalues --   -0.99289  -0.73186  -0.68063  -0.54877  -0.51841
 Alpha  occ. eigenvalues --   -0.51314  -0.43946  -0.40018  -0.37934  -0.30306
 Alpha  occ. eigenvalues --   -0.27679  -0.26587
 Alpha virt. eigenvalues --   -0.12542  -0.00612   0.00660   0.01744   0.02171
 Alpha virt. eigenvalues --    0.04691   0.05697   0.06633   0.06713   0.08027
 Alpha virt. eigenvalues --    0.08219   0.08927   0.10743   0.11107   0.11257

 Mulliken charges:
               1
     1  C   -0.824119
     2  H    0.149758
     3  H    0.149758
     4  C    0.479574
     5  C    0.479574
     6  H    0.242083
     7  C   -0.459355
     8  C   -0.459355
     9  H    0.242083
 Sum of Mulliken charges =  -0.00000

 Dipole moment (field-independent basis, Debye):
    X=              0.0000    Y=             -0.0000    Z=              2.0292  Tot=              2.0292
 Quadrupole moment (field-independent basis, Debye-Ang):
   XX=            -26.2047   YY=            -33.6482   ZZ=            -29.6195
   XY=             -0.0000   XZ=             -0.0000   YZ=             -0.0000

  Exact polarizability:  51.861   0.000  51.507   0.000   0.000  54.886
 Approx polarizability:  83.044  -0.000 101.642   0.000   0.000  86.316

                      1                      2                      3
                     B2                     B2                     A2
 Frequencies --    144.7581               493.9957               621.9815
 Red. masses --      4.7245                 2.0475                 1.9402
 Frc consts  --      0.0583                 0.2944                 0.4422
 IR Inten    --    138.0028                65.4640                 0.0000

                      4                      5                      6
                     A1                     B2                     B1
 Frequencies --    812.8047               823.3320               873.8713
 Red. masses --      2.8346                 2.5735                 2.0753
 Frc consts  --      1.1034                 1.0278                 0.9338
 IR Inten    --     22.0395                 1.3879                 5.6624

                      7                      8                      9
                     A1                     A2                     B2
 Frequencies --    886.3716               925.1122               936.7276
 Red. masses --      4.1415                 1.9030                 1.0527
 Frc consts  --      1.9171                 0.9596                 0.5442
 IR Inten    --      4.7094                 0.0000                16.4442

                     10                     11                     12
                     B1                     A1                     A2
 Frequencies --   1048.7219              1083.0353              1085.6726
 Red. masses --      3.0980                 5.2887                 1.2185
 Frc consts  --      2.0075                 3.6550                 0.8462
 IR Inten    --      1.5157                 3.0344                 0.0000

                     13                     14                     15
                     B1                     B1                     A1
 Frequencies --   1157.5649              1203.3738              1232.0974
 Red. masses --      1.8194                 1.5875                 1.6161
 Frc consts  --      1.4364                 1.3545                 1.4454
 IR Inten    --      2.9436                17.1676                 0.1980

                     16                     17                     18
                     A1                     A1                     A1
 Frequencies --   1389.1836              1539.6884              3020.4097
 Red. masses --      1.1283                 9.9284                 1.0566
 Frc consts  --      1.2829                13.8674                 5.6792
 IR Inten    --     26.6058                20.2131                 0.6273

                     19                     20                     21
                     B2                     B1                     A1
 Frequencies --   3070.6751              3251.5797              3252.3913
 Red. masses --      1.1033                 1.0932                 1.0995
 Frc consts  --      6.1292                 6.8097                 6.8525
 IR Inten    --      4.4704                 1.7951                 0.8410

 - Thermochemistry -
 -------------------
 Temperature   298.150 Kelvin.  Pressure   1.00000 Atm.
 Atom     1 has atomic number  6 and mass  12.00000

 Molecular mass:    64.03130 amu.
 Principal axes and moments of inertia in atomic units:
                           1         2         3
     Eigenvalues --   164.14946 197.33919 273.78268
           X            0.00000   1.00000   0.00000
           Y            0.00000  -0.00000   1.00000
           Z            1.00000  -0.00000  -0.00000
 This molecule is an asymmetric top.
 Rotational symmetry number  2.
 Rotational temperatures (Kelvin)      0.52765     0.43891     0.31636
 Rotational constants (GHZ):          10.99450     9.14538     6.59188
 Zero-point vibrational energy     172581.3 (Joules/Mol)
                                   41.24793 (Kcal/Mol)
 Warning -- explicit consideration of   2 degrees of freedom as
           vibrations may cause significant error
 Vibrational temperatures:    208.27   710.75   894.89  1169.44  1184.59
          (Kelvin)           1257.30  1275.29  1331.03  1347.74  1508.88
                             1558.24  1562.04  1665.48  1731.38  1772.71
                             1998.72  2215.27  4345.69  4418.01  4678.29
                             4679.46

 Zero-point correction=                           0.065733 (Hartree/Particle)
 Thermal correction to Energy=                    0.070100
 Thermal correction to Enthalpy=                  0.071045
 Thermal correction to Gibbs Free Energy=         0.039763
 Sum of electronic and zero-point Energies=           -192.649237
 Sum of electronic and thermal Energies=              -192.644869
 Sum of electronic and thermal Enthalpies=            -192.643925
 Sum of electronic and thermal Free Energies=         -192.675206

                     E (Thermal)             CV                S
                      KCal/Mol        Cal/Mol-Kelvin    Cal/Mol-Kelvin
 Total                   43.989             15.047             65.837
 Electronic               0.000              0.000              0.000
 Translational            0.889              2.981             38.389
 Rotational               0.889              2.981             22.321
 Vibrational             42.211              9.086              5.127
 Vibration     1          0.616              1.908              2.740
 Vibration     2          0.850              1.263              0.673

 Optimization completed.
    -- Stationary point found.
 Normal termination of Gaussian 09 at Wed Jul 20 02:29:58 2016.
