 Gaussian 09, Revision E.01,
 Gaussian 09:  EM64L-G09RevE.01 30-Nov-2015

 ------------------------------------------------------
 #p b3lyp/6-311++G(3df,2p) freq IOp(2/17=3) IOp(2/18=3)
 ------------------------------------------------------

 ---------
 b3lyp opt
 ---------
 Symbolic Z-matrix:
 Charge =  1 Multiplicity = 4

                         Standard orientation:
 ---------------------------------------------------------------------
 Center     Atomic      Atomic             Coordinates (Angstroms)
 Number     Number       Type             X           Y           Z
 ---------------------------------------------------------------------
      1          6           0       -0.327146    0.034486    1.216216
      2          1           0       -0.642039    0.999132    1.660639
      3          1           0       -0.537525   -0.690205    2.018981
      4          6           0        1.079612   -0.017978    0.675938
      5          6           0        1.079612   -0.017978   -0.675938
      6          6           0       -1.111742   -0.136313    0.000000
      7          6           0       -0.327146    0.034486   -1.216216
      8          1           0       -0.537525   -0.690205   -2.018981
      9          1           0       -0.642039    0.999132   -1.660639
 ---------------------------------------------------------------------

 SCF Done:  E(UB3LYP) =  -192.346572615     A.U. after   21 cycles

 The electronic state is 4-A".
 Alpha  occ. eigenvalues --  -10.53761 -10.46546 -10.46476 -10.45024 -10.45022
 Alpha  occ. eigenvalues --   -1.15085  -0.99217  -0.96999  -0.81117  -0.76063
 Alpha  occ. eigenvalues --   -0.72095  -0.70956  -0.66012  -0.65665  -0.57278
 Alpha  occ. eigenvalues --   -0.52858  -0.49889  -0.47534
 Alpha virt. eigenvalues --   -0.36897  -0.24616  -0.16871  -0.13285  -0.13068
 Alpha virt. eigenvalues --   -0.10920  -0.10284  -0.09843  -0.08734  -0.07049
 Alpha virt. eigenvalues --   -0.05977  -0.05648  -0.05376  -0.02591  -0.02081

  Beta  occ. eigenvalues --  -10.52412 -10.44759 -10.44756 -10.44593 -10.44531
  Beta  occ. eigenvalues --   -1.12300  -0.97912  -0.92514  -0.79568  -0.72188
  Beta  occ. eigenvalues --   -0.71006  -0.66853  -0.65559  -0.64585  -0.48630
  Beta virt. eigenvalues --   -0.40502  -0.35573  -0.33609  -0.30082  -0.19897
  Beta virt. eigenvalues --   -0.16655  -0.13026  -0.12859  -0.10101  -0.09840
  Beta virt. eigenvalues --   -0.09676  -0.08340  -0.06231  -0.05282  -0.04909

 Mulliken charges and spin densities:
               1          2
     1  C   -0.178526  -0.031446
     2  H    0.237580  -0.001766
     3  H    0.217095   0.024153
     4  C    0.136595   1.095674
     5  C    0.136595   1.095674
     6  C    0.174512   0.826772
     7  C   -0.178526  -0.031446
     8  H    0.217095   0.024153
     9  H    0.237580  -0.001766
 Sum of Mulliken charges =   1.00000   3.00000

 Dipole moment (field-independent basis, Debye):
    X=             -2.1181    Y=              0.0372    Z=              0.0000  Tot=              2.1184
 Quadrupole moment (field-independent basis, Debye-Ang):
   XX=            -26.6097   YY=            -24.5483   ZZ=            -15.6138
   XY=             -1.3932   XZ=             -0.0000   YZ=             -0.0000

  Exact polarizability:  68.213   2.782  35.464  -0.000  -0.000  59.080
 Approx polarizability: 114.456   8.259  56.421   0.000  -0.000 101.524

                      1                      2                      3
                     A'                     A"                     A"
 Frequencies --    231.4143               258.4533               571.0928
 Red. masses --      1.4260                 1.5661                 2.4396
 Frc consts  --      0.0450                 0.0616                 0.4688
 IR Inten    --     39.5247                 0.2607                 2.2752

                      4                      5                      6
                     A'                     A'                     A"
 Frequencies --    617.1910               649.0628               752.0957
 Red. masses --      3.6779                 4.1246                 7.5444
 Frc consts  --      0.8254                 1.0238                 2.5143
 IR Inten    --     88.6597               194.9560                 9.6574

                      7                      8                      9
                     A'                     A"                     A'
 Frequencies --    790.7455               906.6318               961.5581
 Red. masses --      3.3604                 2.5631                 7.3360
 Frc consts  --      1.2380                 1.2413                 3.9963
 IR Inten    --      9.9944                 1.1925                 1.1295

                     10                     11                     12
                     A"                     A'                     A"
 Frequencies --    988.8325              1053.5364              1078.2378
 Red. masses --      1.3916                 1.1187                 3.2418
 Frc consts  --      0.8017                 0.7316                 2.2206
 IR Inten    --      9.5280                 6.5082                56.9225

                     13                     14                     15
                     A'                     A"                     A'
 Frequencies --   1143.6174              1197.3353              1272.0127
 Red. masses --      1.4721                 1.8992                 1.1890
 Frc consts  --      1.1344                 1.6042                 1.1335
 IR Inten    --     23.1606                89.4029                 7.0342

                     16                     17                     18
                     A"                     A'                     A"
 Frequencies --   1275.9592              1387.5024              2916.0222
 Red. masses --      1.1471                 3.9286                 1.0708
 Frc consts  --      1.1004                 4.4561                 5.3647
 IR Inten    --     91.5168               212.0029               107.9787

                     19                     20                     21
                     A'                     A"                     A'
 Frequencies --   2926.7344              2976.3877              2984.5198
 Red. masses --      1.0770                 1.0770                 1.0805
 Frc consts  --      5.4355                 5.6216                 5.6706
 IR Inten    --     87.2262               133.9330                35.6405

 - Thermochemistry -
 -------------------
 Temperature   298.150 Kelvin.  Pressure   1.00000 Atm.
 Atom     1 has atomic number  6 and mass  12.00000

 Molecular mass:    64.03130 amu.
 Principal axes and moments of inertia in atomic units:
                           1         2         3
     Eigenvalues --   178.29297 226.61710 381.92305
           X            0.00000   0.99992  -0.01286
           Y            0.00000   0.01286   0.99992
           Z            1.00000   0.00000  -0.00000
 This molecule is an asymmetric top.
 Rotational symmetry number  1.
 Rotational temperatures (Kelvin)      0.48579     0.38220     0.22678
 Rotational constants (GHZ):          10.12234     7.96383     4.72541
 Zero-point vibrational energy     161130.7 (Joules/Mol)
                                   38.51115 (Kcal/Mol)
 Warning -- explicit consideration of   4 degrees of freedom as
           vibrations may cause significant error
 Vibrational temperatures:    332.95   371.86   821.67   888.00   933.86
          (Kelvin)           1082.10  1137.70  1304.44  1383.47  1422.71
                             1515.80  1551.34  1645.41  1722.70  1830.14
                             1835.82  1996.30  4195.50  4210.91  4282.35
                             4294.05

 Zero-point correction=                           0.061371 (Hartree/Particle)
 Thermal correction to Energy=                    0.066090
 Thermal correction to Enthalpy=                  0.067034
 Thermal correction to Gibbs Free Energy=         0.033132
 Sum of electronic and zero-point Energies=           -192.285201
 Sum of electronic and thermal Energies=              -192.280482
 Sum of electronic and thermal Enthalpies=            -192.279538
 Sum of electronic and thermal Free Energies=         -192.313441

                     E (Thermal)             CV                S
                      KCal/Mol        Cal/Mol-Kelvin    Cal/Mol-Kelvin
 Total                   41.472             16.730             71.354
 Electronic               0.000              0.000              2.755
 Translational            0.889              2.981             38.389
 Rotational               0.889              2.981             24.249
 Vibrational             39.695             10.768              5.961
 Vibration     1          0.653              1.793              1.868
 Vibration     2          0.667              1.748              1.672
 Vibration     3          0.927              1.094              0.502
 Vibration     4          0.977              0.996              0.421

 Normal termination of Gaussian 09 at Thu Jan 31 07:51:57 2019.
