 Gaussian 09, Revision E.01,
 Gaussian 09:  EM64L-G09RevE.01 30-Nov-2015

 ------------------------------------------------------
 #p b3lyp/6-311++G(3df,2p) freq IOp(2/17=3) IOp(2/18=3)
 ------------------------------------------------------

 ---------
 b3lyp opt
 ---------
 Symbolic Z-matrix:
 Charge =  1 Multiplicity = 2

                         Standard orientation:
 ---------------------------------------------------------------------
 Center     Atomic      Atomic             Coordinates (Angstroms)
 Number     Number       Type             X           Y           Z
 ---------------------------------------------------------------------
      1          6           0       -1.047397    0.000000    0.158328
      2          6           0       -0.000000    0.000000    1.167903
      3          1           0        0.000000   -0.897248    1.788935
      4          1           0       -2.545928    0.000000   -1.572495
      5          6           0       -1.829256    0.000000   -0.778344
      6          1           0        0.000000    0.897248    1.788935
      7          6           0        1.047397   -0.000000    0.158328
      8          6           0        1.829256   -0.000000   -0.778344
      9          1           0        2.545928   -0.000000   -1.572495
 ---------------------------------------------------------------------

 SCF Done:  E(UB3LYP) =  -192.502544857     A.U. after   14 cycles

 The electronic state is 2-B1.
 Alpha  occ. eigenvalues --  -10.45270 -10.45268 -10.44959 -10.44341 -10.44340
 Alpha  occ. eigenvalues --   -1.08561  -1.00730  -0.96598  -0.77789  -0.77071
 Alpha  occ. eigenvalues --   -0.72451  -0.70735  -0.68987  -0.56942  -0.52940
 Alpha  occ. eigenvalues --   -0.52157  -0.51974
 Alpha virt. eigenvalues --   -0.24231  -0.21409  -0.18537  -0.15772  -0.15737
 Alpha virt. eigenvalues --   -0.11741  -0.11636  -0.10100  -0.09960  -0.09601
 Alpha virt. eigenvalues --   -0.06899  -0.06547  -0.06048  -0.05195  -0.04523

  Beta  occ. eigenvalues --  -10.45036 -10.45027 -10.44935 -10.43726 -10.43725
  Beta  occ. eigenvalues --   -1.07692  -0.98552  -0.95035  -0.77101  -0.76431
  Beta  occ. eigenvalues --   -0.71848  -0.70435  -0.68979  -0.52638  -0.52320
  Beta  occ. eigenvalues --   -0.51630
  Beta virt. eigenvalues --   -0.42130  -0.21519  -0.21025  -0.18170  -0.15657
  Beta virt. eigenvalues --   -0.13315  -0.11564  -0.11384  -0.10058  -0.09644
  Beta virt. eigenvalues --   -0.09129  -0.06693  -0.06497  -0.05476  -0.05120

 Mulliken charges and spin densities:
               1          2
     1  C   -0.305474   0.089735
     2  C   -0.502717   0.040339
     3  H    0.223811  -0.004943
     4  H    0.372764  -0.009489
     5  C    0.460257   0.404529
     6  H    0.223811  -0.004943
     7  C   -0.305474   0.089735
     8  C    0.460257   0.404529
     9  H    0.372764  -0.009489
 Sum of Mulliken charges =   1.00000   1.00000

 Dipole moment (field-independent basis, Debye):
    X=             -0.0000    Y=             -0.0000    Z=             -0.8435  Tot=              0.8435
 Quadrupole moment (field-independent basis, Debye-Ang):
   XX=             -9.7811   YY=            -27.7382   ZZ=            -15.8713
   XY=             -0.0000   XZ=             -0.0000   YZ=             -0.0000

  Exact polarizability: 103.843  -0.000  32.730  -0.000   0.000  50.992
 Approx polarizability: 191.773  -0.000  46.302   0.000  -0.000  88.234

                      1                      2                      3
                     A1                     A2                     B1
 Frequencies --    132.9978               295.6735               324.0386
 Red. masses --      4.0139                 4.2044                 4.3051
 Frc consts  --      0.0418                 0.2166                 0.2663
 IR Inten    --      0.8549                 0.0000                 9.1213

                      4                      5                      6
                     B2                     A1                     A2
 Frequencies --    333.4316               479.4362               687.6894
 Red. masses --      2.5014                 6.4075                 1.2394
 Frc consts  --      0.1638                 0.8678                 0.3453
 IR Inten    --     20.7623                 5.5138                 0.0000

                      7                      8                      9
                     B2                     A1                     B1
 Frequencies --    689.4540               738.2830               739.0119
 Red. masses --      1.2455                 1.3170                 1.3220
 Frc consts  --      0.3488                 0.4230                 0.4254
 IR Inten    --     91.8999                22.2153                13.0619

                     10                     11                     12
                     B1                     B2                     A1
 Frequencies --    897.6595               960.0729               978.3233
 Red. masses --      3.5276                 1.5833                 5.3492
 Frc consts  --      1.6747                 0.8598                 3.0165
 IR Inten    --      1.6274                 0.4526                 0.6669

                     13                     14                     15
                     A2                     B1                     A1
 Frequencies --   1178.5785              1271.1657              1445.6602
 Red. masses --      1.0952                 1.3681                 1.0891
 Frc consts  --      0.8963                 1.3025                 1.3410
 IR Inten    --      0.0000                 3.9838                12.5376

                     16                     17                     18
                     B1                     A1                     A1
 Frequencies --   2013.0216              2143.1632              3050.7251
 Red. masses --      6.2486                 6.0435                 1.0559
 Frc consts  --     14.9186                16.3549                 5.7900
 IR Inten    --    844.0513                 5.2448                20.2119

                     19                     20                     21
                     B2                     B1                     A1
 Frequencies --   3102.4811              3387.6397              3392.5643
 Red. masses --      1.1085                 1.1503                 1.1589
 Frc consts  --      6.2864                 7.7775                 7.8586
 IR Inten    --     19.7463                76.1051               156.0852

 - Thermochemistry -
 -------------------
 Temperature   298.150 Kelvin.  Pressure   1.00000 Atm.
 Atom     1 has atomic number  6 and mass  12.00000

 Molecular mass:    64.03130 amu.
 Principal axes and moments of inertia in atomic units:
                           1         2         3
     Eigenvalues --   159.14067 433.25916 580.81025
           X            1.00000   0.00000   0.00000
           Y            0.00000   0.00000   1.00000
           Z            0.00000   1.00000  -0.00000
 This molecule is an asymmetric top.
 Rotational symmetry number  2.
 Rotational temperatures (Kelvin)      0.54426     0.19991     0.14913
 Rotational constants (GHZ):          11.34054     4.16550     3.10728
 Zero-point vibrational energy     168919.1 (Joules/Mol)
                                   40.37264 (Kcal/Mol)
 Warning -- explicit consideration of   5 degrees of freedom as
           vibrations may cause significant error
 Vibrational temperatures:    191.35   425.41   466.22   479.73   689.80
          (Kelvin)            989.43   991.97  1062.22  1063.27  1291.53
                             1381.33  1407.59  1695.71  1828.92  2079.98
                             2896.29  3083.53  4389.31  4463.77  4874.05
                             4881.14

 Zero-point correction=                           0.064338 (Hartree/Particle)
 Thermal correction to Energy=                    0.069886
 Thermal correction to Enthalpy=                  0.070830
 Thermal correction to Gibbs Free Energy=         0.036247
 Sum of electronic and zero-point Energies=           -192.438207
 Sum of electronic and thermal Energies=              -192.432659
 Sum of electronic and thermal Enthalpies=            -192.431714
 Sum of electronic and thermal Free Energies=         -192.466297

                     E (Thermal)             CV                S
                      KCal/Mol        Cal/Mol-Kelvin    Cal/Mol-Kelvin
 Total                   43.854             19.131             72.786
 Electronic               0.000              0.000              1.377
 Translational            0.889              2.981             38.389
 Rotational               0.889              2.981             23.819
 Vibrational             42.077             13.170              9.201
 Vibration     1          0.613              1.920              2.902
 Vibration     2          0.690              1.682              1.441
 Vibration     3          0.709              1.627              1.290
 Vibration     4          0.715              1.609              1.243
 Vibration     5          0.836              1.296              0.712

 Optimization completed.
    -- Stationary point found.
 Normal termination of Gaussian 09 at Thu Jan 31 07:13:28 2019.
