 Gaussian 09, Revision E.01,
 Gaussian 09:  EM64L-G09RevE.01 30-Nov-2015

 ---------------------------------------------
 #p b3lyp/6-311++G(3df,2p) freq symmetry=Loose
 ---------------------------------------------

 ---------
 b3lyp opt
 ---------
 Symbolic Z-matrix:
 Charge =  1 Multiplicity = 2

                         Standard orientation:
 ---------------------------------------------------------------------
 Center     Atomic      Atomic             Coordinates (Angstroms)
 Number     Number       Type             X           Y           Z
 ---------------------------------------------------------------------
      1          6           0       -1.347724    0.708280    0.076312
      2          6           0       -0.241688   -0.091348    0.215109
      3          1           0       -1.819666    1.675039    0.161934
      4          6           0        1.200791   -0.236770    0.440923
      5          1           0        1.512039   -1.251678    0.714092
      6          1           0        1.560240    0.452379    1.229743
      7          6           0        1.943695    0.306209   -0.721773
      8          6           0       -1.428522   -0.595061   -0.256625
      9          1           0       -2.011926   -1.423598   -0.629444
 ---------------------------------------------------------------------

 SCF Done:  E(UB3LYP) =  -192.434704863     A.U. after   21 cycles

 The electronic state is 2-A.
 Alpha  occ. eigenvalues --  -10.49505 -10.48250 -10.48154 -10.45583 -10.42049
 Alpha  occ. eigenvalues --   -1.20114  -1.02582  -0.84050  -0.82867  -0.78850
 Alpha  occ. eigenvalues --   -0.73246  -0.68432  -0.64384  -0.62140  -0.59378
 Alpha  occ. eigenvalues --   -0.49945  -0.42050
 Alpha virt. eigenvalues --   -0.30279  -0.27358  -0.26812  -0.15368  -0.13784
 Alpha virt. eigenvalues --   -0.13638  -0.11874  -0.11016  -0.10640  -0.09705
 Alpha virt. eigenvalues --   -0.06390  -0.06221  -0.05278  -0.04695  -0.04062

  Beta  occ. eigenvalues --  -10.49336 -10.48237 -10.48118 -10.44181 -10.42117
  Beta  occ. eigenvalues --   -1.20015  -1.01589  -0.83983  -0.81918  -0.77348
  Beta  occ. eigenvalues --   -0.72142  -0.68205  -0.63767  -0.61846  -0.59211
  Beta  occ. eigenvalues --   -0.47911
  Beta virt. eigenvalues --   -0.28956  -0.28690  -0.27052  -0.23636  -0.15266
  Beta virt. eigenvalues --   -0.13772  -0.13627  -0.11775  -0.10952  -0.10487
  Beta virt. eigenvalues --   -0.09455  -0.06310  -0.06054  -0.05088  -0.04415

 Mulliken charges and spin densities:
               1          2
     1  C    0.131205   0.029495
     2  C    0.076421   0.017111
     3  H    0.312988  -0.000246
     4  C   -0.142759  -0.058993
     5  H    0.202829   0.035850
     6  H    0.228032   0.004242
     7  C   -0.234375   0.920548
     8  C    0.113688   0.052193
     9  H    0.311971  -0.000200
 Sum of Mulliken charges =   1.00000   1.00000

 Dipole moment (field-independent basis, Debye):
    X=             -3.2498    Y=             -0.6229    Z=              1.5850  Tot=              3.6689
 Quadrupole moment (field-independent basis, Debye-Ang):
   XX=            -16.9044   YY=            -20.6367   ZZ=            -26.6657
   XY=             -1.6577   XZ=              4.9669   YZ=              2.3801

  Exact polarizability:  68.836   1.507  43.793  -2.493   0.084  38.353
 Approx polarizability:  98.252   4.519  69.328  -6.249   1.949  60.131

                      1                      2                      3
                      A                      A                      A
 Frequencies --     80.6643               197.2915               334.0019
 Red. masses --      3.5805                 6.4830                 1.6856
 Frc consts  --      0.0137                 0.1487                 0.1108
 IR Inten    --      4.1252                30.3275                 4.9591

                      4                      5                      6
                      A                      A                      A
 Frequencies --    426.9927               510.0618               759.1283
 Red. masses --      1.6779                 3.6023                 3.1078
 Frc consts  --      0.1802                 0.5522                 1.0552
 IR Inten    --      1.0342                18.9567                 4.6558

                      7                      8                      9
                      A                      A                      A
 Frequencies --    866.7385               919.9523               974.4813
 Red. masses --      1.4338                 3.3276                 1.2173
 Frc consts  --      0.6346                 1.6593                 0.6811
 IR Inten    --     18.7025                34.8462                21.7180

                     10                     11                     12
                      A                      A                      A
 Frequencies --    991.4553              1007.6258              1108.2688
 Red. masses --      1.3346                 1.4275                 1.4298
 Frc consts  --      0.7729                 0.8539                 1.0347
 IR Inten    --      7.5582                 0.0979                27.8595

                     13                     14                     15
                      A                      A                      A
 Frequencies --   1171.3440              1294.5422              1345.0571
 Red. masses --      1.4946                 3.3877                 1.1439
 Frc consts  --      1.2083                 3.3449                 1.2193
 IR Inten    --     90.2007                21.5252                19.8206

                     16                     17                     18
                      A                      A                      A
 Frequencies --   1400.9272              1740.7630              2930.3402
 Red. masses --      6.3558                 6.3287                 1.0662
 Frc consts  --      7.3494                11.2991                 5.3942
 IR Inten    --    123.0082                43.7375                50.4906

                     19                     20                     21
                      A                      A                      A
 Frequencies --   3027.1800              3237.3603              3270.2864
 Red. masses --      1.0891                 1.0974                 1.1427
 Frc consts  --      5.8805                 6.7764                 7.2004
 IR Inten    --     15.2923                74.5256                52.1376

 - Thermochemistry -
 -------------------
 Temperature   298.150 Kelvin.  Pressure   1.00000 Atm.
 Atom     1 has atomic number  6 and mass  12.00000

 Molecular mass:    64.03130 amu.
 Principal axes and moments of inertia in atomic units:
                           1         2         3
     Eigenvalues --   111.02093 479.05657 502.93171
           X            0.99927  -0.01742   0.03411
           Y            0.01340   0.99331   0.11470
           Z           -0.03588  -0.11416   0.99281
 This molecule is an asymmetric top.
 Rotational symmetry number  1.
 Rotational temperatures (Kelvin)      0.78016     0.18080     0.17222
 Rotational constants (GHZ):          16.25586     3.76728     3.58844
 Zero-point vibrational energy     165051.5 (Joules/Mol)
                                   39.44826 (Kcal/Mol)
 Warning -- explicit consideration of   5 degrees of freedom as
           vibrations may cause significant error
 Vibrational temperatures:    116.06   283.86   480.55   614.35   733.86
          (Kelvin)           1092.21  1247.04  1323.60  1402.06  1426.48
                             1449.75  1594.55  1685.30  1862.56  1935.23
                             2015.62  2504.57  4216.10  4355.43  4657.83
                             4705.21

 Zero-point correction=                           0.062865 (Hartree/Particle)
 Thermal correction to Energy=                    0.068304
 Thermal correction to Enthalpy=                  0.069249
 Thermal correction to Gibbs Free Energy=         0.033927
 Sum of electronic and zero-point Energies=           -192.371840
 Sum of electronic and thermal Energies=              -192.366400
 Sum of electronic and thermal Enthalpies=            -192.365456
 Sum of electronic and thermal Free Energies=         -192.400777

                     E (Thermal)             CV                S
                      KCal/Mol        Cal/Mol-Kelvin    Cal/Mol-Kelvin
 Total                   42.862             17.830             74.340
 Electronic               0.000              0.000              1.377
 Translational            0.889              2.981             38.389
 Rotational               0.889              2.981             24.796
 Vibrational             41.084             11.868              9.778
 Vibration     1          0.600              1.962              3.875
 Vibration     2          0.637              1.844              2.158
 Vibration     3          0.716              1.608              1.241
 Vibration     4          0.789              1.411              0.869
 Vibration     5          0.865              1.228              0.633

 Optimization completed.
    -- Stationary point found.
 Normal termination of Gaussian 09 at Mon Jun 20 04:02:05 2016.
