 Gaussian 09, Revision E.01,
 Gaussian 09:  EM64L-G09RevE.01 30-Nov-2015

 ---------------------------------------------
 #p b3lyp/6-311++G(3df,2p) freq symmetry=Loose
 ---------------------------------------------

 ---------
 b3lyp opt
 ---------
 Symbolic Z-matrix:
 Charge =  1 Multiplicity = 4

                         Standard orientation:
 ---------------------------------------------------------------------
 Center     Atomic      Atomic             Coordinates (Angstroms)
 Number     Number       Type             X           Y           Z
 ---------------------------------------------------------------------
      1          6           0        0.055182    0.672066   -0.000000
      2          6           0        0.731353   -0.381786    0.858542
      3          6           0        0.731353   -1.469456    0.000000
      4          6           0        0.731353   -0.381786   -0.858542
      5          1           0        0.621123    1.616675   -0.000000
      6          6           0       -1.445825    0.842173   -0.000000
      7          1           0       -1.742706    1.408009    0.882466
      8          1           0       -1.742706    1.408009   -0.882466
      9          1           0       -1.956213   -0.119957    0.000000
 ---------------------------------------------------------------------

 SCF Done:  E(UB3LYP) =  -192.324427058     A.U. after   17 cycles

 The electronic state is 4-A".
 Alpha  occ. eigenvalues --  -10.55017 -10.55014 -10.52899 -10.48516 -10.37752
 Alpha  occ. eigenvalues --   -1.23794  -1.00149  -0.89189  -0.86819  -0.75150
 Alpha  occ. eigenvalues --   -0.70459  -0.69106  -0.64919  -0.60283  -0.60073
 Alpha  occ. eigenvalues --   -0.59375  -0.55648  -0.49629
 Alpha virt. eigenvalues --   -0.30942  -0.29107  -0.15327  -0.12992  -0.12876
 Alpha virt. eigenvalues --   -0.11202  -0.09262  -0.08461  -0.08028  -0.07520
 Alpha virt. eigenvalues --   -0.07370  -0.04966  -0.04804  -0.04657  -0.03678

  Beta  occ. eigenvalues --  -10.52943 -10.52941 -10.51279 -10.48260 -10.37753
  Beta  occ. eigenvalues --   -1.20659  -0.98879  -0.87875  -0.80225  -0.72175
  Beta  occ. eigenvalues --   -0.67982  -0.67088  -0.59299  -0.58681  -0.57450
  Beta virt. eigenvalues --   -0.46793  -0.38869  -0.33147  -0.25192  -0.25010
  Beta virt. eigenvalues --   -0.14934  -0.12864  -0.11855  -0.10320  -0.08880
  Beta virt. eigenvalues --   -0.08158  -0.07515  -0.06831  -0.06767  -0.04796

 Mulliken charges and spin densities:
               1          2
     1  C   -0.096359  -0.104879
     2  C    0.393864   1.124879
     3  C    0.010673   0.776784
     4  C    0.393864   1.124879
     5  H    0.238266   0.056260
     6  C   -0.524297  -0.004310
     7  H    0.196856   0.008806
     8  H    0.196856   0.008806
     9  H    0.190276   0.008775
 Sum of Mulliken charges =   1.00000   3.00000

 Dipole moment (field-independent basis, Debye):
    X=              0.7248    Y=              0.2776    Z=             -0.0000  Tot=              0.7762
 Quadrupole moment (field-independent basis, Debye-Ang):
   XX=            -21.8778   YY=            -21.0257   ZZ=            -24.1678
   XY=             -2.9100   XZ=             -0.0000   YZ=              0.0000

  Exact polarizability:  45.455  -8.368  54.194   0.000   0.000  41.497
 Approx polarizability:  61.134 -10.390  89.596   0.000   0.000  80.466

                      1                      2                      3
                     A"                     A'                     A"
 Frequencies --    196.6676               283.9525               358.8459
 Red. masses --      1.0771                 4.2014                 3.7663
 Frc consts  --      0.0245                 0.1996                 0.2857
 IR Inten    --      0.0441                 0.5915                 0.0820

                      4                      5                      6
                     A'                     A"                     A'
 Frequencies --    571.2554               590.4901               782.6785
 Red. masses --      6.2929                10.5096                 3.7061
 Frc consts  --      1.2099                 2.1590                 1.3376
 IR Inten    --      1.3790                 1.0920                 5.4590

                      7                      8                      9
                     A'                     A"                     A"
 Frequencies --    877.1181               960.9139              1029.9901
 Red. masses --      6.2981                 1.3753                 1.5708
 Frc consts  --      2.8548                 0.7482                 0.9818
 IR Inten    --      1.3016                24.5019                 1.3956

                     10                     11                     12
                     A'                     A'                     A"
 Frequencies --   1053.1024              1130.6963              1167.4426
 Red. masses --      1.6271                 2.7663                 2.9331
 Frc consts  --      1.0632                 2.0838                 2.3553
 IR Inten    --      2.6586                 5.9246                 3.8703

                     13                     14                     15
                     A'                     A'                     A'
 Frequencies --   1285.8999              1418.7849              1452.8179
 Red. masses --      1.5119                 1.2239                 5.4713
 Frc consts  --      1.4730                 1.4515                 6.8040
 IR Inten    --      1.4024                11.2844                 3.5037

                     16                     17                     18
                     A"                     A'                     A'
 Frequencies --   1466.9053              1484.2483              2953.3699
 Red. masses --      1.0430                 1.1038                 1.0767
 Frc consts  --      1.3223                 1.4327                 5.5334
 IR Inten    --      9.9854                16.8523               120.9100

                     19                     20                     21
                     A'                     A"                     A'
 Frequencies --   3041.1806              3120.2334              3125.0454
 Red. masses --      1.0330                 1.1029                 1.1046
 Frc consts  --      5.6290                 6.3263                 6.3560
 IR Inten    --      9.1659                 0.5645                 0.7405

 - Thermochemistry -
 -------------------
 Temperature   298.150 Kelvin.  Pressure   1.00000 Atm.
 Atom     1 has atomic number  6 and mass  12.00000

 Molecular mass:    64.03130 amu.
 Principal axes and moments of inertia in atomic units:
                           1         2         3
     Eigenvalues --   121.72833 371.69999 387.52858
           X            0.72903   0.00000   0.68448
           Y           -0.68448   0.00000   0.72903
           Z            0.00000   1.00000  -0.00000
 This molecule is an asymmetric top.
 Rotational symmetry number  1.
 Rotational temperatures (Kelvin)      0.71153     0.23302     0.22350
 Rotational constants (GHZ):          14.82597     4.85537     4.65705
 Zero-point vibrational energy     169580.5 (Joules/Mol)
                                   40.53070 (Kcal/Mol)
 Warning -- explicit consideration of   5 degrees of freedom as
           vibrations may cause significant error
 Vibrational temperatures:    282.96   408.54   516.30   821.91   849.58
          (Kelvin)           1126.10  1261.98  1382.54  1481.92  1515.18
                             1626.82  1679.69  1850.12  2041.31  2090.28
                             2110.55  2135.50  4249.24  4375.58  4489.31
                             4496.24

 Zero-point correction=                           0.064590 (Hartree/Particle)
 Thermal correction to Energy=                    0.069447
 Thermal correction to Enthalpy=                  0.070391
 Thermal correction to Gibbs Free Energy=         0.036125
 Sum of electronic and zero-point Energies=           -192.259837
 Sum of electronic and thermal Energies=              -192.254980
 Sum of electronic and thermal Enthalpies=            -192.254036
 Sum of electronic and thermal Free Energies=         -192.288302

                     E (Thermal)             CV                S
                      KCal/Mol        Cal/Mol-Kelvin    Cal/Mol-Kelvin
 Total                   43.579             16.502             72.120
 Electronic               0.000              0.000              2.755
 Translational            0.889              2.981             38.389
 Rotational               0.889              2.981             24.376
 Vibrational             41.801             10.541              6.600
 Vibration     1          0.636              1.845              2.164
 Vibration     2          0.682              1.703              1.510
 Vibration     3          0.734              1.557              1.127
 Vibration     4          0.927              1.093              0.502
 Vibration     5          0.948              1.052              0.466

 Optimization completed.
    -- Stationary point found.
 Normal termination of Gaussian 09 at Wed Jul 20 19:03:47 2016.
