 Gaussian 09, Revision E.01,
 Gaussian 09:  EM64L-G09RevE.01 30-Nov-2015

 ---------------------------------------------
 #p b3lyp/6-311++G(3df,2p) freq symmetry=Loose
 ---------------------------------------------

 ---------
 b3lyp opt
 ---------
 Symbolic Z-matrix:
 Charge =  1 Multiplicity = 2

                         Standard orientation:
 ---------------------------------------------------------------------
 Center     Atomic      Atomic             Coordinates (Angstroms)
 Number     Number       Type             X           Y           Z
 ---------------------------------------------------------------------
      1          6           0        0.307956    0.621455   -0.000000
      2          6           0        0.335616   -0.686560    0.755563
      3          6           0        0.335616   -1.781354    0.000000
      4          6           0        0.335616   -0.686560   -0.755563
      5          1           0        1.266906    1.134443   -0.000000
      6          6           0       -0.921437    1.484878    0.000000
      7          1           0       -0.893150    2.124803    0.882462
      8          1           0       -0.893150    2.124803   -0.882462
      9          1           0       -1.840815    0.904788    0.000000
 ---------------------------------------------------------------------

 SCF Done:  E(UB3LYP) =  -192.433742650     A.U. after   14 cycles

 The electronic state is 2-A'.
 Alpha  occ. eigenvalues --  -10.54497 -10.54471 -10.53029 -10.51401 -10.38688
 Alpha  occ. eigenvalues --   -1.27941  -1.03707  -0.91370  -0.82436  -0.77979
 Alpha  occ. eigenvalues --   -0.70883  -0.69221  -0.64508  -0.61189  -0.59916
 Alpha  occ. eigenvalues --   -0.59880  -0.55127
 Alpha virt. eigenvalues --   -0.33477  -0.29058  -0.26805  -0.15670  -0.13364
 Alpha virt. eigenvalues --   -0.12021  -0.11692  -0.08843  -0.08754  -0.08152
 Alpha virt. eigenvalues --   -0.07535  -0.06675  -0.05684  -0.05003  -0.04467

  Beta  occ. eigenvalues --  -10.54093 -10.54069 -10.51459 -10.51286 -10.38695
  Beta  occ. eigenvalues --   -1.27574  -1.03201  -0.90824  -0.80714  -0.77352
  Beta  occ. eigenvalues --   -0.70126  -0.68843  -0.61634  -0.60294  -0.59718
  Beta  occ. eigenvalues --   -0.57714
  Beta virt. eigenvalues --   -0.41934  -0.32825  -0.26987  -0.24366  -0.15547
  Beta virt. eigenvalues --   -0.13350  -0.11934  -0.11509  -0.08730  -0.08566
  Beta virt. eigenvalues --   -0.08067  -0.07275  -0.06487  -0.05503  -0.04837

 Mulliken charges and spin densities:
               1          2
     1  C    0.024130  -0.020383
     2  C    0.337300   0.128922
     3  C   -0.085307   0.759817
     4  C    0.337300   0.128922
     5  H    0.249881  -0.003737
     6  C   -0.444387   0.006925
     7  H    0.197920  -0.000820
     8  H    0.197920  -0.000820
     9  H    0.185243   0.001173
 Sum of Mulliken charges =   1.00000   1.00000

 Dipole moment (field-independent basis, Debye):
    X=              0.5756    Y=              0.4652    Z=             -0.0000  Tot=              0.7401
 Quadrupole moment (field-independent basis, Debye-Ang):
   XX=            -23.0694   YY=            -17.8830   ZZ=            -26.2716
   XY=             -1.8682   XZ=             -0.0000   YZ=              0.0000

  Exact polarizability:  35.719  -5.007  58.123  -0.000  -0.000  40.314
 Approx polarizability:  51.409  -3.917  92.378   0.000  -0.000  82.362

                      1                      2                      3
                     A"                     A'                     A"
 Frequencies --    207.9498               263.9356               374.8051
 Red. masses --      1.0933                 4.4010                 4.2305
 Frc consts  --      0.0279                 0.1806                 0.3501
 IR Inten    --      0.0314                 0.3535                 2.9872

                      4                      5                      6
                     A"                     A'                     A'
 Frequencies --    502.6689               547.7886               769.4280
 Red. masses --      6.8875                 5.1021                 4.0764
 Frc consts  --      1.0254                 0.9020                 1.4219
 IR Inten    --     33.3804                 2.7540                 8.7427

                      7                      8                      9
                     A'                     A"                     A'
 Frequencies --    942.2036              1027.1185              1117.7567
 Red. masses --      3.3656                 1.2469                 1.8699
 Frc consts  --      1.7603                 0.7750                 1.3764
 IR Inten    --      7.5080                12.0907                 6.4053

                     10                     11                     12
                     A"                     A'                     A"
 Frequencies --   1121.0243              1152.3056              1246.4013
 Red. masses --      1.3913                 3.7937                 7.9168
 Frc consts  --      1.0301                 2.9679                 7.2463
 IR Inten    --      0.8159                46.4987                 0.5025

                     13                     14                     15
                     A'                     A'                     A"
 Frequencies --   1350.2648              1418.8683              1475.6404
 Red. masses --      1.3407                 1.1707                 1.0411
 Frc consts  --      1.4401                 1.3886                 1.3357
 IR Inten    --     14.6919                 4.6883                10.9354

                     16                     17                     18
                     A'                     A'                     A'
 Frequencies --   1482.5969              1734.6620              3044.6530
 Red. masses --      1.0682                11.7031                 1.0343
 Frc consts  --      1.3834                20.7482                 5.6491
 IR Inten    --     14.9106                22.7347                12.3933

                     19                     20                     21
                     A"                     A'                     A'
 Frequencies --   3113.7794              3127.4046              3146.0653
 Red. masses --      1.1020                 1.0915                 1.1023
 Frc consts  --      6.2951                 6.2899                 6.4284
 IR Inten    --      3.9764                16.2767                 6.5818

 - Thermochemistry -
 -------------------
 Temperature   298.150 Kelvin.  Pressure   1.00000 Atm.
 Atom     1 has atomic number  6 and mass  12.00000

 Molecular mass:    64.03130 amu.
 Principal axes and moments of inertia in atomic units:
                           1         2         3
     Eigenvalues --    91.33686 403.65571 421.38392
           X           -0.35474   0.00000   0.93497
           Y            0.93497   0.00000   0.35474
           Z           -0.00000   1.00000  -0.00000
 This molecule is an asymmetric top.
 Rotational symmetry number  1.
 Rotational temperatures (Kelvin)      0.94829     0.21457     0.20555
 Rotational constants (GHZ):          19.75918     4.47099     4.28289
 Zero-point vibrational energy     174459.3 (Joules/Mol)
                                   41.69678 (Kcal/Mol)
 Warning -- explicit consideration of   5 degrees of freedom as
           vibrations may cause significant error
 Vibrational temperatures:    299.19   379.74   539.26   723.23   788.14
          (Kelvin)           1107.03  1355.62  1477.79  1608.20  1612.90
                             1657.91  1793.29  1942.73  2041.43  2123.11
                             2133.12  2495.79  4380.57  4480.03  4499.63
                             4526.48

 Zero-point correction=                           0.066448 (Hartree/Particle)
 Thermal correction to Energy=                    0.071320
 Thermal correction to Enthalpy=                  0.072264
 Thermal correction to Gibbs Free Energy=         0.038680
 Sum of electronic and zero-point Energies=           -192.367295
 Sum of electronic and thermal Energies=              -192.362423
 Sum of electronic and thermal Enthalpies=            -192.361479
 Sum of electronic and thermal Free Energies=         -192.395063

                     E (Thermal)             CV                S
                      KCal/Mol        Cal/Mol-Kelvin    Cal/Mol-Kelvin
 Total                   44.754             16.298             70.684
 Electronic               0.000              0.000              1.377
 Translational            0.889              2.981             38.389
 Rotational               0.889              2.981             24.256
 Vibrational             42.976             10.336              6.661
 Vibration     1          0.641              1.829              2.062
 Vibration     2          0.670              1.739              1.636
 Vibration     3          0.746              1.524              1.060
 Vibration     4          0.858              1.244              0.651
 Vibration     5          0.903              1.145              0.549

 Optimization completed.
    -- Stationary point found.
 Normal termination of Gaussian 09 at Wed Jul 20 05:34:13 2016.
