 Gaussian 09, Revision E.01,
 Gaussian 09:  EM64L-G09RevE.01 30-Nov-2015

 ---------------------------------------------
 #p b3lyp/6-311++G(3df,2p) freq symmetry=Loose
 ---------------------------------------------

 ---------
 b3lyp opt
 ---------
 Symbolic Z-matrix:
 Charge =  3 Multiplicity = 2

                         Standard orientation:
 ---------------------------------------------------------------------
 Center     Atomic      Atomic             Coordinates (Angstroms)
 Number     Number       Type             X           Y           Z
 ---------------------------------------------------------------------
      1          1           0        1.951571    1.705617   -0.149861
      2          1           0       -3.242685    0.002769   -0.772514
      3          6           0        1.551307    0.664904   -0.099085
      4          6           0       -2.210647    0.001296   -0.318636
      5          6           0        0.305941   -0.000215    0.086350
      6          6           0       -1.074239   -0.001644    0.365462
      7          1           0       -1.403306   -0.005545    1.479306
      8          6           0        1.551224   -0.664118   -0.100997
      9          1           0        1.952906   -1.704179   -0.155492
 ---------------------------------------------------------------------

 SCF Done:  E(UB3LYP) =  -191.170103034     A.U. after   16 cycles

 The electronic state is 2-A.
 Alpha  occ. eigenvalues --  -11.06902 -10.99038 -10.98274 -10.94832 -10.94746
 Alpha  occ. eigenvalues --   -1.64949  -1.56122  -1.38392  -1.25898  -1.25044
 Alpha  occ. eigenvalues --   -1.19768  -1.18783  -1.09748  -1.09371  -1.06402
 Alpha  occ. eigenvalues --   -1.01819
 Alpha virt. eigenvalues --   -0.84685  -0.74969  -0.74246  -0.67785  -0.56011
 Alpha virt. eigenvalues --   -0.50312  -0.49062  -0.48397  -0.47403  -0.46668
 Alpha virt. eigenvalues --   -0.44708  -0.42505  -0.40711  -0.40293  -0.37644

  Beta  occ. eigenvalues --  -11.05943 -10.98666 -10.98216 -10.94677 -10.94588
  Beta  occ. eigenvalues --   -1.63768  -1.54313  -1.37335  -1.24348  -1.24116
  Beta  occ. eigenvalues --   -1.18902  -1.18106  -1.09159  -1.06068  -1.05313
  Beta virt. eigenvalues --   -0.91794  -0.83458  -0.73910  -0.70874  -0.67582
  Beta virt. eigenvalues --   -0.55205  -0.49907  -0.48356  -0.48024  -0.47051
  Beta virt. eigenvalues --   -0.45314  -0.44309  -0.42350  -0.40230  -0.39993

 Mulliken charges and spin densities:
               1          2
     1  H    0.425580   0.039989
     2  H    0.498772  -0.012896
     3  C    0.263540   0.035770
     4  C    0.403031   0.497960
     5  C    0.316664   0.303942
     6  C    0.081098   0.067150
     7  H    0.322368  -0.007909
     8  C    0.263446   0.035904
     9  H    0.425499   0.040091
 Sum of Mulliken charges =   3.00000   1.00000

 Dipole moment (field-independent basis, Debye):
    X=             -4.3674    Y=              0.0020    Z=             -0.2326  Tot=              4.3736
 Quadrupole moment (field-independent basis, Debye-Ang):
   XX=             35.2573   YY=            -12.1796   ZZ=            -16.6263
   XY=             -0.0058   XZ=              1.4318   YZ=             -0.0073

  Exact polarizability:  88.748   0.002  31.802  -0.457  -0.008  27.478
 Approx polarizability: 162.161   0.005  50.190   1.269  -0.029  45.095

                      1                      2                      3
                      A                      A                      A
 Frequencies --    167.6363               221.6439               289.1919
 Red. masses --      3.0082                 3.2729                 2.1086
 Frc consts  --      0.0498                 0.0947                 0.1039
 IR Inten    --     10.9405                25.0554                29.1605

                      4                      5                      6
                      A                      A                      A
 Frequencies --    459.6546               602.3690               636.4822
 Red. masses --      3.0297                 1.2178                 8.0832
 Frc consts  --      0.3771                 0.2603                 1.9293
 IR Inten    --      3.3047                52.8600                92.8661

                      7                      8                      9
                      A                      A                      A
 Frequencies --    696.6243               717.1977               820.7381
 Red. masses --      3.3954                 1.8860                 1.3364
 Frc consts  --      0.9708                 0.5716                 0.5304
 IR Inten    --     11.8325                 2.6671                 6.2670

                     10                     11                     12
                      A                      A                      A
 Frequencies --    822.9428               900.5033               923.4107
 Red. masses --      1.1627                 1.2439                 1.4834
 Frc consts  --      0.4639                 0.5943                 0.7452
 IR Inten    --     86.4096                54.5075                 5.5889

                     13                     14                     15
                      A                      A                      A
 Frequencies --    976.3605              1033.8029              1194.0808
 Red. masses --      1.4113                 1.4526                 5.1819
 Frc consts  --      0.7926                 0.9147                 4.3532
 IR Inten    --      3.7798                25.3660               419.4122

                     16                     17                     18
                      A                      A                      A
 Frequencies --   1526.1169              1696.2358              2459.9479
 Red. masses --      4.6610                 5.7951                 1.0738
 Frc consts  --      6.3959                 9.8238                 3.8284
 IR Inten    --    411.4444                11.9725               619.2807

                     19                     20                     21
                      A                      A                      A
 Frequencies --   2826.1918              2839.3416              2915.1904
 Red. masses --      1.1375                 1.0856                 1.1756
 Frc consts  --      5.3530                 5.1566                 5.8866
 IR Inten    --    775.8454               736.3030               691.6479

 - Thermochemistry -
 -------------------
 Temperature   298.150 Kelvin.  Pressure   1.00000 Atm.
 Atom     1 has atomic number  1 and mass   1.00783

 Molecular mass:    64.03130 amu.
 Principal axes and moments of inertia in atomic units:
                           1         2         3
     Eigenvalues --    80.20173 562.89497 600.22940
           X            1.00000  -0.00000  -0.00117
           Y            0.00000   1.00000  -0.00009
           Z            0.00117   0.00009   1.00000
 This molecule is an asymmetric top.
 Rotational symmetry number  1.
 Rotational temperatures (Kelvin)      1.07995     0.15387     0.14430
 Rotational constants (GHZ):          22.50252     3.20618     3.00675
 Zero-point vibrational energy     147892.3 (Joules/Mol)
                                   35.34711 (Kcal/Mol)
 Warning -- explicit consideration of   5 degrees of freedom as
           vibrations may cause significant error
 Vibrational temperatures:    241.19   318.90   416.08   661.34   866.67
          (Kelvin)            915.75  1002.29  1031.89  1180.86  1184.03
                             1295.62  1328.58  1404.76  1487.41  1718.01
                             2195.74  2440.50  3539.31  4066.25  4085.17
                             4194.30

 Zero-point correction=                           0.056329 (Hartree/Particle)
 Thermal correction to Energy=                    0.061856
 Thermal correction to Enthalpy=                  0.062800
 Thermal correction to Gibbs Free Energy=         0.027854
 Sum of electronic and zero-point Energies=           -191.113774
 Sum of electronic and thermal Energies=              -191.108247
 Sum of electronic and thermal Enthalpies=            -191.107303
 Sum of electronic and thermal Free Energies=         -191.142249

                     E (Thermal)             CV                S
                      KCal/Mol        Cal/Mol-Kelvin    Cal/Mol-Kelvin
 Total                   38.815             19.562             73.551
 Electronic               0.000              0.000              1.377
 Translational            0.889              2.981             38.389
 Rotational               0.889              2.981             24.808
 Vibrational             37.038             13.600              8.976
 Vibration     1          0.624              1.882              2.462
 Vibration     2          0.648              1.808              1.946
 Vibration     3          0.686              1.694              1.479
 Vibration     4          0.818              1.340              0.767
 Vibration     5          0.961              1.027              0.446

 Normal termination of Gaussian 09 at Mon Jun 20 10:12:13 2016.
