 Gaussian 09, Revision E.01,
 Gaussian 09:  EM64L-G09RevE.01 30-Nov-2015

 ---------------------------------------------
 #p b3lyp/6-311++G(3df,2p) freq symmetry=Loose
 ---------------------------------------------

 ---------
 b3lyp opt
 ---------
 Symbolic Z-matrix:
 Charge =  2 Multiplicity = 1

                         Standard orientation:
 ---------------------------------------------------------------------
 Center     Atomic      Atomic             Coordinates (Angstroms)
 Number     Number       Type             X           Y           Z
 ---------------------------------------------------------------------
      1          6           0       -1.837789   -0.859133    0.000218
      2          6           0       -0.782084    0.047998    0.000300
      3          6           0       -0.987004    1.421417   -0.000296
      4          6           0        1.806544    0.134962   -0.000084
      5          1           0        1.835984    1.219489    0.000001
      6          1           0        2.429000   -0.322717    0.821354
      7          1           0        2.432714   -0.323741   -0.817833
      8          6           0        0.585840   -0.564294   -0.000500
      9          1           0        0.589255   -1.658727   -0.001346
 ---------------------------------------------------------------------

 SCF Done:  E(RB3LYP) =  -191.778396608     A.U. after   13 cycles

 The electronic state is 1-A.
 Alpha  occ. eigenvalues --  -10.82864 -10.82665 -10.77503 -10.71091 -10.62863
 Alpha  occ. eigenvalues --   -1.36862  -1.25667  -1.17264  -1.10073  -0.97905
 Alpha  occ. eigenvalues --   -0.90820  -0.87986  -0.84855  -0.82403  -0.81594
 Alpha  occ. eigenvalues --   -0.78888
 Alpha virt. eigenvalues --   -0.64005  -0.62178  -0.60061  -0.59495  -0.41372
 Alpha virt. eigenvalues --   -0.33755  -0.30228  -0.28566  -0.28301  -0.27102
 Alpha virt. eigenvalues --   -0.25822  -0.23492  -0.22305  -0.22080  -0.20737

 Mulliken charges:
               1
     1  C    0.210633
     2  C    0.894479
     3  C    0.125427
     4  C   -0.254275
     5  H    0.226609
     6  H    0.290694
     7  H    0.290269
     8  C   -0.095544
     9  H    0.311708
 Sum of Mulliken charges =   2.00000

 Dipole moment (field-independent basis, Debye):
    X=              1.1331    Y=             -1.0145    Z=              0.0032  Tot=              1.5209
 Quadrupole moment (field-independent basis, Debye-Ang):
   XX=              0.2720   YY=            -17.3922   ZZ=            -23.7917
   XY=             -2.0866   XZ=              0.0056   YZ=              0.0018

  Exact polarizability:  68.701   2.359  50.096   0.008  -0.000  31.762
 Approx polarizability: 117.182  14.859 109.545   0.021  -0.005  50.379

                      1                      2                      3
                      A                      A                      A
 Frequencies --     81.1176               168.8160               176.1151
 Red. masses --      2.1589                 6.0404                 1.1153
 Frc consts  --      0.0084                 0.1014                 0.0204
 IR Inten    --      0.0002                 0.5022                25.5508

                      4                      5                      6
                      A                      A                      A
 Frequencies --    315.1379               333.3083               429.2344
 Red. masses --      7.7144                 7.9081                 3.5125
 Frc consts  --      0.4514                 0.5176                 0.3813
 IR Inten    --     26.4898                 5.8603                 8.0268

                      7                      8                      9
                      A                      A                      A
 Frequencies --    741.0127               788.6824               974.3935
 Red. masses --      1.1364                 2.9918                 1.8237
 Frc consts  --      0.3676                 1.0964                 1.0202
 IR Inten    --     10.9885                11.8394               332.3058

                     10                     11                     12
                      A                      A                      A
 Frequencies --    983.0014              1090.3358              1170.0346
 Red. masses --      1.7734                 1.1219                 7.0001
 Frc consts  --      1.0096                 0.7858                 5.6462
 IR Inten    --      1.5085               197.8488               248.9880

                     13                     14                     15
                      A                      A                      A
 Frequencies --   1262.8886              1295.7060              1368.4594
 Red. masses --      2.5295                 1.0638                 1.4159
 Frc consts  --      2.3770                 1.0523                 1.5622
 IR Inten    --    118.5984                33.3221               136.3142

                     16                     17                     18
                      A                      A                      A
 Frequencies --   1458.2393              1485.3912              2715.0974
 Red. masses --      3.4561                 1.5791                 1.0715
 Frc consts  --      4.3301                 2.0527                 4.6541
 IR Inten    --    346.9523               174.8671               149.1191

                     19                     20                     21
                      A                      A                      A
 Frequencies --   2774.0881              3087.1496              3165.2498
 Red. masses --      1.0584                 1.0943                 1.0987
 Frc consts  --      4.7990                 6.1447                 6.4853
 IR Inten    --    547.3220                60.9783                35.7740

 - Thermochemistry -
 -------------------
 Temperature   298.150 Kelvin.  Pressure   1.00000 Atm.
 Atom     1 has atomic number  6 and mass  12.00000

 Molecular mass:    64.03130 amu.
 Principal axes and moments of inertia in atomic units:
                           1         2         3
     Eigenvalues --   153.50408 425.09647 568.93015
           X            0.99998  -0.00564   0.00004
           Y            0.00564   0.99998   0.00005
           Z           -0.00004  -0.00005   1.00000
 This molecule is an asymmetric top.
 Rotational symmetry number  1.
 Rotational temperatures (Kelvin)      0.56424     0.20375     0.15224
 Rotational constants (GHZ):          11.75696     4.24549     3.17217
 Zero-point vibrational energy     154697.8 (Joules/Mol)
                                   36.97367 (Kcal/Mol)
 Warning -- explicit consideration of   6 degrees of freedom as
           vibrations may cause significant error
 Vibrational temperatures:    116.71   242.89   253.39   453.41   479.56
          (Kelvin)            617.57  1066.15  1134.74  1401.93  1414.32
                             1568.75  1683.42  1817.01  1864.23  1968.91
                             2098.08  2137.14  3906.41  3991.29  4441.71
                             4554.08

 Zero-point correction=                           0.058921 (Hartree/Particle)
 Thermal correction to Energy=                    0.065147
 Thermal correction to Enthalpy=                  0.066091
 Thermal correction to Gibbs Free Energy=         0.029728
 Sum of electronic and zero-point Energies=           -191.719475
 Sum of electronic and thermal Energies=              -191.713250
 Sum of electronic and thermal Enthalpies=            -191.712305
 Sum of electronic and thermal Free Energies=         -191.748668

                     E (Thermal)             CV                S
                      KCal/Mol        Cal/Mol-Kelvin    Cal/Mol-Kelvin
 Total                   40.880             19.677             76.532
 Electronic               0.000              0.000              0.000
 Translational            0.889              2.981             38.389
 Rotational               0.889              2.981             25.121
 Vibrational             39.103             13.715             13.022
 Vibration     1          0.600              1.962              3.864
 Vibration     2          0.625              1.881              2.449
 Vibration     3          0.628              1.872              2.369
 Vibration     4          0.702              1.645              1.335
 Vibration     5          0.715              1.609              1.244
 Vibration     6          0.791              1.407              0.861

 Normal termination of Gaussian 09 at Mon Jun 20 07:51:38 2016.
