 Gaussian 09, Revision E.01,
 Gaussian 09:  EM64L-G09RevE.01 30-Nov-2015

 ------------------------------------------------------
 #p b3lyp/6-311++G(3df,2p) freq IOp(2/17=3) IOp(2/18=3)
 ------------------------------------------------------

 ---------
 b3lyp opt
 ---------
 Symbolic Z-matrix:
 Charge =  1 Multiplicity = 2

                         Standard orientation:
 ---------------------------------------------------------------------
 Center     Atomic      Atomic             Coordinates (Angstroms)
 Number     Number       Type             X           Y           Z
 ---------------------------------------------------------------------
      1          6           0        0.000000    0.801336   -0.843638
      2          6           0       -0.000000   -0.801336   -0.843638
      3          6           0       -0.000000   -1.076453    0.616497
      4          6           0        0.000000    0.000000    1.345123
      5          6           0        0.000000    1.076453    0.616497
      6          1           0       -0.875272    1.237821   -1.336310
      7          1           0        0.875272   -1.237821   -1.336310
      8          1           0       -0.875272   -1.237821   -1.336310
      9          1           0        0.875272    1.237821   -1.336310
 ---------------------------------------------------------------------

 SCF Done:  E(UB3LYP) =  -192.422285357     A.U. after   16 cycles

 The electronic state is 2-B2.
 Alpha  occ. eigenvalues --  -10.51066 -10.51058 -10.45368 -10.44145 -10.44131
 Alpha  occ. eigenvalues --   -1.15396  -0.97609  -0.96973  -0.83700  -0.73081
 Alpha  occ. eigenvalues --   -0.71370  -0.69366  -0.65262  -0.62011  -0.57763
 Alpha  occ. eigenvalues --   -0.55483  -0.50281
 Alpha virt. eigenvalues --   -0.36469  -0.35995  -0.17993  -0.16508  -0.12851
 Alpha virt. eigenvalues --   -0.12524  -0.11124  -0.08954  -0.08213  -0.08011
 Alpha virt. eigenvalues --   -0.07873  -0.06997  -0.06666  -0.03486  -0.03098

  Beta  occ. eigenvalues --  -10.49657 -10.49654 -10.46325 -10.44035 -10.44021
  Beta  occ. eigenvalues --   -1.14431  -0.97723  -0.94899  -0.82528  -0.73512
  Beta  occ. eigenvalues --   -0.71153  -0.65691  -0.64540  -0.61835  -0.57925
  Beta  occ. eigenvalues --   -0.54185
  Beta virt. eigenvalues --   -0.35931  -0.34538  -0.34064  -0.18260  -0.16448
  Beta virt. eigenvalues --   -0.12745  -0.12054  -0.11188  -0.08855  -0.08309
  Beta virt. eigenvalues --   -0.07963  -0.07314  -0.06944  -0.06014  -0.02858

 Mulliken charges and spin densities:
               1          2
     1  C   -0.251409   0.018388
     2  C   -0.251409   0.018388
     3  C    0.109336   0.997189
     4  C    0.453824  -1.016547
     5  C    0.109336   0.997189
     6  H    0.207581  -0.003652
     7  H    0.207581  -0.003652
     8  H    0.207581  -0.003652
     9  H    0.207581  -0.003652
 Sum of Mulliken charges =   1.00000   1.00000

 Dipole moment (field-independent basis, Debye):
    X=             -0.0000    Y=              0.0000    Z=             -1.2401  Tot=              1.2401
 Quadrupole moment (field-independent basis, Debye-Ang):
   XX=            -24.8366   YY=            -21.6413   ZZ=            -19.9507
   XY=             -0.0000   XZ=              0.0000   YZ=             -0.0000

  Exact polarizability:  33.636   0.000  55.840  -0.000   0.000  51.585
 Approx polarizability:  50.392  -0.000 112.949  -0.000  -0.000  87.221

                      1                      2                      3
                     B1                     A2                     B1
 Frequencies --    174.2990               189.4701               623.3487
 Red. masses --      6.3996                 1.6013                 1.2176
 Frc consts  --      0.1146                 0.0339                 0.2788
 IR Inten    --      7.7777                 0.0000                 5.7932

                      4                      5                      6
                     A1                     B2                     A1
 Frequencies --    644.0657               677.9233               801.8961
 Red. masses --     11.6416                 7.5115                 3.8163
 Frc consts  --      2.8453                 2.0339                 1.4459
 IR Inten    --     10.6135                16.0545                 0.2240

                      7                      8                      9
                     A2                     B2                     A1
 Frequencies --    918.7402               929.2196               980.5286
 Red. masses --      2.3586                 4.0660                 6.7463
 Frc consts  --      1.1730                 2.0685                 3.8215
 IR Inten    --      0.0000                11.4578                 1.9776

                     10                     11                     12
                     B1                     A2                     A1
 Frequencies --   1089.1201              1102.6514              1191.5446
 Red. masses --      1.0645                 1.0599                 1.3268
 Frc consts  --      0.7440                 0.7593                 1.1098
 IR Inten    --      0.0908                 0.0000                23.1919

                     13                     14                     15
                     B2                     B2                     A1
 Frequencies --   1244.2286              1303.3598              1392.4078
 Red. masses --      1.5355                 2.2453                 1.1741
 Frc consts  --      1.4006                 2.2473                 1.3412
 IR Inten    --     41.8856                51.1425                67.1806

                     16                     17                     18
                     B2                     A1                     A1
 Frequencies --   1427.0646              1444.1213              3028.4023
 Red. masses --      1.5970                 4.8249                 1.0593
 Frc consts  --      1.9162                 5.9286                 5.7242
 IR Inten    --      0.0082                 0.4350                51.9824

                     19                     20                     21
                     B2                     A2                     B1
 Frequencies --   3028.4123              3057.9037              3063.1632
 Red. masses --      1.0607                 1.1017                 1.0994
 Frc consts  --      5.7316                 6.0697                 6.0780
 IR Inten    --     19.4024                 0.0000                39.6385

 - Thermochemistry -
 -------------------
 Temperature   298.150 Kelvin.  Pressure   1.00000 Atm.
 Atom     1 has atomic number  6 and mass  12.00000

 Molecular mass:    64.03130 amu.
 Principal axes and moments of inertia in atomic units:
                           1         2         3
     Eigenvalues --   187.43277 206.27648 371.65162
           X            0.00000   0.00000   1.00000
           Y           -0.00000   1.00000  -0.00000
           Z            1.00000   0.00000  -0.00000
 This molecule is an asymmetric top.
 Rotational symmetry number  2.
 Rotational temperatures (Kelvin)      0.46211     0.41989     0.23305
 Rotational constants (GHZ):           9.62874     8.74914     4.85600
 Zero-point vibrational energy     169342.6 (Joules/Mol)
                                   40.47385 (Kcal/Mol)
 Warning -- explicit consideration of   2 degrees of freedom as
           vibrations may cause significant error
 Vibrational temperatures:    250.78   272.60   896.86   926.67   975.38
          (Kelvin)           1153.75  1321.86  1336.94  1410.76  1567.00
                             1586.47  1714.36  1790.17  1875.24  2003.36
                             2053.23  2077.77  4357.19  4357.20  4399.64
                             4407.20

 Zero-point correction=                           0.064499 (Hartree/Particle)
 Thermal correction to Energy=                    0.069248
 Thermal correction to Enthalpy=                  0.070192
 Thermal correction to Gibbs Free Energy=         0.037334
 Sum of electronic and zero-point Energies=           -192.357786
 Sum of electronic and thermal Energies=              -192.353038
 Sum of electronic and thermal Enthalpies=            -192.352093
 Sum of electronic and thermal Free Energies=         -192.384951

                     E (Thermal)             CV                S
                      KCal/Mol        Cal/Mol-Kelvin    Cal/Mol-Kelvin
 Total                   43.454             15.866             69.155
 Electronic               0.000              0.000              1.377
 Translational            0.889              2.981             38.389
 Rotational               0.889              2.981             22.801
 Vibrational             41.676              9.905              6.587
 Vibration     1          0.627              1.874              2.389
 Vibration     2          0.633              1.854              2.233

 Optimization completed.
    -- Stationary point found.
 Normal termination of Gaussian 09 at Thu Jan 31 07:14:55 2019.
