 Gaussian 09, Revision E.01,
 Gaussian 09:  EM64L-G09RevE.01 30-Nov-2015

 ---------------------------------------------
 #p b3lyp/6-311++G(3df,2p) freq symmetry=Loose
 ---------------------------------------------

 ---------
 b3lyp opt
 ---------
 Symbolic Z-matrix:
 Charge =  2 Multiplicity = 3

                         Standard orientation:
 ---------------------------------------------------------------------
 Center     Atomic      Atomic             Coordinates (Angstroms)
 Number     Number       Type             X           Y           Z
 ---------------------------------------------------------------------
      1          6           0       -1.000056    0.497632    0.000663
      2          1           0       -1.205761    1.201766   -0.850267
      3          1           0       -1.206245    1.197769    0.854877
      4          6           0       -2.047621   -0.444704   -0.000986
      5          1           0       -3.145832   -0.462719   -0.001548
      6          6           0        0.414738    0.017362    0.000260
      7          6           0        1.371681   -0.937929    0.000656
      8          6           0        1.767736    0.354494   -0.000799
      9          1           0        2.518968    1.142049   -0.001824
 ---------------------------------------------------------------------

 SCF Done:  E(UB3LYP) =  -191.883387610     A.U. after   14 cycles

 The electronic state is 3-A.
 Alpha  occ. eigenvalues --  -10.77650 -10.71689 -10.71175 -10.69558 -10.68795
 Alpha  occ. eigenvalues --   -1.40993  -1.29503  -1.11250  -1.02654  -0.98957
 Alpha  occ. eigenvalues --   -0.95278  -0.91672  -0.90562  -0.83620  -0.82912
 Alpha  occ. eigenvalues --   -0.74390  -0.73355
 Alpha virt. eigenvalues --   -0.59541  -0.48150  -0.45556  -0.34440  -0.32245
 Alpha virt. eigenvalues --   -0.28975  -0.28840  -0.27018  -0.26349  -0.25267
 Alpha virt. eigenvalues --   -0.24482  -0.23966  -0.22753  -0.20644  -0.19452

  Beta  occ. eigenvalues --  -10.75924 -10.71358 -10.69477 -10.69376 -10.68807
  Beta  occ. eigenvalues --   -1.39908  -1.27865  -1.08610  -1.01558  -0.96927
  Beta  occ. eigenvalues --   -0.93860  -0.91402  -0.86374  -0.82201  -0.81972
  Beta virt. eigenvalues --   -0.57260  -0.57229  -0.56342  -0.47994  -0.42987
  Beta virt. eigenvalues --   -0.34058  -0.30874  -0.28813  -0.28692  -0.26403
  Beta virt. eigenvalues --   -0.25789  -0.24065  -0.23891  -0.23540  -0.21916

 Mulliken charges and spin densities:
               1          2
     1  C   -0.051033   0.019956
     2  H    0.288651   0.015728
     3  H    0.288874   0.015540
     4  C    0.013988   0.962127
     5  H    0.371762   0.017839
     6  C    0.308997  -0.087870
     7  C    0.255349   0.916908
     8  C    0.169701   0.134321
     9  H    0.353710   0.005452
 Sum of Mulliken charges =   2.00000   2.00000

 Dipole moment (field-independent basis, Debye):
    X=             -3.4344    Y=              1.6816    Z=             -0.0002  Tot=              3.8240
 Quadrupole moment (field-independent basis, Debye-Ang):
   XX=             13.2294   YY=            -18.0801   ZZ=            -22.3862
   XY=              2.7556   XZ=             -0.0029   YZ=              0.0008

  Exact polarizability:  55.470   2.012  39.329  -0.000  -0.001  27.654
 Approx polarizability:  75.347   3.632  67.096  -0.000  -0.001  42.828

                      1                      2                      3
                      A                      A                      A
 Frequencies --     42.3480               227.4266               230.0131
 Red. masses --      2.2560                 1.6959                 3.9730
 Frc consts  --      0.0024                 0.0517                 0.1238
 IR Inten    --      0.2725                24.1269                 8.6299

                      4                      5                      6
                      A                      A                      A
 Frequencies --    390.2567               486.9139               662.9448
 Red. masses --      2.6815                 3.4770                 1.7991
 Frc consts  --      0.2406                 0.4857                 0.4659
 IR Inten    --     11.9659                 0.4177                25.2657

                      7                      8                      9
                      A                      A                      A
 Frequencies --    669.6597               855.9841               923.7696
 Red. masses --      1.3024                 2.3472                 1.3002
 Frc consts  --      0.3441                 1.0133                 0.6537
 IR Inten    --      9.2407                 9.0517                19.8434

                     10                     11                     12
                      A                      A                      A
 Frequencies --    974.0386              1063.0518              1082.2784
 Red. masses --      1.2397                 1.8709                 1.2125
 Frc consts  --      0.6930                 1.2457                 0.8368
 IR Inten    --     31.0222                34.3625                 3.5335

                     13                     14                     15
                      A                      A                      A
 Frequencies --   1159.0185              1213.6829              1361.0267
 Red. masses --      1.0845                 7.8659                 3.1183
 Frc consts  --      0.8584                 6.8266                 3.4033
 IR Inten    --    123.5471                72.6355                 3.1702

                     16                     17                     18
                      A                      A                      A
 Frequencies --   1377.0197              1741.1747              2770.3903
 Red. masses --      5.0580                 8.9394                 1.0791
 Frc consts  --      5.6507                15.9677                 4.8797
 IR Inten    --     86.0125                 0.7674               144.8168

                     19                     20                     21
                      A                      A                      A
 Frequencies --   2794.2050              3082.5679              3178.4132
 Red. masses --      1.0652                 1.0994                 1.1228
 Frc consts  --      4.8999                 6.1548                 6.6829
 IR Inten    --    200.1129               161.9883               158.9838

 - Thermochemistry -
 -------------------
 Temperature   298.150 Kelvin.  Pressure   1.00000 Atm.
 Atom     1 has atomic number  6 and mass  12.00000

 Molecular mass:    64.03130 amu.
 Principal axes and moments of inertia in atomic units:
                           1         2         3
     Eigenvalues --    82.67211 518.13353 590.34113
           X            0.99994   0.01053  -0.00004
           Y           -0.01053   0.99994   0.00004
           Z            0.00004  -0.00004   1.00000
 This molecule is an asymmetric top.
 Rotational symmetry number  1.
 Rotational temperatures (Kelvin)      1.04768     0.16717     0.14672
 Rotational constants (GHZ):          21.83011     3.48316     3.05712
 Zero-point vibrational energy     157226.3 (Joules/Mol)
                                   37.57799 (Kcal/Mol)
 Warning -- explicit consideration of   5 degrees of freedom as
           vibrations may cause significant error
 Vibrational temperatures:     60.93   327.22   330.94   561.49   700.56
          (Kelvin)            953.83   963.49  1231.57  1329.10  1401.42
                             1529.49  1557.16  1667.57  1746.22  1958.21
                             1981.22  2505.16  3985.97  4020.23  4435.12
                             4573.02

 Zero-point correction=                           0.059884 (Hartree/Particle)
 Thermal correction to Energy=                    0.065673
 Thermal correction to Enthalpy=                  0.066617
 Thermal correction to Gibbs Free Energy=         0.029892
 Sum of electronic and zero-point Energies=           -191.823503
 Sum of electronic and thermal Energies=              -191.817715
 Sum of electronic and thermal Enthalpies=            -191.816771
 Sum of electronic and thermal Free Energies=         -191.853496

                     E (Thermal)             CV                S
                      KCal/Mol        Cal/Mol-Kelvin    Cal/Mol-Kelvin
 Total                   41.210             18.840             77.294
 Electronic               0.000              0.000              2.183
 Translational            0.889              2.981             38.389
 Rotational               0.889              2.981             24.740
 Vibrational             39.433             12.879             11.982
 Vibration     1          0.595              1.980              5.146
 Vibration     2          0.651              1.799              1.899
 Vibration     3          0.652              1.795              1.879
 Vibration     4          0.758              1.491              0.999
 Vibration     5          0.843              1.279              0.692

 Normal termination of Gaussian 09 at Mon Jun 20 10:11:52 2016.
