 Gaussian 09, Revision E.01,
 Gaussian 09:  EM64L-G09RevE.01 30-Nov-2015

 ------------------------------------------------------
 #p b3lyp/6-311++G(3df,2p) freq IOp(2/17=3) IOp(2/18=3)
 ------------------------------------------------------

 ---------
 b3lyp opt
 ---------
 Symbolic Z-matrix:
 Charge =  1 Multiplicity = 4

                         Standard orientation:
 ---------------------------------------------------------------------
 Center     Atomic      Atomic             Coordinates (Angstroms)
 Number     Number       Type             X           Y           Z
 ---------------------------------------------------------------------
      1          6           0        0.437894   -0.706537    0.000000
      2          1           0        1.525181   -0.800763    0.000000
      3          6           0       -0.273887   -1.973380   -0.000000
      4          6           0       -0.077632    0.418988   -0.907499
      5          1           0       -0.688738    0.314555   -1.798770
      6          6           0        0.000000    1.452041    0.000000
      7          1           0       -0.201497    2.511016   -0.000000
      8          6           0       -0.077632    0.418988    0.907499
      9          1           0       -0.688738    0.314555    1.798770
 ---------------------------------------------------------------------

 SCF Done:  E(UB3LYP) =  -192.372298008     A.U. after   15 cycles

 The electronic state is 4-A".
 Alpha  occ. eigenvalues --  -10.48988 -10.48987 -10.46592 -10.45627 -10.45411
 Alpha  occ. eigenvalues --   -1.18391  -0.98841  -0.89232  -0.83750  -0.78541
 Alpha  occ. eigenvalues --   -0.74408  -0.67292  -0.66848  -0.60810  -0.60650
 Alpha  occ. eigenvalues --   -0.55110  -0.44542  -0.44088
 Alpha virt. eigenvalues --   -0.30342  -0.26640  -0.14683  -0.13662  -0.13065
 Alpha virt. eigenvalues --   -0.12197  -0.09450  -0.08652  -0.08449  -0.06995
 Alpha virt. eigenvalues --   -0.06852  -0.06291  -0.05185  -0.03259  -0.02572

  Beta  occ. eigenvalues --  -10.48715 -10.48714 -10.46404 -10.45635 -10.41004
  Beta  occ. eigenvalues --   -1.17834  -0.95619  -0.88610  -0.79932  -0.78086
  Beta  occ. eigenvalues --   -0.71170  -0.66028  -0.65816  -0.59869  -0.56626
  Beta virt. eigenvalues --   -0.35943  -0.31345  -0.26522  -0.24625  -0.23909
  Beta virt. eigenvalues --   -0.14522  -0.13456  -0.12081  -0.11786  -0.08882
  Beta virt. eigenvalues --   -0.08375  -0.07888  -0.06422  -0.06386  -0.05426

 Mulliken charges and spin densities:
               1          2
     1  C    0.253713  -0.101313
     2  H    0.248183   0.054805
     3  C   -0.399206   2.796795
     4  C   -0.000459   0.129598
     5  H    0.258699  -0.000837
     6  C    0.097710  -0.015513
     7  H    0.283122   0.007705
     8  C   -0.000459   0.129598
     9  H    0.258699  -0.000837
 Sum of Mulliken charges =   1.00000   3.00000

 Dipole moment (field-independent basis, Debye):
    X=             -0.3728    Y=              1.9936    Z=             -0.0000  Tot=              2.0282
 Quadrupole moment (field-independent basis, Debye-Ang):
   XX=            -25.3344   YY=            -18.3229   ZZ=            -20.8665
   XY=             -1.2653   XZ=              0.0000   YZ=             -0.0000

  Exact polarizability:  34.662   1.347  64.809   0.000   0.000  44.688
 Approx polarizability:  50.916   4.689 100.019  -0.000   0.000  77.626

                      1                      2                      3
                     A'                     A"                     A'
 Frequencies --    223.3166               375.9072               471.5944
 Red. masses --      3.2696                 4.4268                 2.4551
 Frc consts  --      0.0961                 0.3686                 0.3217
 IR Inten    --     18.5676                 0.1139                 6.5820

                      4                      5                      6
                     A'                     A"                     A"
 Frequencies --    663.1219               766.3956               899.0701
 Red. masses --      3.2621                 8.2528                 1.3152
 Frc consts  --      0.8452                 2.8560                 0.6264
 IR Inten    --      6.0337                 0.3050                 6.4959

                      7                      8                      9
                     A'                     A'                     A'
 Frequencies --    907.5588               982.2361              1005.2066
 Red. masses --      1.5812                 1.5040                 2.8371
 Frc consts  --      0.7674                 0.8549                 1.6890
 IR Inten    --     51.4386                 2.3133                 5.8294

                     10                     11                     12
                     A"                     A'                     A"
 Frequencies --   1031.8482              1087.6615              1099.5910
 Red. masses --      1.0832                 4.6411                 1.2202
 Frc consts  --      0.6795                 3.2349                 0.8693
 IR Inten    --      3.3532                27.3279                 8.7781

                     13                     14                     15
                     A"                     A'                     A'
 Frequencies --   1187.6402              1196.7421              1274.3419
 Red. masses --      1.3500                 1.6914                 1.2267
 Frc consts  --      1.1219                 1.4272                 1.1737
 IR Inten    --      1.7244                41.5972                38.8290

                     16                     17                     18
                     A"                     A'                     A'
 Frequencies --   1379.8606              1506.1119              3059.4233
 Red. masses --      3.7029                 4.8779                 1.0852
 Frc consts  --      4.1539                 6.5192                 5.9847
 IR Inten    --     42.9322                10.2686                19.7611

                     19                     20                     21
                     A'                     A"                     A'
 Frequencies --   3172.1061              3174.3797              3260.3906
 Red. masses --      1.0948                 1.0963                 1.1130
 Frc consts  --      6.4905                 6.5089                 6.9707
 IR Inten    --     11.3435                37.4700                43.1879

 - Thermochemistry -
 -------------------
 Temperature   298.150 Kelvin.  Pressure   1.00000 Atm.
 Atom     1 has atomic number  6 and mass  12.00000

 Molecular mass:    64.03130 amu.
 Principal axes and moments of inertia in atomic units:
                           1         2         3
     Eigenvalues --   117.75194 342.96035 412.95416
           X           -0.00222   0.00000   1.00000
           Y            1.00000   0.00000   0.00222
           Z           -0.00000   1.00000   0.00000
 This molecule is an asymmetric top.
 Rotational symmetry number  1.
 Rotational temperatures (Kelvin)      0.73556     0.25255     0.20974
 Rotational constants (GHZ):          15.32664     5.26224     4.37032
 Zero-point vibrational energy     171810.7 (Joules/Mol)
                                   41.06374 (Kcal/Mol)
 Warning -- explicit consideration of   3 degrees of freedom as
           vibrations may cause significant error
 Vibrational temperatures:    321.30   540.85   678.52   954.08  1102.67
          (Kelvin)           1293.56  1305.77  1413.22  1446.27  1484.60
                             1564.90  1582.06  1708.75  1721.84  1833.49
                             1985.31  2166.96  4401.82  4563.95  4567.22
                             4690.97

 Zero-point correction=                           0.065439 (Hartree/Particle)
 Thermal correction to Energy=                    0.069919
 Thermal correction to Enthalpy=                  0.070863
 Thermal correction to Gibbs Free Energy=         0.037317
 Sum of electronic and zero-point Energies=           -192.306859
 Sum of electronic and thermal Energies=              -192.302379
 Sum of electronic and thermal Enthalpies=            -192.301435
 Sum of electronic and thermal Free Energies=         -192.334981

                     E (Thermal)             CV                S
                      KCal/Mol        Cal/Mol-Kelvin    Cal/Mol-Kelvin
 Total                   43.875             15.654             70.605
 Electronic               0.000              0.000              2.755
 Translational            0.889              2.981             38.389
 Rotational               0.889              2.981             24.326
 Vibrational             42.098              9.692              5.135
 Vibration     1          0.649              1.806              1.932
 Vibration     2          0.747              1.521              1.056
 Vibration     3          0.829              1.313              0.733

 Optimization completed.
    -- Stationary point found.
 Normal termination of Gaussian 09 at Thu Jan 31 07:50:41 2019.
