 Gaussian 09, Revision E.01,
 Gaussian 09:  EM64L-G09RevE.01 30-Nov-2015

 ------------------------------------------------------
 #p b3lyp/6-311++G(3df,2p) freq IOp(2/17=3) IOp(2/18=3)
 ------------------------------------------------------

 ---------
 b3lyp opt
 ---------
 Symbolic Z-matrix:
 Charge =  2 Multiplicity = 1

                         Standard orientation:
 ---------------------------------------------------------------------
 Center     Atomic      Atomic             Coordinates (Angstroms)
 Number     Number       Type             X           Y           Z
 ---------------------------------------------------------------------
      1          6           0       -1.281217    0.263687    0.000000
      2          6           0        0.000000    0.684179    0.000000
      3          1           0        0.233388    1.772116    0.000000
      4          6           0       -2.471385   -0.035607    0.000000
      5          1           0       -3.519303   -0.305732    0.000000
      6          6           0        1.135459   -0.091036    0.000000
      7          1           0        3.219129   -0.194618    0.000000
      8          6           0        2.245293   -0.727434    0.000000
      9          1           0        2.297883   -1.834506    0.000000
 ---------------------------------------------------------------------

 SCF Done:  E(RB3LYP) =  -191.996994582     A.U. after   15 cycles

 The electronic state is 1-A'.
 Alpha  occ. eigenvalues --  -10.75787 -10.72864 -10.68966 -10.67126 -10.63853
 Alpha  occ. eigenvalues --   -1.31951  -1.24891  -1.18451  -1.05793  -0.97565
 Alpha  occ. eigenvalues --   -0.95151  -0.93666  -0.90222  -0.83899  -0.74756
 Alpha  occ. eigenvalues --   -0.72486
 Alpha virt. eigenvalues --   -0.59626  -0.58216  -0.43205  -0.40578  -0.33515
 Alpha virt. eigenvalues --   -0.31652  -0.28035  -0.27552  -0.25344  -0.25297
 Alpha virt. eigenvalues --   -0.24089  -0.23207  -0.22551  -0.20761  -0.20088

 Mulliken charges:
               1
     1  C    0.014908
     2  C   -0.250496
     3  H    0.274804
     4  C    0.427868
     5  H    0.422447
     6  C    0.675079
     7  H    0.343213
     8  C   -0.232919
     9  H    0.325097
 Sum of Mulliken charges =   2.00000

 Dipole moment (field-independent basis, Debye):
    X=              2.3119    Y=             -0.7505    Z=              0.0000  Tot=              2.4307
 Quadrupole moment (field-independent basis, Debye-Ang):
   XX=             26.8586   YY=            -15.3905   ZZ=            -25.6689
   XY=             -5.1450   XZ=              0.0000   YZ=              0.0000

  Exact polarizability: 108.236  -8.809  38.414   0.006   0.002  25.738
 Approx polarizability: 232.332 -13.667  61.929  -0.000  -0.000  36.358

                      1                      2                      3
                     A'                     A"                     ?A
 Frequencies --    109.6661               233.7153               293.3474
 Red. masses --      3.5140                 1.7963                 4.7235
 Frc consts  --      0.0249                 0.0578                 0.2395
 IR Inten    --      7.2373                33.1945                 0.8972

                      4                      5                      6
                     ?A                     A'                     A"
 Frequencies --    300.5550               425.5739               427.7460
 Red. masses --      2.4078                 2.2756                 1.2880
 Frc consts  --      0.1282                 0.2428                 0.1388
 IR Inten    --      5.4748                19.8673                14.7353

                      7                      8                      9
                     A'                     A'                     A"
 Frequencies --    718.8403               738.4506               837.5226
 Red. masses --      1.2569                 3.0963                 1.7135
 Frc consts  --      0.3827                 0.9948                 0.7081
 IR Inten    --     40.3835                 4.2939                 2.9902

                     10                     11                     12
                     A"                     A"                     A'
 Frequencies --    895.2379               914.2111               930.0860
 Red. masses --      1.4036                 1.3419                 4.4699
 Frc consts  --      0.6628                 0.6608                 2.2782
 IR Inten    --      9.5246                50.0059                 2.7719

                     13                     14                     15
                     A'                     A'                     A'
 Frequencies --   1113.8457              1215.0081              1380.6181
 Red. masses --      1.4184                 1.1149                 3.5683
 Frc consts  --      1.0368                 0.9698                 4.0073
 IR Inten    --      3.5292               151.3651                 1.1696

                     16                     17                     18
                     A'                     A'                     A'
 Frequencies --   1754.8725              2123.5315              2879.3855
 Red. masses --      9.4176                 6.1593                 1.0725
 Frc consts  --     17.0876                16.3643                 5.2390
 IR Inten    --    182.7304               870.3338               458.6863

                     19                     20                     21
                     A'                     A'                     A'
 Frequencies --   2915.4391              2956.2548              3277.8536
 Red. masses --      1.0702                 1.1060                 1.1682
 Frc consts  --      5.3595                 5.6950                 7.3948
 IR Inten    --    360.1356               273.0823               179.0749

 - Thermochemistry -
 -------------------
 Temperature   298.150 Kelvin.  Pressure   1.00000 Atm.
 Atom     1 has atomic number  6 and mass  12.00000

 Molecular mass:    64.03130 amu.
 Principal axes and moments of inertia in atomic units:
                           1         2         3
     Eigenvalues --    55.45291 718.70080 774.15371
           X            0.98898   0.14807   0.00000
           Y           -0.14807   0.98898   0.00000
           Z           -0.00000   0.00000   1.00000
 This molecule is an asymmetric top.
 Rotational symmetry number  1.
 Rotational temperatures (Kelvin)      1.56193     0.12051     0.11188
 Rotational constants (GHZ):          32.54547     2.51112     2.33124
 Zero-point vibrational energy     158156.9 (Joules/Mol)
                                   37.80039 (Kcal/Mol)
 Warning -- explicit consideration of   6 degrees of freedom as
           vibrations may cause significant error
 Vibrational temperatures:    157.78   336.26   422.06   432.43   612.31
          (Kelvin)            615.43  1034.25  1062.46  1205.01  1288.05
                             1315.34  1338.18  1602.57  1748.12  1986.40
                             2524.87  3055.28  4142.79  4194.66  4253.39
                             4716.09

 Zero-point correction=                           0.060239 (Hartree/Particle)
 Thermal correction to Energy=                    0.066189
 Thermal correction to Enthalpy=                  0.067134
 Thermal correction to Gibbs Free Energy=         0.031828
 Sum of electronic and zero-point Energies=           -191.936756
 Sum of electronic and thermal Energies=              -191.930805
 Sum of electronic and thermal Enthalpies=            -191.929861
 Sum of electronic and thermal Free Energies=         -191.965166

                     E (Thermal)             CV                S
                      KCal/Mol        Cal/Mol-Kelvin    Cal/Mol-Kelvin
 Total                   41.535             20.080             74.307
 Electronic               0.000              0.000              0.000
 Translational            0.889              2.981             38.389
 Rotational               0.889              2.981             24.937
 Vibrational             39.757             14.119             10.980
 Vibration     1          0.606              1.941              3.275
 Vibration     2          0.654              1.789              1.850
 Vibration     3          0.688              1.686              1.455
 Vibration     4          0.693              1.673              1.414
 Vibration     5          0.787              1.415              0.873
 Vibration     6          0.789              1.410              0.866

 Normal termination of Gaussian 09 at Thu Jan 31 07:43:43 2019.
