 Gaussian 09, Revision E.01,
 Gaussian 09:  EM64L-G09RevE.01 30-Nov-2015

 ---------------------------------------------
 #p b3lyp/6-311++G(3df,2p) freq symmetry=Loose
 ---------------------------------------------

 ---------
 b3lyp opt
 ---------
 Symbolic Z-matrix:
 Charge =  0 Multiplicity = 3

                         Standard orientation:
 ---------------------------------------------------------------------
 Center     Atomic      Atomic             Coordinates (Angstroms)
 Number     Number       Type             X           Y           Z
 ---------------------------------------------------------------------
      1          6           0        2.410552   -0.467691   -0.000000
      2          6           0       -1.165939   -0.288813    0.000000
      3          6           0        1.285533   -0.018447   -0.000000
      4          1           0       -1.020956   -1.366665    0.000000
      5          1           0        3.396145   -0.862140   -0.000000
      6          6           0       -2.422699    0.182207    0.000000
      7          1           0       -2.916522    1.140822    0.000000
      8          6           0        0.000000    0.509393    0.000000
      9          1           0       -0.103349    1.588090    0.000000
 ---------------------------------------------------------------------

 SCF Done:  E(UB3LYP) =  -192.801209634     A.U. after   17 cycles

 The electronic state is 3-A".
 Alpha  occ. eigenvalues --  -10.21484 -10.21452 -10.19990 -10.18782 -10.18409
 Alpha  occ. eigenvalues --   -0.83746  -0.77379  -0.70580  -0.59004  -0.54962
 Alpha  occ. eigenvalues --   -0.50362  -0.48323  -0.41534  -0.37511  -0.30884
 Alpha  occ. eigenvalues --   -0.29651  -0.26331  -0.21227
 Alpha virt. eigenvalues --   -0.01008  -0.00440   0.00562   0.01272   0.02038
 Alpha virt. eigenvalues --    0.03004   0.04729   0.06650   0.06836   0.07275
 Alpha virt. eigenvalues --    0.08762   0.08814   0.09690   0.10856   0.11123

  Beta  occ. eigenvalues --  -10.20517 -10.20323 -10.19271 -10.19002 -10.17906
  Beta  occ. eigenvalues --   -0.82231  -0.76091  -0.67694  -0.56853  -0.54235
  Beta  occ. eigenvalues --   -0.49357  -0.47086  -0.40601  -0.34895  -0.29167
  Beta  occ. eigenvalues --   -0.28305
  Beta virt. eigenvalues --   -0.10568  -0.09445  -0.00325   0.00647   0.00787
  Beta virt. eigenvalues --    0.01417   0.02156   0.03160   0.04888   0.06961
  Beta virt. eigenvalues --    0.07430   0.07956   0.08905   0.10019   0.10157

 Mulliken charges and spin densities:
               1          2
     1  C   -0.049504   0.347855
     2  C   -0.019750  -0.295375
     3  C   -0.144385  -0.142509
     4  H    0.150525   0.041537
     5  H    0.300965  -0.011874
     6  C   -0.412381   1.455214
     7  H    0.193685   0.016107
     8  C   -0.165602   0.608610
     9  H    0.146447  -0.019566
 Sum of Mulliken charges =  -0.00000   2.00000

 Dipole moment (field-independent basis, Debye):
    X=              0.1669    Y=              0.4529    Z=             -0.0000  Tot=              0.4827
 Quadrupole moment (field-independent basis, Debye-Ang):
   XX=            -26.4967   YY=            -27.4760   ZZ=            -32.8729
   XY=             -3.6866   XZ=             -0.0000   YZ=             -0.0000

  Exact polarizability: 117.670 -12.016  49.834  -0.000   0.000  39.617
 Approx polarizability: 180.191 -23.090  72.610  -0.000   0.000  55.310

                      1                      2                      3
                     A"                     A'                     A'
 Frequencies --    156.6914               174.5787               377.0679
 Red. masses --      2.8147                 3.7592                 2.6889
 Frc consts  --      0.0407                 0.0675                 0.2252
 IR Inten    --      2.5970                 0.7127                 2.8933

                      4                      5                      6
                     A"                     A'                     A"
 Frequencies --    431.9566               551.7377               557.8898
 Red. masses --      3.6519                 5.1965                 1.2810
 Frc consts  --      0.4015                 0.9320                 0.2349
 IR Inten    --      3.3117                 7.5430                47.0356

                      7                      8                      9
                     A"                     A'                     A"
 Frequencies --    641.2678               670.4451               774.6187
 Red. masses --      1.4342                 1.2586                 1.6794
 Frc consts  --      0.3475                 0.3333                 0.5937
 IR Inten    --     10.5637                44.1071                18.0918

                     10                     11                     12
                     A'                     A"                     A'
 Frequencies --    837.3177               915.3581              1053.4733
 Red. masses --      1.5530                 1.2019                 3.7741
 Frc consts  --      0.6415                 0.5934                 2.4678
 IR Inten    --     21.3285                43.8883                13.2408

                     13                     14                     15
                     A'                     A'                     A'
 Frequencies --   1165.4154              1249.3980              1368.4445
 Red. masses --      2.5022                 1.2413                 2.8158
 Frc consts  --      2.0023                 1.1417                 3.1067
 IR Inten    --      1.6138                 1.2727                 4.9589

                     16                     17                     18
                     A'                     A'                     A'
 Frequencies --   1452.6046              2088.6274              3107.6040
 Red. masses --      2.4366                 6.4883                 1.0849
 Frc consts  --      3.0292                16.6765                 6.1732
 IR Inten    --      8.4205                 0.1859                 0.7650

                     19                     20                     21
                     A'                     A'                     A'
 Frequencies --   3151.6984              3231.3339              3457.6994
 Red. masses --      1.0858                 1.0957                 1.1452
 Frc consts  --      6.3544                 6.7405                 8.0670
 IR Inten    --      2.9721                 0.2833                79.4055

 - Thermochemistry -
 -------------------
 Temperature   298.150 Kelvin.  Pressure   1.00000 Atm.
 Atom     1 has atomic number  6 and mass  12.00000

 Molecular mass:    64.03130 amu.
 Principal axes and moments of inertia in atomic units:
                           1         2         3
     Eigenvalues --    40.87533 713.26759 754.14293
           X            0.99420   0.10752   0.00000
           Y           -0.10752   0.99420   0.00000
           Z            0.00000  -0.00000   1.00000
 This molecule is an asymmetric top.
 Rotational symmetry number  1.
 Rotational temperatures (Kelvin)      2.11898     0.12143     0.11485
 Rotational constants (GHZ):          44.15233     2.53024     2.39310
 Zero-point vibrational energy     163979.5 (Joules/Mol)
                                   39.19204 (Kcal/Mol)
 Warning -- explicit consideration of   6 degrees of freedom as
           vibrations may cause significant error
 Vibrational temperatures:    225.44   251.18   542.52   621.49   793.83
          (Kelvin)            802.68   922.64   964.62  1114.50  1204.71
                             1316.99  1515.71  1676.77  1797.60  1968.88
                             2089.97  3005.07  4471.14  4534.59  4649.16
                             4974.85

 Zero-point correction=                           0.062456 (Hartree/Particle)
 Thermal correction to Energy=                    0.068054
 Thermal correction to Enthalpy=                  0.068999
 Thermal correction to Gibbs Free Energy=         0.033564
 Sum of electronic and zero-point Energies=           -192.738753
 Sum of electronic and thermal Energies=              -192.733155
 Sum of electronic and thermal Enthalpies=            -192.732211
 Sum of electronic and thermal Free Energies=         -192.767646

                     E (Thermal)             CV                S
                      KCal/Mol        Cal/Mol-Kelvin    Cal/Mol-Kelvin
 Total                   42.705             19.446             74.579
 Electronic               0.000              0.000              2.183
 Translational            0.889              2.981             38.389
 Rotational               0.889              2.981             24.601
 Vibrational             40.927             13.484              9.406
 Vibration     1          0.620              1.895              2.589
 Vibration     2          0.627              1.874              2.386
 Vibration     3          0.748              1.519              1.051
 Vibration     4          0.793              1.401              0.852
 Vibration     5          0.907              1.136              0.541
 Vibration     6          0.913              1.122              0.528

 Optimization completed.
    -- Stationary point found.
 Normal termination of Gaussian 09 at Wed Jul 20 04:05:23 2016.
