 Gaussian 09, Revision E.01,
 Gaussian 09:  EM64L-G09RevE.01 30-Nov-2015

 ---------------------------------------------
 #p b3lyp/6-311++G(3df,2p) freq symmetry=Loose
 ---------------------------------------------

 ---------
 b3lyp opt
 ---------
 Symbolic Z-matrix:
 Charge =  3 Multiplicity = 2

                         Standard orientation:
 ---------------------------------------------------------------------
 Center     Atomic      Atomic             Coordinates (Angstroms)
 Number     Number       Type             X           Y           Z
 ---------------------------------------------------------------------
      1          6           0       -0.368656    1.060207    0.017206
      2          1           0       -0.592805    1.646260    0.959191
      3          1           0       -0.624241    1.736979   -0.844941
      4          6           0       -1.279731   -0.256841   -0.008276
      5          1           0       -2.397075   -0.337874   -0.000363
      6          6           0       -0.222622   -1.142586   -0.040281
      7          6           0        1.062735   -0.941939    0.052321
      8          6           0        1.076768    0.574731   -0.019351
      9          1           0        2.003160    1.193203   -0.123602
 ---------------------------------------------------------------------

 SCF Done:  E(UB3LYP) =  -191.031464182     A.U. after   17 cycles

 The electronic state is 2-A.
 Alpha  occ. eigenvalues --  -11.07122 -11.06687 -11.06291 -11.05849 -10.94791
 Alpha  occ. eigenvalues --   -1.68374  -1.50682  -1.47403  -1.33051  -1.26091
 Alpha  occ. eigenvalues --   -1.22928  -1.17061  -1.16244  -1.13181  -1.08313
 Alpha  occ. eigenvalues --   -1.06763
 Alpha virt. eigenvalues --   -0.93298  -0.88174  -0.81186  -0.68765  -0.58661
 Alpha virt. eigenvalues --   -0.54291  -0.53562  -0.51066  -0.49889  -0.48637
 Alpha virt. eigenvalues --   -0.46791  -0.43998  -0.42764  -0.41883  -0.40327

  Beta  occ. eigenvalues --  -11.07060 -11.06688 -11.05895 -11.04295 -10.94642
  Beta  occ. eigenvalues --   -1.67007  -1.49624  -1.46720  -1.32482  -1.25186
  Beta  occ. eigenvalues --   -1.22322  -1.16777  -1.14995  -1.12042  -1.07626
  Beta virt. eigenvalues --   -0.93051  -0.91608  -0.83750  -0.80661  -0.67118
  Beta virt. eigenvalues --   -0.58119  -0.53678  -0.53042  -0.50647  -0.49356
  Beta virt. eigenvalues --   -0.48360  -0.46429  -0.43598  -0.42328  -0.41820

 Mulliken charges and spin densities:
               1          2
     1  C   -0.193746   0.063853
     2  H    0.326136   0.009594
     3  H    0.310190   0.009457
     4  C    0.277999  -0.029727
     5  H    0.426609   0.009581
     6  C    0.907105  -0.112777
     7  C    0.385239   1.047170
     8  C    0.180790  -0.005844
     9  H    0.379677   0.008695
 Sum of Mulliken charges =   3.00000   1.00000

 Dipole moment (field-independent basis, Debye):
    X=             -0.6356    Y=              0.6377    Z=              0.0007  Tot=              0.9004
 Quadrupole moment (field-independent basis, Debye-Ang):
   XX=              3.9945   YY=             -3.1259   ZZ=            -19.9481
   XY=              2.2215   XZ=             -0.2148   YZ=              0.0168

  Exact polarizability:  48.232  -1.686  43.730   0.090   0.245  24.522
 Approx polarizability: 100.209  -5.839  83.227   1.428   1.104  37.722

                      1                      2                      3
                      A                      A                      A
 Frequencies --     33.3899               238.5296               350.2210
 Red. masses --      2.5275                 2.4323                 7.0024
 Frc consts  --      0.0017                 0.0815                 0.5060
 IR Inten    --      0.5302                 6.7236                 3.6134

                      4                      5                      6
                      A                      A                      A
 Frequencies --    526.8627               625.0568               684.2220
 Red. masses --      6.2612                 1.2102                 3.9319
 Frc consts  --      1.0240                 0.2786                 1.0845
 IR Inten    --      5.8210                54.0132                 2.3156

                      7                      8                      9
                      A                      A                      A
 Frequencies --    769.1628               876.7504               916.9269
 Red. masses --      3.2226                 4.4085                 1.2044
 Frc consts  --      1.1233                 1.9966                 0.5966
 IR Inten    --     26.5324                93.7192                 2.1276

                     10                     11                     12
                      A                      A                      A
 Frequencies --    968.4337              1037.4744              1103.0635
 Red. masses --      1.9200                 1.2868                 2.8955
 Frc consts  --      1.0610                 0.8161                 2.0757
 IR Inten    --      0.8017                25.7120                24.1538

                     13                     14                     15
                      A                      A                      A
 Frequencies --   1118.0544              1147.3420              1228.6212
 Red. masses --      1.2853                 1.1810                 1.3206
 Frc consts  --      0.9466                 0.9160                 1.1745
 IR Inten    --      0.8949                 5.2741               135.8942

                     16                     17                     18
                      A                      A                      A
 Frequencies --   1286.1612              1609.5153              2684.3632
 Red. masses --      1.6126                 8.5726                 1.0726
 Frc consts  --      1.5717                13.0844                 4.5536
 IR Inten    --     74.4101                64.0456               478.1502

                     19                     20                     21
                      A                      A                      A
 Frequencies --   2748.4024              2848.3686              2874.5678
 Red. masses --      1.0854                 1.1015                 1.1022
 Frc consts  --      4.8306                 5.2651                 5.3660
 IR Inten    --    363.6844               745.9462               113.3676

 - Thermochemistry -
 -------------------
 Temperature   298.150 Kelvin.  Pressure   1.00000 Atm.
 Atom     1 has atomic number  6 and mass  12.00000

 Molecular mass:    64.03130 amu.
 Principal axes and moments of inertia in atomic units:
                           1         2         3
     Eigenvalues --   189.97896 220.45818 398.13904
           X            0.99263   0.12107  -0.00492
           Y           -0.12108   0.99264  -0.00083
           Z            0.00478   0.00142   0.99999
 This molecule is an asymmetric top.
 Rotational symmetry number  1.
 Rotational temperatures (Kelvin)      0.45591     0.39288     0.21755
 Rotational constants (GHZ):           9.49969     8.18632     4.53294
 Zero-point vibrational energy     153573.5 (Joules/Mol)
                                   36.70496 (Kcal/Mol)
 Warning -- explicit consideration of   4 degrees of freedom as
           vibrations may cause significant error
 Vibrational temperatures:     48.04   343.19   503.89   758.04   899.32
          (Kelvin)            984.44  1106.65  1261.45  1319.25  1393.36
                             1492.69  1587.06  1608.63  1650.77  1767.71
                             1850.50  2315.73  3862.20  3954.33  4098.16
                             4135.86

 Zero-point correction=                           0.058493 (Hartree/Particle)
 Thermal correction to Energy=                    0.063900
 Thermal correction to Enthalpy=                  0.064844
 Thermal correction to Gibbs Free Energy=         0.029226
 Sum of electronic and zero-point Energies=           -190.972971
 Sum of electronic and thermal Energies=              -190.967564
 Sum of electronic and thermal Enthalpies=            -190.966620
 Sum of electronic and thermal Free Energies=         -191.002239

                     E (Thermal)             CV                S
                      KCal/Mol        Cal/Mol-Kelvin    Cal/Mol-Kelvin
 Total                   40.098             17.973             74.965
 Electronic               0.000              0.000              1.377
 Translational            0.889              2.981             38.389
 Rotational               0.889              2.981             24.326
 Vibrational             38.320             12.012             10.872
 Vibration     1          0.594              1.983              5.617
 Vibration     2          0.657              1.782              1.814
 Vibration     3          0.727              1.575              1.165
 Vibration     4          0.882              1.191              0.594

 Normal termination of Gaussian 09 at Mon Jun 20 11:27:52 2016.
