 Gaussian 09, Revision E.01,
 Gaussian 09:  EM64L-G09RevE.01 30-Nov-2015

 ---------------------------------------------
 #p b3lyp/6-311++G(3df,2p) freq symmetry=Loose
 ---------------------------------------------

 ---------
 b3lyp opt
 ---------
 Symbolic Z-matrix:
 Charge =  1 Multiplicity = 2

                         Standard orientation:
 ---------------------------------------------------------------------
 Center     Atomic      Atomic             Coordinates (Angstroms)
 Number     Number       Type             X           Y           Z
 ---------------------------------------------------------------------
      1          6           0        1.127281   -1.850110    0.000000
      2          1           0        1.706917   -2.183065    0.870825
      3          1           0        1.706917   -2.183065   -0.870825
      4          1           0        0.142400   -2.304578    0.000000
      5          6           0        0.000000    0.378126   -0.000000
      6          6           0       -1.038791    1.087913    0.000000
      7          6           0       -2.127339    1.841719    0.000000
      8          6           0        1.104150   -0.374055   -0.000000
      9          1           0        2.051960    0.169150   -0.000000
 ---------------------------------------------------------------------

 SCF Done:  E(UB3LYP) =  -192.470529995     A.U. after   20 cycles

 The electronic state is 2-A".
 Alpha  occ. eigenvalues --  -10.50785 -10.50590 -10.49587 -10.45371 -10.40196
 Alpha  occ. eigenvalues --   -1.10035  -1.03859  -0.95181  -0.89220  -0.76145
 Alpha  occ. eigenvalues --   -0.68222  -0.66601  -0.61617  -0.61248  -0.57942
 Alpha  occ. eigenvalues --   -0.53920  -0.50862
 Alpha virt. eigenvalues --   -0.37112  -0.32004  -0.17105  -0.14929  -0.13260
 Alpha virt. eigenvalues --   -0.12101  -0.11931  -0.11170  -0.09329  -0.08543
 Alpha virt. eigenvalues --   -0.08123  -0.07262  -0.06161  -0.04879  -0.04065

  Beta  occ. eigenvalues --  -10.50822 -10.49959 -10.49007 -10.45103 -10.40196
  Beta  occ. eigenvalues --   -1.09024  -1.02321  -0.94064  -0.88389  -0.75734
  Beta  occ. eigenvalues --   -0.67838  -0.64732  -0.61441  -0.59020  -0.57613
  Beta  occ. eigenvalues --   -0.52718
  Beta virt. eigenvalues --   -0.41506  -0.36653  -0.27678  -0.16917  -0.14651
  Beta virt. eigenvalues --   -0.13153  -0.11815  -0.11023  -0.09766  -0.09052
  Beta virt. eigenvalues --   -0.08163  -0.07986  -0.07133  -0.05912  -0.04790

 Mulliken charges and spin densities:
               1          2
     1  C   -0.445446  -0.007334
     2  H    0.217944   0.030527
     3  H    0.217944   0.030527
     4  H    0.199124   0.000073
     5  C    0.051997   0.087646
     6  C    1.053249   0.255950
     7  C   -0.416904   0.298214
     8  C   -0.115589   0.316540
     9  H    0.237681  -0.012143
 Sum of Mulliken charges =   1.00000   1.00000

 Dipole moment (field-independent basis, Debye):
    X=              2.7649    Y=             -1.5430    Z=             -0.0000  Tot=              3.1663
 Quadrupole moment (field-independent basis, Debye-Ang):
   XX=            -18.6938   YY=            -18.2197   ZZ=            -26.7685
   XY=             -5.0386   XZ=             -0.0000   YZ=              0.0000

  Exact polarizability:  81.505 -37.945  73.784  -0.000  -0.000  35.456
 Approx polarizability: 160.496 -81.010 120.821  -0.000   0.000  50.290

                      1                      2                      3
                     A'                     A"                     A"
 Frequencies --    110.7443               118.9943               167.7954
 Red. masses --      5.4912                 1.6538                 2.1792
 Frc consts  --      0.0397                 0.0138                 0.0361
 IR Inten    --      1.6804                 0.0031                 5.5382

                      4                      5                      6
                     A'                     A"                     A'
 Frequencies --    247.3017               399.5116               586.5315
 Red. masses --      5.2564                 5.8813                 5.3870
 Frc consts  --      0.1894                 0.5531                 1.0919
 IR Inten    --      0.7027                 7.7184                 0.0250

                      7                      8                      9
                     A"                     A'                     A"
 Frequencies --    754.3198               797.4396               989.0993
 Red. masses --      1.1773                 2.9626                 1.6779
 Frc consts  --      0.3947                 1.1100                 0.9671
 IR Inten    --     15.0345                32.3770                 0.9634

                     10                     11                     12
                     A'                     A'                     A'
 Frequencies --   1007.8821              1121.1250              1284.7138
 Red. masses --      1.8987                 2.5199                 1.3473
 Frc consts  --      1.1364                 1.8661                 1.3101
 IR Inten    --     18.7508                 2.4271                 0.5598

                     13                     14                     15
                     A'                     A"                     A'
 Frequencies --   1336.0240              1427.7904              1460.4255
 Red. masses --      1.2229                 1.0464                 1.1971
 Frc consts  --      1.2861                 1.2568                 1.5043
 IR Inten    --    105.6105                17.1296                98.5795

                     16                     17                     18
                     A'                     A'                     A'
 Frequencies --   1546.7159              2094.3752              2984.5158
 Red. masses --      4.7635                11.8336                 1.0405
 Frc consts  --      6.7143                30.5826                 5.4608
 IR Inten    --    137.5588               323.7753               121.0019

                     19                     20                     21
                     A"                     A'                     A'
 Frequencies --   3019.6626              3088.0890              3162.1852
 Red. masses --      1.0932                 1.0848                 1.0995
 Frc consts  --      5.8729                 6.0951                 6.4777
 IR Inten    --     16.0099                67.2128                16.5824

 - Thermochemistry -
 -------------------
 Temperature   298.150 Kelvin.  Pressure   1.00000 Atm.
 Atom     1 has atomic number  6 and mass  12.00000

 Molecular mass:    64.03130 amu.
 Principal axes and moments of inertia in atomic units:
                           1         2         3
     Eigenvalues --    50.80245 747.53838 787.42378
           X           -0.69444   0.71955   0.00000
           Y            0.71955   0.69444   0.00000
           Z           -0.00000  -0.00000   1.00000
 This molecule is an asymmetric top.
 Rotational symmetry number  1.
 Rotational temperatures (Kelvin)      1.70491     0.11587     0.11000
 Rotational constants (GHZ):          35.52469     2.41425     2.29196
 Zero-point vibrational energy     165714.1 (Joules/Mol)
                                   39.60663 (Kcal/Mol)
 Warning -- explicit consideration of   6 degrees of freedom as
           vibrations may cause significant error
 Vibrational temperatures:    159.34   171.21   241.42   355.81   574.81
          (Kelvin)            843.89  1085.30  1147.34  1423.09  1450.12
                             1613.05  1848.41  1922.24  2054.27  2101.22
                             2225.38  3013.34  4294.05  4344.62  4443.07
                             4549.67

 Zero-point correction=                           0.063117 (Hartree/Particle)
 Thermal correction to Energy=                    0.069251
 Thermal correction to Enthalpy=                  0.070195
 Thermal correction to Gibbs Free Energy=         0.033378
 Sum of electronic and zero-point Energies=           -192.407413
 Sum of electronic and thermal Energies=              -192.401279
 Sum of electronic and thermal Enthalpies=            -192.400335
 Sum of electronic and thermal Free Energies=         -192.437152

                     E (Thermal)             CV                S
                      KCal/Mol        Cal/Mol-Kelvin    Cal/Mol-Kelvin
 Total                   43.456             18.963             77.489
 Electronic               0.000              0.000              1.377
 Translational            0.889              2.981             38.389
 Rotational               0.889              2.981             24.906
 Vibrational             41.678             13.001             12.816
 Vibration     1          0.607              1.941              3.256
 Vibration     2          0.609              1.933              3.117
 Vibration     3          0.625              1.882              2.460
 Vibration     4          0.661              1.767              1.750
 Vibration     5          0.766              1.471              0.964
 Vibration     6          0.944              1.061              0.473

 Normal termination of Gaussian 09 at Wed Jul 20 03:40:04 2016.
