 Gaussian 09, Revision E.01,
 Gaussian 09:  EM64L-G09RevE.01 30-Nov-2015

 ---------------------------------------------
 #p b3lyp/6-311++G(3df,2p) freq symmetry=Loose
 ---------------------------------------------

 ---------
 b3lyp opt
 ---------
 Symbolic Z-matrix:
 Charge =  2 Multiplicity = 3

                         Standard orientation:
 ---------------------------------------------------------------------
 Center     Atomic      Atomic             Coordinates (Angstroms)
 Number     Number       Type             X           Y           Z
 ---------------------------------------------------------------------
      1          6           0        0.034240    0.635594   -0.080186
      2          6           0        1.223682   -0.260960   -0.264521
      3          6           0       -1.267512   -0.059221    0.260727
      4          1           0        0.215936    1.410310    0.672663
      5          1           0       -0.078706    1.158353   -1.048163
      6          1           0        1.149653   -1.293980   -0.676408
      7          1           0       -1.465953   -0.573705    1.257189
      8          6           0        2.466494   -0.154155    0.240420
      9          6           0       -2.427059   -0.278088   -0.190653
 ---------------------------------------------------------------------

 SCF Done:  E(UB3LYP) =  -191.750543967     A.U. after   30 cycles

 The electronic state is 3-A.
 Alpha  occ. eigenvalues --  -10.79212 -10.76981 -10.69982 -10.68868 -10.67644
 Alpha  occ. eigenvalues --   -1.31684  -1.28370  -1.17870  -0.99326  -0.97937
 Alpha  occ. eigenvalues --   -0.94150  -0.88425  -0.87865  -0.84832  -0.79310
 Alpha  occ. eigenvalues --   -0.78147  -0.75741
 Alpha virt. eigenvalues --   -0.57487  -0.56478  -0.47863  -0.44612  -0.32378
 Alpha virt. eigenvalues --   -0.31119  -0.30674  -0.27034  -0.26795  -0.26225
 Alpha virt. eigenvalues --   -0.24169  -0.22493  -0.21079  -0.20520  -0.20156

  Beta  occ. eigenvalues --  -10.77010 -10.75871 -10.69370 -10.68703 -10.67598
  Beta  occ. eigenvalues --   -1.30163  -1.25775  -1.16147  -0.97740  -0.96532
  Beta  occ. eigenvalues --   -0.93611  -0.87270  -0.84957  -0.76658  -0.74668
  Beta virt. eigenvalues --   -0.65047  -0.64171  -0.55300  -0.53611  -0.44253
  Beta virt. eigenvalues --   -0.41349  -0.32127  -0.30756  -0.30477  -0.26894
  Beta virt. eigenvalues --   -0.26452  -0.25805  -0.23875  -0.22333  -0.20529

 Mulliken charges and spin densities:
               1          2
     1  C    0.104623   0.021694
     2  C    0.330935   0.386136
     3  C    0.434429  -0.110931
     4  H    0.259965   0.008176
     5  H    0.286752   0.042768
     6  H    0.261381  -0.012862
     7  H    0.275658  -0.003863
     8  C    0.028110   0.568493
     9  C    0.018148   1.100388
 Sum of Mulliken charges =   2.00000   2.00000

 Dipole moment (field-independent basis, Debye):
    X=             -1.3610    Y=             -0.6949    Z=             -0.3332  Tot=              1.5641
 Quadrupole moment (field-independent basis, Debye-Ang):
   XX=              9.6559   YY=            -19.5333   ZZ=            -20.6613
   XY=              1.1939   XZ=             -2.0694   YZ=             -0.0836

  Exact polarizability:  87.424   0.812  40.838  10.068   3.096  36.664
 Approx polarizability: 121.624   2.513  54.643  24.572   1.997  59.587

                      1                      2                      3
                      A                      A                      A
 Frequencies --     77.4800                89.9089               174.5406
 Red. masses --      4.2561                 3.0665                 4.8407
 Frc consts  --      0.0151                 0.0146                 0.0869
 IR Inten    --     10.9285                 6.1556                 6.2855

                      4                      5                      6
                      A                      A                      A
 Frequencies --    247.4674               328.9045               425.8917
 Red. masses --      3.2796                 1.7814                 3.1955
 Frc consts  --      0.1183                 0.1135                 0.3415
 IR Inten    --      4.1044                 6.0852                 8.0217

                      7                      8                      9
                      A                      A                      A
 Frequencies --    619.4832               712.4766               769.8666
 Red. masses --      1.3316                 2.4670                 1.3642
 Frc consts  --      0.3011                 0.7378                 0.4764
 IR Inten    --     58.1479               105.9284                56.8586

                     10                     11                     12
                      A                      A                      A
 Frequencies --    874.3263               921.9997              1006.3235
 Red. masses --      3.8657                 2.2031                 2.1312
 Frc consts  --      1.7411                 1.1034                 1.2716
 IR Inten    --    102.6256                58.0224                13.0882

                     13                     14                     15
                      A                      A                      A
 Frequencies --   1172.5079              1241.6616              1335.2004
 Red. masses --      1.4883                 1.2414                 1.1964
 Frc consts  --      1.2055                 1.1276                 1.2567
 IR Inten    --     64.9476                52.2878                29.3011

                     16                     17                     18
                      A                      A                      A
 Frequencies --   1381.5022              1789.7520              2707.7255
 Red. masses --      1.2063                10.3578                 1.0731
 Frc consts  --      1.3565                19.5481                 4.6356
 IR Inten    --     20.1516                27.9232               190.4356

                     19                     20                     21
                      A                      A                      A
 Frequencies --   2893.2685              2922.2478              3038.7385
 Red. masses --      1.0786                 1.0697                 1.0880
 Frc consts  --      5.3198                 5.3822                 5.9191
 IR Inten    --    146.0483               193.2285               100.2049

 - Thermochemistry -
 -------------------
 Temperature   298.150 Kelvin.  Pressure   1.00000 Atm.
 Atom     1 has atomic number  6 and mass  12.00000

 Molecular mass:    64.03130 amu.
 Principal axes and moments of inertia in atomic units:
                           1         2         3
     Eigenvalues --    66.90347 682.00646 702.87534
           X            0.99991  -0.00275  -0.01329
           Y            0.00251   0.99984  -0.01756
           Z            0.01334   0.01753   0.99976
 This molecule is an asymmetric top.
 Rotational symmetry number  1.
 Rotational temperatures (Kelvin)      1.29461     0.12700     0.12323
 Rotational constants (GHZ):          26.97530     2.64622     2.56765
 Zero-point vibrational energy     147925.9 (Joules/Mol)
                                   35.35513 (Kcal/Mol)
 Warning -- explicit consideration of   7 degrees of freedom as
           vibrations may cause significant error
 Vibrational temperatures:    111.48   129.36   251.12   356.05   473.22
          (Kelvin)            612.76   891.30  1025.09  1107.66  1257.96
                             1326.55  1447.87  1686.98  1786.47  1921.05
                             1987.67  2575.05  3895.81  4162.76  4204.46
                             4372.06

 Zero-point correction=                           0.056342 (Hartree/Particle)
 Thermal correction to Energy=                    0.063011
 Thermal correction to Enthalpy=                  0.063956
 Thermal correction to Gibbs Free Energy=         0.025527
 Sum of electronic and zero-point Energies=           -191.694202
 Sum of electronic and thermal Energies=              -191.687533
 Sum of electronic and thermal Enthalpies=            -191.686588
 Sum of electronic and thermal Free Energies=         -191.725017

                     E (Thermal)             CV                S
                      KCal/Mol        Cal/Mol-Kelvin    Cal/Mol-Kelvin
 Total                   39.540             21.105             80.880
 Electronic               0.000              0.000              2.183
 Translational            0.889              2.981             38.389
 Rotational               0.889              2.981             24.976
 Vibrational             37.763             15.143             15.332
 Vibration     1          0.599              1.964              3.954
 Vibration     2          0.602              1.956              3.662
 Vibration     3          0.627              1.874              2.386
 Vibration     4          0.661              1.767              1.749
 Vibration     5          0.712              1.618              1.265
 Vibration     6          0.788              1.414              0.872
 Vibration     7          0.979              0.991              0.417

 Optimization completed.
    -- Stationary point found.
 Normal termination of Gaussian 09 at Mon Jun 20 09:17:59 2016.
