 Gaussian 09, Revision E.01,
 Gaussian 09:  EM64L-G09RevE.01 30-Nov-2015

 ---------------------------------------------
 #p b3lyp/6-311++G(3df,2p) freq symmetry=Loose
 ---------------------------------------------

 ---------
 b3lyp opt
 ---------
 Symbolic Z-matrix:
 Charge =  0 Multiplicity = 3

                         Standard orientation:
 ---------------------------------------------------------------------
 Center     Atomic      Atomic             Coordinates (Angstroms)
 Number     Number       Type             X           Y           Z
 ---------------------------------------------------------------------
      1          6           0        1.083237   -0.143539    0.363379
      2          1           0       -0.142194    1.597099    0.644910
      3          1           0        0.983746   -0.684961    1.306591
      4          6           0       -1.390349    0.061309    0.074198
      5          6           0       -2.427348   -0.588778   -0.174472
      6          6           0        2.168816   -0.263084   -0.345952
      7          1           0        3.115443   -0.774597   -0.305863
      8          6           0       -0.099541    0.722678   -0.020508
      9          1           0        0.034116    1.130948   -1.025509
 ---------------------------------------------------------------------

 SCF Done:  E(UB3LYP) =  -192.705825518     A.U. after   23 cycles

 The electronic state is 3-A.
 Alpha  occ. eigenvalues --  -10.23215 -10.21739 -10.21574 -10.21394 -10.20743
 Alpha  occ. eigenvalues --   -0.84996  -0.78670  -0.72454  -0.58549  -0.53156
 Alpha  occ. eigenvalues --   -0.49495  -0.45922  -0.44084  -0.34554  -0.30806
 Alpha  occ. eigenvalues --   -0.30286  -0.29557  -0.25881
 Alpha virt. eigenvalues --   -0.02422  -0.01591  -0.00222   0.00617   0.01378
 Alpha virt. eigenvalues --    0.01701   0.03837   0.05263   0.06731   0.06915
 Alpha virt. eigenvalues --    0.07054   0.07560   0.09682   0.10087   0.10515

  Beta  occ. eigenvalues --  -10.23092 -10.21122 -10.20907 -10.20540 -10.19861
  Beta  occ. eigenvalues --   -0.84025  -0.76179  -0.70131  -0.56680  -0.52116
  Beta  occ. eigenvalues --   -0.48477  -0.44871  -0.42749  -0.29769  -0.28968
  Beta  occ. eigenvalues --   -0.28475
  Beta virt. eigenvalues --   -0.19071  -0.10589  -0.01575  -0.00719   0.00622
  Beta virt. eigenvalues --    0.01385   0.02091   0.02778   0.04383   0.05612
  Beta virt. eigenvalues --    0.07037   0.07277   0.07441   0.07999   0.09914

 Mulliken charges and spin densities:
               1          2
     1  C    0.055729  -0.193486
     2  H    0.175201   0.033283
     3  H    0.152829   0.078753
     4  C    0.448141   0.340102
     5  C   -0.489509   0.664884
     6  C   -0.464522   1.076152
     7  H    0.209488   0.017119
     8  C   -0.268482  -0.035677
     9  H    0.181126   0.018871
 Sum of Mulliken charges =  -0.00000   2.00000

 Dipole moment (field-independent basis, Debye):
    X=              2.5801    Y=              1.3185    Z=              1.1760  Tot=              3.1270
 Quadrupole moment (field-independent basis, Debye-Ang):
   XX=            -34.8221   YY=            -30.5445   ZZ=            -30.1106
   XY=             -4.0243   XZ=             -1.6635   YZ=             -0.9950

  Exact polarizability: 112.910  13.046  62.345   1.204   1.136  47.978
 Approx polarizability: 136.945  22.634  81.809  -0.680   6.789  72.688

                      1                      2                      3
                      A                      A                      A
 Frequencies --     86.4250               150.2889               328.1144
 Red. masses --      3.8589                 4.0280                 3.2357
 Frc consts  --      0.0170                 0.0536                 0.2052
 IR Inten    --      3.5405                 9.8438                24.8916

                      4                      5                      6
                      A                      A                      A
 Frequencies --    367.5416               438.0676               634.5535
 Red. masses --      2.6930                 3.8130                 1.3611
 Frc consts  --      0.2143                 0.4311                 0.3229
 IR Inten    --      9.4939                13.2398                25.8289

                      7                      8                      9
                      A                      A                      A
 Frequencies --    756.5543               791.7608               860.6297
 Red. masses --      1.3866                 1.5443                 1.8159
 Frc consts  --      0.4676                 0.5704                 0.7925
 IR Inten    --     18.4253                29.8331                 6.9371

                     10                     11                     12
                      A                      A                      A
 Frequencies --    942.1262              1040.3373              1174.9978
 Red. masses --      3.6773                 3.1481                 1.1488
 Frc consts  --      1.9231                 2.0075                 0.9345
 IR Inten    --     29.7150                23.8523                 4.1068

                     13                     14                     15
                      A                      A                      A
 Frequencies --   1246.0170              1290.3816              1391.2706
 Red. masses --      1.2479                 1.3075                 1.2075
 Frc consts  --      1.1415                 1.2827                 1.3771
 IR Inten    --    124.9156               262.8873               288.0942

                     16                     17                     18
                      A                      A                      A
 Frequencies --   1551.2452              1670.8003              2964.6015
 Red. masses --      4.6993                 6.7763                 1.0692
 Frc consts  --      6.6627                11.1453                 5.5368
 IR Inten    --   1216.6450                23.9799                15.9705

                     19                     20                     21
                      A                      A                      A
 Frequencies --   3038.6624              3047.6106              3254.2123
 Red. masses --      1.0824                 1.0844                 1.1056
 Frc consts  --      5.8886                 5.9341                 6.8980
 IR Inten    --      4.7212                11.0341                 1.4081

 - Thermochemistry -
 -------------------
 Temperature   298.150 Kelvin.  Pressure   1.00000 Atm.
 Atom     1 has atomic number  6 and mass  12.00000

 Molecular mass:    64.03130 amu.
 Principal axes and moments of inertia in atomic units:
                           1         2         3
     Eigenvalues --    82.64836 649.31484 684.23174
           X            0.99980  -0.01981   0.00293
           Y            0.01998   0.99664  -0.07940
           Z           -0.00135   0.07944   0.99684
 This molecule is an asymmetric top.
 Rotational symmetry number  1.
 Rotational temperatures (Kelvin)      1.04798     0.13339     0.12659
 Rotational constants (GHZ):          21.83638     2.77945     2.63762
 Zero-point vibrational energy     161652.6 (Joules/Mol)
                                   38.63589 (Kcal/Mol)
 Warning -- explicit consideration of   5 degrees of freedom as
           vibrations may cause significant error
 Vibrational temperatures:    124.35   216.23   472.08   528.81   630.28
          (Kelvin)            912.98  1088.51  1139.17  1238.25  1355.51
                             1496.81  1690.56  1792.74  1856.57  2001.73
                             2231.89  2403.91  4265.39  4371.95  4384.83
                             4682.08

 Zero-point correction=                           0.061570 (Hartree/Particle)
 Thermal correction to Energy=                    0.067322
 Thermal correction to Enthalpy=                  0.068266
 Thermal correction to Gibbs Free Energy=         0.031852
 Sum of electronic and zero-point Energies=           -192.644255
 Sum of electronic and thermal Energies=              -192.638503
 Sum of electronic and thermal Enthalpies=            -192.637559
 Sum of electronic and thermal Free Energies=         -192.673973

                     E (Thermal)             CV                S
                      KCal/Mol        Cal/Mol-Kelvin    Cal/Mol-Kelvin
 Total                   42.245             18.817             76.640
 Electronic               0.000              0.000              2.183
 Translational            0.889              2.981             38.389
 Rotational               0.889              2.981             25.110
 Vibrational             40.468             12.856             10.957
 Vibration     1          0.601              1.959              3.739
 Vibration     2          0.618              1.902              2.669
 Vibration     3          0.711              1.619              1.269
 Vibration     4          0.740              1.539              1.090
 Vibration     5          0.798              1.387              0.833

 Optimization completed.
    -- Stationary point found.
 Normal termination of Gaussian 09 at Wed Jun 22 05:12:31 2016.
