 Gaussian 09, Revision E.01,
 Gaussian 09:  EM64L-G09RevE.01 30-Nov-2015

 ---------------------------------------------
 #p b3lyp/6-311++G(3df,2p) freq symmetry=Loose
 ---------------------------------------------

 ---------
 b3lyp opt
 ---------
 Symbolic Z-matrix:
 Charge =  1 Multiplicity = 4

                         Standard orientation:
 ---------------------------------------------------------------------
 Center     Atomic      Atomic             Coordinates (Angstroms)
 Number     Number       Type             X           Y           Z
 ---------------------------------------------------------------------
      1          6           0       -1.181762    0.289461   -0.000000
      2          1           0       -1.822554    0.417652    0.880210
      3          1           0       -1.822554    0.417652   -0.880210
      4          6           0       -0.000000    1.169791   -0.000000
      5          6           0        0.867808   -0.848995    0.000000
      6          6           0        1.214631    0.505454   -0.000000
      7          1           0        2.205429    0.937130   -0.000000
      8          6           0       -0.491118   -1.074413    0.000000
      9          1           0       -1.017677   -2.020223    0.000000
 ---------------------------------------------------------------------

 SCF Done:  E(UB3LYP) =  -192.463977628     A.U. after   15 cycles

 The electronic state is 4-A".
 Alpha  occ. eigenvalues --  -10.49293 -10.47899 -10.47568 -10.45037 -10.43447
 Alpha  occ. eigenvalues --   -1.15253  -0.98342  -0.96835  -0.80617  -0.79269
 Alpha  occ. eigenvalues --   -0.71590  -0.69804  -0.66646  -0.65003  -0.57905
 Alpha  occ. eigenvalues --   -0.53711  -0.50869  -0.49501
 Alpha virt. eigenvalues --   -0.31141  -0.19581  -0.15788  -0.12395  -0.12009
 Alpha virt. eigenvalues --   -0.11888  -0.10766  -0.09137  -0.08348  -0.07009
 Alpha virt. eigenvalues --   -0.05727  -0.05291  -0.03661  -0.02865  -0.02039

  Beta  occ. eigenvalues --  -10.46975 -10.46931 -10.45723 -10.44829 -10.43285
  Beta  occ. eigenvalues --   -1.12122  -0.96623  -0.92669  -0.78022  -0.77356
  Beta  occ. eigenvalues --   -0.67941  -0.67246  -0.65187  -0.63684  -0.55294
  Beta virt. eigenvalues --   -0.39356  -0.36375  -0.30842  -0.25821  -0.15589
  Beta virt. eigenvalues --   -0.15559  -0.11922  -0.11704  -0.11651  -0.10199
  Beta virt. eigenvalues --   -0.08338  -0.07655  -0.06877  -0.05095  -0.04195

 Mulliken charges and spin densities:
               1          2
     1  C   -0.291514  -0.015825
     2  H    0.201654   0.001842
     3  H    0.201654   0.001842
     4  C    0.291340   1.472451
     5  C    0.417488   1.093815
     6  C   -0.169985  -0.085727
     7  H    0.244341   0.012894
     8  C   -0.149215   0.515913
     9  H    0.254237   0.002795
 Sum of Mulliken charges =   1.00000   3.00000

 Dipole moment (field-independent basis, Debye):
    X=             -0.8823    Y=             -0.3082    Z=             -0.0000  Tot=              0.9345
 Quadrupole moment (field-independent basis, Debye-Ang):
   XX=            -16.4447   YY=            -21.1913   ZZ=            -26.4316
   XY=              2.8519   XZ=              0.0000   YZ=             -0.0000

  Exact polarizability:  55.463   2.955  53.121   0.000  -0.000  31.425
 Approx polarizability:  90.254   4.647  91.510   0.000  -0.000  47.747

                      1                      2                      3
                     A"                     A"                     A"
 Frequencies --    343.5155               447.3419               730.1687
 Red. masses --      1.7772                 2.5370                 1.3994
 Frc consts  --      0.1236                 0.2991                 0.4396
 IR Inten    --      2.1531                16.6056                18.7406

                      4                      5                      6
                     A'                     A'                     A'
 Frequencies --    768.4012               803.1023               863.8337
 Red. masses --      6.6289                 8.1551                 2.5002
 Frc consts  --      2.3061                 3.0990                 1.0992
 IR Inten    --      2.4397                 1.1463                 3.9652

                      7                      8                      9
                     A"                     A"                     A'
 Frequencies --    903.6617               929.0890               953.0801
 Red. masses --      1.7719                 1.4094                 2.4037
 Frc consts  --      0.8525                 0.7168                 1.2864
 IR Inten    --      0.0155                13.2862                11.2739

                     10                     11                     12
                     A'                     A"                     A'
 Frequencies --   1093.0554              1109.6608              1190.1785
 Red. masses --      2.1899                 1.1390                 1.3011
 Frc consts  --      1.5415                 0.8263                 1.0859
 IR Inten    --      5.9120                 0.0170                 3.9524

                     13                     14                     15
                     A'                     A'                     A'
 Frequencies --   1229.1668              1338.1829              1367.8824
 Red. masses --      1.7234                 3.6519                 3.4145
 Frc consts  --      1.5341                 3.8530                 3.7642
 IR Inten    --     23.8753                 3.7637               101.9637

                     16                     17                     18
                     A'                     A'                     A'
 Frequencies --   1370.8697              1444.4785              3018.7807
 Red. masses --      1.3792                 3.2852                 1.0599
 Frc consts  --      1.5271                 4.0386                 5.6910
 IR Inten    --     69.0468                 1.0225                47.7523

                     19                     20                     21
                     A"                     A'                     A'
 Frequencies --   3049.4199              3204.2907              3217.7251
 Red. masses --      1.0999                 1.0942                 1.0966
 Frc consts  --      6.0260                 6.6190                 6.6893
 IR Inten    --     24.6543                38.2790                38.8729

 - Thermochemistry -
 -------------------
 Temperature   298.150 Kelvin.  Pressure   1.00000 Atm.
 Atom     1 has atomic number  6 and mass  12.00000

 Molecular mass:    64.03130 amu.
 Principal axes and moments of inertia in atomic units:
                           1         2         3
     Eigenvalues --   174.72118 219.55562 383.12320
           X            0.96027  -0.27907   0.00000
           Y            0.27907   0.96027   0.00000
           Z            0.00000  -0.00000   1.00000
 This molecule is an asymmetric top.
 Rotational symmetry number  1.
 Rotational temperatures (Kelvin)      0.49573     0.39450     0.22607
 Rotational constants (GHZ):          10.32926     8.21997     4.71060
 Zero-point vibrational energy     175706.8 (Joules/Mol)
                                   41.99494 (Kcal/Mol)
 Warning -- explicit consideration of   2 degrees of freedom as
           vibrations may cause significant error
 Vibrational temperatures:    494.24   643.62  1050.55  1105.56  1155.48
          (Kelvin)           1242.86  1300.17  1336.75  1371.27  1572.66
                             1596.55  1712.40  1768.49  1925.34  1968.08
                             1972.37  2078.28  4343.35  4387.43  4610.25
                             4629.58

 Zero-point correction=                           0.066923 (Hartree/Particle)
 Thermal correction to Energy=                    0.070979
 Thermal correction to Enthalpy=                  0.071923
 Thermal correction to Gibbs Free Energy=         0.039199
 Sum of electronic and zero-point Energies=           -192.397054
 Sum of electronic and thermal Energies=              -192.392998
 Sum of electronic and thermal Enthalpies=            -192.392054
 Sum of electronic and thermal Free Energies=         -192.424779

                     E (Thermal)             CV                S
                      KCal/Mol        Cal/Mol-Kelvin    Cal/Mol-Kelvin
 Total                   44.540             14.391             68.875
 Electronic               0.000              0.000              2.755
 Translational            0.889              2.981             38.389
 Rotational               0.889              2.981             24.200
 Vibrational             42.763              8.429              3.530
 Vibration     1          0.722              1.588              1.196
 Vibration     2          0.806              1.367              0.804

 Optimization completed.
    -- Stationary point found.
 Normal termination of Gaussian 09 at Wed Jul 20 22:50:34 2016.
