 Gaussian 09, Revision E.01,
 Gaussian 09:  EM64L-G09RevE.01 30-Nov-2015

 ---------------------------------------------
 #p b3lyp/6-311++G(3df,2p) freq symmetry=Loose
 ---------------------------------------------

 ---------
 b3lyp opt
 ---------
 Symbolic Z-matrix:
 Charge =  2 Multiplicity = 3

                         Standard orientation:
 ---------------------------------------------------------------------
 Center     Atomic      Atomic             Coordinates (Angstroms)
 Number     Number       Type             X           Y           Z
 ---------------------------------------------------------------------
      1          6           0       -1.556084   -0.717930   -0.295247
      2          6           0       -0.352854   -0.207575    0.366998
      3          1           0       -0.316977   -0.488969    1.443828
      4          6           0        2.213239    0.079860    0.071097
      5          1           0        3.298496    0.157048    0.142897
      6          6           0        0.992150    0.013581   -0.204408
      7          1           0        1.165545    0.170760   -1.322539
      8          6           0       -1.640974    0.593528    0.015057
      9          1           0       -2.079926    1.592374    0.014836
 ---------------------------------------------------------------------

 SCF Done:  E(UB3LYP) =  -191.853498463     A.U. after   16 cycles

 The electronic state is 3-A.
 Alpha  occ. eigenvalues --  -10.74050 -10.73744 -10.72881 -10.71038 -10.68442
 Alpha  occ. eigenvalues --   -1.39733  -1.29012  -1.12530  -1.03352  -1.01441
 Alpha  occ. eigenvalues --   -0.96815  -0.91931  -0.89536  -0.85026  -0.79352
 Alpha  occ. eigenvalues --   -0.76625  -0.71853
 Alpha virt. eigenvalues --   -0.55919  -0.50311  -0.45333  -0.33377  -0.32666
 Alpha virt. eigenvalues --   -0.30797  -0.29852  -0.29080  -0.27191  -0.25184
 Alpha virt. eigenvalues --   -0.24870  -0.24075  -0.20990  -0.20599  -0.20468

  Beta  occ. eigenvalues --  -10.73887 -10.71907 -10.71672 -10.70708 -10.68368
  Beta  occ. eigenvalues --   -1.36771  -1.28458  -1.10548  -1.01750  -0.99993
  Beta  occ. eigenvalues --   -0.95344  -0.89691  -0.85822  -0.83130  -0.76724
  Beta virt. eigenvalues --   -0.63930  -0.58006  -0.55409  -0.45301  -0.42206
  Beta virt. eigenvalues --   -0.33104  -0.31263  -0.30320  -0.29139  -0.27630
  Beta virt. eigenvalues --   -0.26696  -0.24535  -0.24198  -0.23775  -0.20449

 Mulliken charges and spin densities:
               1          2
     1  C    0.110236   1.168761
     2  C    0.311860   0.011944
     3  H    0.296178   0.095010
     4  C   -0.042046   0.113241
     5  H    0.430715  -0.002077
     6  C    0.057380   0.061471
     7  H    0.252814  -0.005069
     8  C    0.201566   0.568283
     9  H    0.381297  -0.011564
 Sum of Mulliken charges =   2.00000   2.00000

 Dipole moment (field-independent basis, Debye):
    X=              2.4708    Y=              1.5533    Z=              0.0324  Tot=              2.9186
 Quadrupole moment (field-independent basis, Debye-Ang):
   XX=             13.6374   YY=            -21.2893   ZZ=            -18.9742
   XY=             -2.3200   XZ=             -0.8463   YZ=             -1.1705

  Exact polarizability:  68.626   1.235  35.244   4.471   0.840  32.428
 Approx polarizability: 108.011   4.557  58.779  14.083   3.638  53.248

                      1                      2                      3
                      A                      A                      A
 Frequencies --    104.1586               136.1567               289.5403
 Red. masses --      2.3179                 2.8155                 1.8908
 Frc consts  --      0.0148                 0.0308                 0.0934
 IR Inten    --      1.4116                21.2619                 8.6383

                      4                      5                      6
                      A                      A                      A
 Frequencies --    355.9382               560.0206               651.2400
 Red. masses --      4.2534                 1.7251                 1.6201
 Frc consts  --      0.3175                 0.3188                 0.4048
 IR Inten    --      2.8816                87.0017                 2.6714

                      7                      8                      9
                      A                      A                      A
 Frequencies --    686.8407               714.1795               753.3690
 Red. masses --      1.3385                 3.0081                 3.2785
 Frc consts  --      0.3720                 0.9040                 1.0963
 IR Inten    --     28.9454                14.8265                 4.7318

                     10                     11                     12
                      A                      A                      A
 Frequencies --    886.0220               918.3936               940.0878
 Red. masses --      1.3032                 1.3229                 1.5731
 Frc consts  --      0.6028                 0.6574                 0.8191
 IR Inten    --     47.8408                37.5022                 0.6324

                     13                     14                     15
                      A                      A                      A
 Frequencies --   1015.8776              1111.4619              1208.2494
 Red. masses --      1.4490                 3.5492                 1.3477
 Frc consts  --      0.8810                 2.5833                 1.1592
 IR Inten    --      4.9635                11.8490                 1.7001

                     16                     17                     18
                      A                      A                      A
 Frequencies --   1498.9820              1886.7662              2685.2082
 Red. masses --      7.0904                 5.6975                 1.0712
 Frc consts  --      9.3867                11.9501                 4.5505
 IR Inten    --      8.9404               106.8159               165.3488

                     19                     20                     21
                      A                      A                      A
 Frequencies --   2824.5062              3147.5375              3190.8287
 Red. masses --      1.0745                 1.1143                 1.1483
 Frc consts  --      5.0505                 6.5042                 6.8881
 IR Inten    --    179.5528               240.9417               322.7295

 - Thermochemistry -
 -------------------
 Temperature   298.150 Kelvin.  Pressure   1.00000 Atm.
 Atom     1 has atomic number  6 and mass  12.00000

 Molecular mass:    64.03130 amu.
 Principal axes and moments of inertia in atomic units:
                           1         2         3
     Eigenvalues --    74.56243 561.49377 586.14441
           X            0.99979  -0.01868  -0.00860
           Y            0.01748   0.99217  -0.12363
           Z            0.01085   0.12345   0.99229
 This molecule is an asymmetric top.
 Rotational symmetry number  1.
 Rotational temperatures (Kelvin)      1.16163     0.15426     0.14777
 Rotational constants (GHZ):          24.20443     3.21418     3.07900
 Zero-point vibrational energy     152914.8 (Joules/Mol)
                                   36.54752 (Kcal/Mol)
 Warning -- explicit consideration of   5 degrees of freedom as
           vibrations may cause significant error
 Vibrational temperatures:    149.86   195.90   416.58   512.12   805.74
          (Kelvin)            936.99   988.21  1027.54  1083.93  1274.79
                             1321.36  1352.57  1461.62  1599.14  1738.40
                             2156.70  2714.63  3863.41  4063.83  4528.60
                             4590.89

 Zero-point correction=                           0.058242 (Hartree/Particle)
 Thermal correction to Energy=                    0.064127
 Thermal correction to Enthalpy=                  0.065071
 Thermal correction to Gibbs Free Energy=         0.028732
 Sum of electronic and zero-point Energies=           -191.795256
 Sum of electronic and thermal Energies=              -191.789372
 Sum of electronic and thermal Enthalpies=            -191.788427
 Sum of electronic and thermal Free Energies=         -191.824767

                     E (Thermal)             CV                S
                      KCal/Mol        Cal/Mol-Kelvin    Cal/Mol-Kelvin
 Total                   40.240             19.879             76.482
 Electronic               0.000              0.000              2.183
 Translational            0.889              2.981             38.389
 Rotational               0.889              2.981             24.710
 Vibrational             38.463             13.917             11.200
 Vibration     1          0.605              1.946              3.375
 Vibration     2          0.614              1.917              2.857
 Vibration     3          0.686              1.693              1.477
 Vibration     4          0.731              1.563              1.140
 Vibration     5          0.916              1.118              0.524

 Normal termination of Gaussian 09 at Mon Jun 20 10:12:25 2016.
