 Gaussian 09, Revision E.01,
 Gaussian 09:  EM64L-G09RevE.01 30-Nov-2015

 ---------------------------------------------
 #p b3lyp/6-311++G(3df,2p) freq symmetry=Loose
 ---------------------------------------------

 ---------
 b3lyp opt
 ---------
 Symbolic Z-matrix:
 Charge =  2 Multiplicity = 1

                         Standard orientation:
 ---------------------------------------------------------------------
 Center     Atomic      Atomic             Coordinates (Angstroms)
 Number     Number       Type             X           Y           Z
 ---------------------------------------------------------------------
      1          6           0       -2.276625   -0.220111   -0.142486
      2          6           0       -1.096954    0.474622    0.104532
      3          6           0        0.170988   -0.167344    0.157891
      4          1           0       -2.386220   -1.299110   -0.036774
      5          1           0       -3.144697    0.337354   -0.503217
      6          1           0       -1.103445    1.551656    0.299958
      7          1           0        0.117516   -1.234764    0.548300
      8          6           0        1.453479    0.028764   -0.010902
      9          6           0        2.835254   -0.008454   -0.160414
 ---------------------------------------------------------------------

 SCF Done:  E(RB3LYP) =  -191.840602251     A.U. after   19 cycles

 The electronic state is 1-A.
 Alpha  occ. eigenvalues --  -10.77208 -10.73341 -10.73237 -10.69608 -10.69243
 Alpha  occ. eigenvalues --   -1.32729  -1.25488  -1.18062  -1.07690  -0.99673
 Alpha  occ. eigenvalues --   -0.93424  -0.89465  -0.85470  -0.81776  -0.76205
 Alpha  occ. eigenvalues --   -0.73928
 Alpha virt. eigenvalues --   -0.67923  -0.59587  -0.47789  -0.46651  -0.38234
 Alpha virt. eigenvalues --   -0.33173  -0.30525  -0.29261  -0.26907  -0.26615
 Alpha virt. eigenvalues --   -0.25135  -0.23872  -0.22216  -0.21215  -0.20779

 Mulliken charges:
               1
     1  C   -0.199795
     2  C    0.215132
     3  C   -0.050883
     4  H    0.266512
     5  H    0.288077
     6  H    0.259943
     7  H    0.269977
     8  C    0.773022
     9  C    0.178015
 Sum of Mulliken charges =   2.00000

 Dipole moment (field-independent basis, Debye):
    X=             -2.3029    Y=             -0.7498    Z=              0.2562  Tot=              2.4354
 Quadrupole moment (field-independent basis, Debye-Ang):
   XX=             12.6315   YY=            -17.1795   ZZ=            -25.1398
   XY=              0.4925   XZ=              1.1109   YZ=             -0.3254

  Exact polarizability: 142.412  -1.154  37.670   0.130  -0.599  29.329
 Approx polarizability: 526.934 -11.438  59.365  -7.020  -1.050  43.996

                      1                      2                      3
                      A                      A                      A
 Frequencies --     63.4267                92.4545               144.4539
 Red. masses --      7.1494                 3.0071                 4.5419
 Frc consts  --      0.0169                 0.0151                 0.0558
 IR Inten    --     11.4015                 8.1552                17.8029

                      4                      5                      6
                      A                      A                      A
 Frequencies --    278.2080               387.2064               527.4380
 Red. masses --      2.7934                 2.5677                 1.3472
 Frc consts  --      0.1274                 0.2268                 0.2208
 IR Inten    --     88.9704                20.6169                39.0277

                      7                      8                      9
                      A                      A                      A
 Frequencies --    614.7418               721.6827               796.0431
 Red. masses --      1.6023                 2.9622                 1.9433
 Frc consts  --      0.3568                 0.9090                 0.7255
 IR Inten    --    328.1432                 7.4748               256.1394

                     10                     11                     12
                      A                      A                      A
 Frequencies --    916.5787              1084.8836              1118.2369
 Red. masses --      1.1622                 1.5334                 1.6699
 Frc consts  --      0.5753                 1.0634                 1.2303
 IR Inten    --     12.5173                76.4531               177.6197

                     13                     14                     15
                      A                      A                      A
 Frequencies --   1183.5813              1267.7404              1339.4956
 Red. masses --      2.9391                 1.7747                 1.9447
 Frc consts  --      2.4258                 1.6805                 2.0559
 IR Inten    --    333.4266                39.1082               222.6249

                     16                     17                     18
                      A                      A                      A
 Frequencies --   1473.5586              1781.9928              2661.8650
 Red. masses --      1.2447                11.0620                 1.0691
 Frc consts  --      1.5924                20.6964                 4.4632
 IR Inten    --     39.4828               731.6387               246.7477

                     19                     20                     21
                      A                      A                      A
 Frequencies --   3056.9200              3064.0072              3173.8155
 Red. masses --      1.0876                 1.0565                 1.1208
 Frc consts  --      5.9881                 5.8437                 6.6517
 IR Inten    --    118.4234               172.2458                77.5875

 - Thermochemistry -
 -------------------
 Temperature   298.150 Kelvin.  Pressure   1.00000 Atm.
 Atom     1 has atomic number  6 and mass  12.00000

 Molecular mass:    64.03130 amu.
 Principal axes and moments of inertia in atomic units:
                           1         2         3
     Eigenvalues --    39.38018 773.90056 801.78170
           X            0.99998   0.00147   0.00632
           Y           -0.00120   0.99909  -0.04262
           Z           -0.00638   0.04261   0.99907
 This molecule is an asymmetric top.
 Rotational symmetry number  1.
 Rotational temperatures (Kelvin)      2.19943     0.11192     0.10803
 Rotational constants (GHZ):          45.82867     2.33201     2.25091
 Zero-point vibrational energy     154009.2 (Joules/Mol)
                                   36.80909 (Kcal/Mol)
 Warning -- explicit consideration of   7 degrees of freedom as
           vibrations may cause significant error
 Vibrational temperatures:     91.26   133.02   207.84   400.28   557.10
          (Kelvin)            758.86   884.48  1038.34  1145.33  1318.75
                             1560.90  1608.89  1702.91  1823.99  1927.23
                             2120.12  2563.89  3829.83  4398.22  4408.42
                             4566.41

 Zero-point correction=                           0.058659 (Hartree/Particle)
 Thermal correction to Energy=                    0.065159
 Thermal correction to Enthalpy=                  0.066103
 Thermal correction to Gibbs Free Energy=         0.028934
 Sum of electronic and zero-point Energies=           -191.781943
 Sum of electronic and thermal Energies=              -191.775443
 Sum of electronic and thermal Enthalpies=            -191.774499
 Sum of electronic and thermal Free Energies=         -191.811669

                     E (Thermal)             CV                S
                      KCal/Mol        Cal/Mol-Kelvin    Cal/Mol-Kelvin
 Total                   40.888             20.300             78.230
 Electronic               0.000              0.000              0.000
 Translational            0.889              2.981             38.389
 Rotational               0.889              2.981             24.706
 Vibrational             39.110             14.338             15.135
 Vibration     1          0.597              1.972              4.348
 Vibration     2          0.602              1.955              3.607
 Vibration     3          0.616              1.909              2.744
 Vibration     4          0.679              1.714              1.545
 Vibration     5          0.756              1.498              1.011
 Vibration     6          0.882              1.189              0.593
 Vibration     7          0.974              1.001              0.425

 Normal termination of Gaussian 09 at Mon Jun 20 08:15:21 2016.
