 Gaussian 09, Revision E.01,
 Gaussian 09:  EM64L-G09RevE.01 30-Nov-2015

 ---------------------------------------------
 #p b3lyp/6-311++G(3df,2p) freq symmetry=Loose
 ---------------------------------------------

 ---------
 b3lyp opt
 ---------
 Symbolic Z-matrix:
 Charge =  3 Multiplicity = 2

                         Standard orientation:
 ---------------------------------------------------------------------
 Center     Atomic      Atomic             Coordinates (Angstroms)
 Number     Number       Type             X           Y           Z
 ---------------------------------------------------------------------
      1          6           0       -0.651491   -0.779706    0.053101
      2          6           0        0.615751   -0.000339    0.390257
      3          6           0       -0.651502    0.779798    0.053812
      4          6           0       -1.745403    0.000083   -0.212868
      5          1           0        0.884302   -0.000903    1.495038
      6          1           0       -2.840614   -0.000006   -0.447514
      7          6           0        1.936763    0.000187   -0.297012
      8          1           0        2.465412    0.960605   -0.485846
      9          1           0        2.466186   -0.959838   -0.485422
 ---------------------------------------------------------------------

 SCF Done:  E(UB3LYP) =  -191.080759960     A.U. after   16 cycles

 The electronic state is 2-A.
 Alpha  occ. eigenvalues --  -11.08161 -11.08141 -11.01170 -11.00452 -10.99406
 Alpha  occ. eigenvalues --   -1.74994  -1.52025  -1.39604  -1.31664  -1.24989
 Alpha  occ. eigenvalues --   -1.19991  -1.18116  -1.17864  -1.10821  -1.08666
 Alpha  occ. eigenvalues --   -1.08068
 Alpha virt. eigenvalues --   -0.83348  -0.82622  -0.78770  -0.73296  -0.56812
 Alpha virt. eigenvalues --   -0.54988  -0.51504  -0.49964  -0.47355  -0.46044
 Alpha virt. eigenvalues --   -0.45183  -0.43398  -0.42206  -0.41587  -0.39128

  Beta  occ. eigenvalues --  -11.06911 -11.06900 -11.01273 -11.00448 -10.99536
  Beta  occ. eigenvalues --   -1.74003  -1.52072  -1.39407  -1.27194  -1.24713
  Beta  occ. eigenvalues --   -1.19499  -1.17661  -1.17639  -1.10355  -1.07716
  Beta virt. eigenvalues --   -0.93004  -0.83251  -0.79947  -0.73464  -0.72992
  Beta virt. eigenvalues --   -0.56490  -0.53609  -0.51155  -0.49781  -0.46970
  Beta virt. eigenvalues --   -0.45565  -0.44729  -0.43263  -0.42030  -0.40817

 Mulliken charges and spin densities:
               1          2
     1  C    0.757706   0.620275
     2  C    0.061477  -0.164432
     3  C    0.757225   0.620600
     4  C    0.017968  -0.127142
     5  H    0.340780   0.004937
     6  H    0.435531   0.027152
     7  C   -0.094008   0.023220
     8  H    0.361676  -0.002308
     9  H    0.361646  -0.002302
 Sum of Mulliken charges =   3.00000   1.00000

 Dipole moment (field-independent basis, Debye):
    X=              1.7476    Y=              0.0002    Z=             -0.3756  Tot=              1.7875
 Quadrupole moment (field-independent basis, Debye-Ang):
   XX=             24.0482   YY=            -15.5137   ZZ=            -17.3282
   XY=              0.0006   XZ=              0.2987   YZ=             -0.0012

  Exact polarizability:  52.221   0.000  31.803   0.645   0.000  26.423
 Approx polarizability:  76.178   0.002  70.921   2.566   0.011  41.991

                      1                      2                      3
                      A                      A                      A
 Frequencies --    253.1913               307.4139               369.3919
 Red. masses --      3.4287                 1.8952                 2.0997
 Frc consts  --      0.1295                 0.1055                 0.1688
 IR Inten    --     14.2943                 3.9816                 6.8504

                      4                      5                      6
                      A                      A                      A
 Frequencies --    445.0596               521.0214               688.5009
 Red. masses --      2.2735                 4.2466                 4.4071
 Frc consts  --      0.2653                 0.6792                 1.2309
 IR Inten    --      0.0189                 1.8890                34.7630

                      7                      8                      9
                      A                      A                      A
 Frequencies --    805.9952               890.3962               930.1300
 Red. masses --      1.2637                 2.2684                 1.2135
 Frc consts  --      0.4837                 1.0596                 0.6186
 IR Inten    --     52.3324                30.2688                 8.8417

                     10                     11                     12
                      A                      A                      A
 Frequencies --    968.8724              1009.3640              1078.6294
 Red. masses --      6.2202                 1.5436                 1.7725
 Frc consts  --      3.4402                 0.9266                 1.2150
 IR Inten    --     32.4210                42.1351                18.1297

                     13                     14                     15
                      A                      A                      A
 Frequencies --   1089.0611              1186.1318              1364.0582
 Red. masses --      2.0476                 1.6704                 1.8462
 Frc consts  --      1.4309                 1.3846                 2.0240
 IR Inten    --      7.7863                14.9953                 5.4763

                     16                     17                     18
                      A                      A                      A
 Frequencies --   1388.6815              1530.1278              2653.3417
 Red. masses --      1.1048                 6.7658                 1.0803
 Frc consts  --      1.2552                 9.3331                 4.4810
 IR Inten    --     28.4848                84.4085               349.1757

                     19                     20                     21
                      A                      A                      A
 Frequencies --   2852.5149              2876.6269              2989.2560
 Red. masses --      1.1265                 1.0516                 1.1304
 Frc consts  --      5.4005                 5.1272                 5.9513
 IR Inten    --    817.1299               123.6340               222.8774

 - Thermochemistry -
 -------------------
 Temperature   298.150 Kelvin.  Pressure   1.00000 Atm.
 Atom     1 has atomic number  6 and mass  12.00000

 Molecular mass:    64.03130 amu.
 Principal axes and moments of inertia in atomic units:
                           1         2         3
     Eigenvalues --    81.70141 442.00619 477.79853
           X            1.00000   0.00000   0.00181
           Y           -0.00000   1.00000  -0.00021
           Z           -0.00181   0.00021   1.00000
 This molecule is an asymmetric top.
 Rotational symmetry number  1.
 Rotational temperatures (Kelvin)      1.06013     0.19596     0.18128
 Rotational constants (GHZ):          22.08948     4.08307     3.77720
 Zero-point vibrational energy     156697.4 (Joules/Mol)
                                   37.45159 (Kcal/Mol)
 Warning -- explicit consideration of   5 degrees of freedom as
           vibrations may cause significant error
 Vibrational temperatures:    364.29   442.30   531.47   640.34   749.63
          (Kelvin)            990.60  1159.65  1281.08  1338.25  1393.99
                             1452.25  1551.91  1566.91  1706.58  1962.57
                             1998.00  2201.51  3817.56  4104.13  4138.82
                             4300.87

 Zero-point correction=                           0.059683 (Hartree/Particle)
 Thermal correction to Energy=                    0.064693
 Thermal correction to Enthalpy=                  0.065637
 Thermal correction to Gibbs Free Energy=         0.031938
 Sum of electronic and zero-point Energies=           -191.021077
 Sum of electronic and thermal Energies=              -191.016067
 Sum of electronic and thermal Enthalpies=            -191.015123
 Sum of electronic and thermal Free Energies=         -191.048822

                     E (Thermal)             CV                S
                      KCal/Mol        Cal/Mol-Kelvin    Cal/Mol-Kelvin
 Total                   40.595             17.836             70.927
 Electronic               0.000              0.000              1.377
 Translational            0.889              2.981             38.389
 Rotational               0.889              2.981             24.360
 Vibrational             38.818             11.874              6.800
 Vibration     1          0.664              1.757              1.708
 Vibration     2          0.697              1.660              1.376
 Vibration     3          0.742              1.535              1.082
 Vibration     4          0.804              1.372              0.811
 Vibration     5          0.876              1.203              0.608

 Optimization completed.
    -- Stationary point found.
 Normal termination of Gaussian 09 at Mon Jun 20 11:07:43 2016.
