 Gaussian 09, Revision E.01,
 Gaussian 09:  EM64L-G09RevE.01 30-Nov-2015

 ---------------------------------------------
 #p b3lyp/6-311++G(3df,2p) freq symmetry=Loose
 ---------------------------------------------

 ---------
 b3lyp opt
 ---------
 Symbolic Z-matrix:
 Charge =  2 Multiplicity = 1

                         Standard orientation:
 ---------------------------------------------------------------------
 Center     Atomic      Atomic             Coordinates (Angstroms)
 Number     Number       Type             X           Y           Z
 ---------------------------------------------------------------------
      1          6           0       -0.462753   -0.977188   -0.382323
      2          6           0       -1.511968   -0.021097    0.258726
      3          1           0       -1.551871   -0.576542    1.234043
      4          1           0       -0.447431    1.737809   -0.705351
      5          1           0       -2.540932    0.169117   -0.074451
      6          6           0       -0.440909    0.852157   -0.060771
      7          6           0        0.717318   -0.064671   -0.112019
      8          6           0        1.953017   -0.021755    0.152556
      9          1           0        3.011996    0.064936    0.408753
 ---------------------------------------------------------------------

 SCF Done:  E(RB3LYP) =  -191.867472140     A.U. after   14 cycles

 The electronic state is 1-A.
 Alpha  occ. eigenvalues --  -10.79331 -10.77773 -10.74816 -10.71633 -10.68228
 Alpha  occ. eigenvalues --   -1.41948  -1.27147  -1.12402  -1.10126  -1.01836
 Alpha  occ. eigenvalues --   -0.95029  -0.92742  -0.89178  -0.88107  -0.81013
 Alpha  occ. eigenvalues --   -0.73616
 Alpha virt. eigenvalues --   -0.62487  -0.61142  -0.52537  -0.43013  -0.33989
 Alpha virt. eigenvalues --   -0.32223  -0.31713  -0.30564  -0.28107  -0.25559
 Alpha virt. eigenvalues --   -0.24926  -0.24251  -0.23465  -0.22075  -0.21619

 Mulliken charges:
               1
     1  C    0.464390
     2  C   -0.465564
     3  H    0.309653
     4  H    0.304416
     5  H    0.287485
     6  C    0.195063
     7  C    0.126108
     8  C    0.321652
     9  H    0.456797
 Sum of Mulliken charges =   2.00000

 Dipole moment (field-independent basis, Debye):
    X=              1.8316    Y=              1.1656    Z=              0.8380  Tot=              2.3272
 Quadrupole moment (field-independent basis, Debye-Ang):
   XX=              8.2709   YY=            -19.5570   ZZ=            -22.0924
   XY=             -0.0511   XZ=              0.8786   YZ=             -2.1530

  Exact polarizability:  76.010   1.878  40.879   1.542   1.268  30.924
 Approx polarizability: 196.201  14.728  88.250  12.625  10.677  53.624

                      1                      2                      3
                      A                      A                      A
 Frequencies --    191.2825               242.7067               399.1993
 Red. masses --      3.1309                 2.3787                 2.7144
 Frc consts  --      0.0675                 0.0826                 0.2549
 IR Inten    --     19.4213                22.5631                13.9893

                      4                      5                      6
                      A                      A                      A
 Frequencies --    455.8413               619.3495               650.5117
 Red. masses --      3.0425                 2.5747                 5.7636
 Frc consts  --      0.3725                 0.5819                 1.4370
 IR Inten    --      6.1436                16.4911                28.2402

                      7                      8                      9
                      A                      A                      A
 Frequencies --    755.9098               791.0653               833.6298
 Red. masses --      1.4979                 1.7483                 1.5379
 Frc consts  --      0.5043                 0.6446                 0.6297
 IR Inten    --     24.5996                43.6646                41.2294

                     10                     11                     12
                      A                      A                      A
 Frequencies --    901.0598               935.2367               979.5388
 Red. masses --      1.4732                 2.0038                 2.5453
 Frc consts  --      0.7047                 1.0326                 1.4389
 IR Inten    --      6.3280                49.1647                26.1516

                     13                     14                     15
                      A                      A                      A
 Frequencies --   1081.8558              1159.7517              1294.0460
 Red. masses --      1.2614                 1.3370                 1.5267
 Frc consts  --      0.8698                 1.0595                 1.5063
 IR Inten    --     38.7805                13.6137                 9.6559

                     16                     17                     18
                      A                      A                      A
 Frequencies --   1321.9730              1814.1470              2781.1343
 Red. masses --      1.9003                 6.1592                 1.0782
 Frc consts  --      1.9567                11.9432                 4.9137
 IR Inten    --    109.8494               527.3119               382.4982

                     19                     20                     21
                      A                      A                      A
 Frequencies --   3025.6606              3077.1528              3163.9979
 Red. masses --      1.0879                 1.0974                 1.1467
 Frc consts  --      5.8677                 6.1221                 6.7635
 IR Inten    --    205.1375               181.3199               351.4380

 - Thermochemistry -
 -------------------
 Temperature   298.150 Kelvin.  Pressure   1.00000 Atm.
 Atom     1 has atomic number  6 and mass  12.00000

 Molecular mass:    64.03130 amu.
 Principal axes and moments of inertia in atomic units:
                           1         2         3
     Eigenvalues --   103.00833 384.11399 451.13828
           X            1.00000  -0.00214  -0.00190
           Y            0.00194   0.99488  -0.10101
           Z            0.00211   0.10101   0.99488
 This molecule is an asymmetric top.
 Rotational symmetry number  1.
 Rotational temperatures (Kelvin)      0.84084     0.22549     0.19199
 Rotational constants (GHZ):          17.52034     4.69845     4.00042
 Zero-point vibrational energy     158356.0 (Joules/Mol)
                                   37.84798 (Kcal/Mol)
 Warning -- explicit consideration of   5 degrees of freedom as
           vibrations may cause significant error
 Vibrational temperatures:    275.21   349.20   574.36   655.85   891.10
          (Kelvin)            935.94  1087.58  1138.17  1199.41  1296.42
                             1345.60  1409.34  1556.55  1668.62  1861.84
                             1902.02  2610.15  4001.43  4353.25  4427.33
                             4552.28

 Zero-point correction=                           0.060315 (Hartree/Particle)
 Thermal correction to Energy=                    0.065524
 Thermal correction to Enthalpy=                  0.066468
 Thermal correction to Gibbs Free Energy=         0.032976
 Sum of electronic and zero-point Energies=           -191.807158
 Sum of electronic and thermal Energies=              -191.801948
 Sum of electronic and thermal Enthalpies=            -191.801004
 Sum of electronic and thermal Free Energies=         -191.834496

                     E (Thermal)             CV                S
                      KCal/Mol        Cal/Mol-Kelvin    Cal/Mol-Kelvin
 Total                   41.117             18.509             70.490
 Electronic               0.000              0.000              0.000
 Translational            0.889              2.981             38.389
 Rotational               0.889              2.981             24.394
 Vibrational             39.340             12.548              7.707
 Vibration     1          0.634              1.852              2.215
 Vibration     2          0.659              1.775              1.783
 Vibration     3          0.765              1.472              0.966
 Vibration     4          0.814              1.348              0.778
 Vibration     5          0.979              0.991              0.418

 Optimization completed.
    -- Stationary point found.
 Normal termination of Gaussian 09 at Mon Jun 20 08:15:25 2016.
