 Gaussian 09, Revision E.01,
 Gaussian 09:  EM64L-G09RevE.01 30-Nov-2015

 ---------------------------------------------
 #p b3lyp/6-311++G(3df,2p) freq symmetry=Loose
 ---------------------------------------------

 ---------
 b3lyp opt
 ---------
 Symbolic Z-matrix:
 Charge =  2 Multiplicity = 1

                         Standard orientation:
 ---------------------------------------------------------------------
 Center     Atomic      Atomic             Coordinates (Angstroms)
 Number     Number       Type             X           Y           Z
 ---------------------------------------------------------------------
      1          6           0        0.001844    0.667155   -0.076987
      2          1           0        0.115783    1.698983   -0.421037
      3          6           0        2.300762   -0.485437   -0.462415
      4          6           0       -1.202097    0.093519   -0.040262
      5          6           0       -2.354310   -0.344554   -0.025395
      6          1           0       -3.365640   -0.733669   -0.010461
      7          6           0        1.279272   -0.030189    0.353039
      8          1           0        1.157771   -0.999611    0.934447
      9          1           0        1.939259    0.631333    1.009167
 ---------------------------------------------------------------------

 SCF Done:  E(RB3LYP) =  -191.885050179     A.U. after   14 cycles

 The electronic state is 1-A.
 Alpha  occ. eigenvalues --  -10.81104 -10.73405 -10.68874 -10.68813 -10.64157
 Alpha  occ. eigenvalues --   -1.32904  -1.25327  -1.16987  -1.02539  -0.98469
 Alpha  occ. eigenvalues --   -0.95122  -0.93383  -0.89179  -0.79952  -0.76837
 Alpha  occ. eigenvalues --   -0.73298
 Alpha virt. eigenvalues --   -0.59294  -0.58791  -0.56630  -0.41630  -0.35543
 Alpha virt. eigenvalues --   -0.33030  -0.31853  -0.29157  -0.27945  -0.26069
 Alpha virt. eigenvalues --   -0.25785  -0.25011  -0.22266  -0.20841  -0.20220

 Mulliken charges:
               1
     1  C    0.086972
     2  H    0.268665
     3  C    0.070369
     4  C    0.380070
     5  C    0.142417
     6  H    0.413144
     7  C    0.020271
     8  H    0.307335
     9  H    0.310757
 Sum of Mulliken charges =   2.00000

 Dipole moment (field-independent basis, Debye):
    X=              0.4884    Y=             -0.1053    Z=              1.0064  Tot=              1.1235
 Quadrupole moment (field-independent basis, Debye-Ang):
   XX=             14.5959   YY=            -18.7327   ZZ=            -22.1482
   XY=              4.0337   XZ=              2.6416   YZ=             -0.8208

  Exact polarizability:  86.322   5.733  36.876  -1.663   0.013  31.790
 Approx polarizability: 167.300  22.975  61.560  -7.726   1.470  51.710

                      1                      2                      3
                      A                      A                      A
 Frequencies --     73.9376               193.2447               258.8088
 Red. masses --      3.6173                 2.7759                 5.2616
 Frc consts  --      0.0117                 0.0611                 0.2076
 IR Inten    --      2.2952                10.0430                11.7788

                      4                      5                      6
                      A                      A                      A
 Frequencies --    279.2512               366.8512               519.0566
 Red. masses --      2.7220                 1.5542                 4.9429
 Frc consts  --      0.1251                 0.1232                 0.7846
 IR Inten    --     15.7803                 4.8896                11.6430

                      7                      8                      9
                      A                      A                      A
 Frequencies --    706.3589               761.6350               828.1055
 Red. masses --      1.2486                 1.9573                 1.3841
 Frc consts  --      0.3671                 0.6690                 0.5592
 IR Inten    --     43.8796                10.2772                 6.1492

                     10                     11                     12
                      A                      A                      A
 Frequencies --    916.1864               964.8865              1011.8682
 Red. masses --      1.3745                 1.6842                 1.5627
 Frc consts  --      0.6798                 0.9238                 0.9427
 IR Inten    --      4.5984                16.1296                27.7058

                     13                     14                     15
                      A                      A                      A
 Frequencies --   1181.6329              1231.4801              1385.1632
 Red. masses --      1.7142                 1.1153                 1.9739
 Frc consts  --      1.4102                 0.9965                 2.2314
 IR Inten    --      2.7218                74.4594                 4.4918

                     16                     17                     18
                      A                      A                      A
 Frequencies --   1414.9224              2113.3307              2653.3956
 Red. masses --      6.2689                 6.2569                 1.0663
 Frc consts  --      7.3945                16.4644                 4.4233
 IR Inten    --    522.7768               802.4308               260.2741

                     19                     20                     21
                      A                      A                      A
 Frequencies --   2698.0211              3089.5951              3262.7784
 Red. masses --      1.0772                 1.0932                 1.1654
 Frc consts  --      4.6201                 6.1481                 7.3098
 IR Inten    --    166.4380                86.2354               189.9514

 - Thermochemistry -
 -------------------
 Temperature   298.150 Kelvin.  Pressure   1.00000 Atm.
 Atom     1 has atomic number  6 and mass  12.00000

 Molecular mass:    64.03130 amu.
 Principal axes and moments of inertia in atomic units:
                           1         2         3
     Eigenvalues --    73.84819 677.55548 708.15404
           X            0.99973   0.01789   0.01510
           Y           -0.01612   0.99380  -0.10999
           Z           -0.01698   0.10972   0.99382
 This molecule is an asymmetric top.
 Rotational symmetry number  1.
 Rotational temperatures (Kelvin)      1.17286     0.12783     0.12231
 Rotational constants (GHZ):          24.43853     2.66361     2.54852
 Zero-point vibrational energy     154979.3 (Joules/Mol)
                                   37.04093 (Kcal/Mol)
 Warning -- explicit consideration of   6 degrees of freedom as
           vibrations may cause significant error
 Vibrational temperatures:    106.38   278.04   372.37   401.78   527.82
          (Kelvin)            746.81  1016.29  1095.82  1191.46  1318.19
                             1388.25  1455.85  1700.10  1771.82  1992.94
                             2035.76  3040.61  3817.64  3881.85  4445.23
                             4694.40

 Zero-point correction=                           0.059028 (Hartree/Particle)
 Thermal correction to Energy=                    0.065140
 Thermal correction to Enthalpy=                  0.066084
 Thermal correction to Gibbs Free Energy=         0.030074
 Sum of electronic and zero-point Energies=           -191.826022
 Sum of electronic and thermal Energies=              -191.819910
 Sum of electronic and thermal Enthalpies=            -191.818966
 Sum of electronic and thermal Free Energies=         -191.854977

                     E (Thermal)             CV                S
                      KCal/Mol        Cal/Mol-Kelvin    Cal/Mol-Kelvin
 Total                   40.876             20.008             75.790
 Electronic               0.000              0.000              0.000
 Translational            0.889              2.981             38.389
 Rotational               0.889              2.981             25.075
 Vibrational             39.098             14.046             12.326
 Vibration     1          0.599              1.966              4.046
 Vibration     2          0.635              1.849              2.196
 Vibration     3          0.668              1.748              1.670
 Vibration     4          0.680              1.712              1.538
 Vibration     5          0.740              1.540              1.093
 Vibration     6          0.874              1.208              0.612

 Optimization completed.
    -- Stationary point found.
 Normal termination of Gaussian 09 at Mon Jun 20 07:34:50 2016.
