 Gaussian 09, Revision E.01,
 Gaussian 09:  EM64L-G09RevE.01 30-Nov-2015

 ---------------------------------------------
 #p b3lyp/6-311++G(3df,2p) freq symmetry=Loose
 ---------------------------------------------

 ---------
 b3lyp opt
 ---------
 Symbolic Z-matrix:
 Charge =  1 Multiplicity = 4

                         Standard orientation:
 ---------------------------------------------------------------------
 Center     Atomic      Atomic             Coordinates (Angstroms)
 Number     Number       Type             X           Y           Z
 ---------------------------------------------------------------------
      1          6           0       -0.430946   -1.084186    0.000000
      2          1           0       -1.502593   -1.291002    0.000000
      3          6           0        0.463027   -2.096661    0.000000
      4          1           0        0.458378   -3.178162    0.000000
      5          6           0        0.000000    0.234882    0.000000
      6          6           0        0.894974    1.229413    0.000000
      7          6           0       -0.455868    1.745210    0.000000
      8          1           0       -0.891454    2.148609    0.917551
      9          1           0       -0.891454    2.148609   -0.917551
 ---------------------------------------------------------------------

 SCF Done:  E(UB3LYP) =  -192.403351078     A.U. after   16 cycles

 The electronic state is 4-A".
 Alpha  occ. eigenvalues --  -10.48791 -10.48066 -10.47112 -10.44843 -10.44278
 Alpha  occ. eigenvalues --   -1.15474  -1.04581  -0.88483  -0.84326  -0.73776
 Alpha  occ. eigenvalues --   -0.72449  -0.70272  -0.65993  -0.61793  -0.58136
 Alpha  occ. eigenvalues --   -0.49531  -0.49264  -0.48996
 Alpha virt. eigenvalues --   -0.31353  -0.17108  -0.15408  -0.14874  -0.12157
 Alpha virt. eigenvalues --   -0.10969  -0.10539  -0.09912  -0.07930  -0.07135
 Alpha virt. eigenvalues --   -0.06676  -0.05264  -0.04739  -0.03724  -0.02813

  Beta  occ. eigenvalues --  -10.47458 -10.46915 -10.44956 -10.44884 -10.43931
  Beta  occ. eigenvalues --   -1.12912  -1.02233  -0.85251  -0.81736  -0.71529
  Beta  occ. eigenvalues --   -0.70389  -0.67857  -0.60188  -0.59758  -0.55220
  Beta virt. eigenvalues --   -0.39243  -0.35255  -0.31215  -0.25849  -0.14716
  Beta virt. eigenvalues --   -0.13937  -0.13892  -0.11564  -0.10797  -0.09797
  Beta virt. eigenvalues --   -0.09252  -0.07209  -0.06749  -0.05755  -0.04757

 Mulliken charges and spin densities:
               1          2
     1  C   -0.200854   0.035378
     2  H    0.224985   0.059178
     3  C   -0.306164   1.387085
     4  H    0.288516   0.013308
     5  C    0.486694   0.228195
     6  C    0.465313   0.970792
     7  C   -0.419819   0.190961
     8  H    0.230665   0.057552
     9  H    0.230665   0.057552
 Sum of Mulliken charges =   1.00000   3.00000

 Dipole moment (field-independent basis, Debye):
    X=             -1.5019    Y=             -1.0386    Z=              0.0000  Tot=              1.8260
 Quadrupole moment (field-independent basis, Debye-Ang):
   XX=            -24.5514   YY=             -6.5203   ZZ=            -26.2593
   XY=             -2.5355   XZ=             -0.0000   YZ=              0.0000

  Exact polarizability:  46.653  -4.396  93.527   0.000   0.000  32.540
 Approx polarizability:  77.320  -2.142 144.959  -0.000   0.000  47.784

                      1                      2                      3
                     A"                     A'                     A"
 Frequencies --    156.3439               214.4433               315.6009
 Red. masses --      2.8770                 3.9502                 2.6809
 Frc consts  --      0.0414                 0.1070                 0.1573
 IR Inten    --      2.2353                 4.1093                 5.7721

                      4                      5                      6
                     A'                     A'                     A"
 Frequencies --    435.1995               674.2412               681.9910
 Red. masses --      4.1598                 2.3543                 1.2761
 Frc consts  --      0.4642                 0.6306                 0.3497
 IR Inten    --      3.0152                 3.9658                32.8483

                      7                      8                      9
                     A"                     A'                     A"
 Frequencies --    850.0265               856.5330               872.6882
 Red. masses --      1.2981                 2.1890                 1.2399
 Frc consts  --      0.5526                 0.9462                 0.5564
 IR Inten    --      3.9063                48.7113                 0.1296

                     10                     11                     12
                     A"                     A'                     A'
 Frequencies --    950.7870               997.4874              1015.2464
 Red. masses --      1.4105                 4.0760                 1.3023
 Frc consts  --      0.7513                 2.3895                 0.7909
 IR Inten    --      4.6250                49.1595                61.9027

                     13                     14                     15
                     A'                     A'                     A'
 Frequencies --   1124.5307              1261.2540              1379.0118
 Red. masses --      5.7222                 1.4313                 1.1360
 Frc consts  --      4.2634                 1.3415                 1.2728
 IR Inten    --     25.6733                 0.1091                76.6682

                     16                     17                     18
                     A'                     A'                     A'
 Frequencies --   1467.4732              1725.2777              3009.6712
 Red. masses --      3.8536                11.5797                 1.0471
 Frc consts  --      4.8894                20.3079                 5.5882
 IR Inten    --    148.4290                 1.9968               102.2814

                     19                     20                     21
                     A'                     A"                     A'
 Frequencies --   3074.7319              3083.8845              3226.3864
 Red. masses --      1.0853                 1.1101                 1.1000
 Frc consts  --      6.0455                 6.2201                 6.7465
 IR Inten    --     19.3567                23.3158                51.1879

 - Thermochemistry -
 -------------------
 Temperature   298.150 Kelvin.  Pressure   1.00000 Atm.
 Atom     1 has atomic number  6 and mass  12.00000

 Molecular mass:    64.03130 amu.
 Principal axes and moments of inertia in atomic units:
                           1         2         3
     Eigenvalues --    79.63105 519.01230 586.52333
           X           -0.04693   0.99890   0.00000
           Y            0.99890   0.04693   0.00000
           Z            0.00000   0.00000   1.00000
 This molecule is an asymmetric top.
 Rotational symmetry number  1.
 Rotational temperatures (Kelvin)      1.08769     0.16688     0.14767
 Rotational constants (GHZ):          22.66379     3.47726     3.07702
 Zero-point vibrational energy     163725.8 (Joules/Mol)
                                   39.13140 (Kcal/Mol)
 Warning -- explicit consideration of   4 degrees of freedom as
           vibrations may cause significant error
 Vibrational temperatures:    224.94   308.54   454.08   626.15   970.08
          (Kelvin)            981.23  1223.00  1232.36  1255.60  1367.97
                             1435.16  1460.71  1617.95  1814.66  1984.09
                             2111.36  2482.29  4330.24  4423.85  4437.02
                             4642.04

 Zero-point correction=                           0.062360 (Hartree/Particle)
 Thermal correction to Energy=                    0.067641
 Thermal correction to Enthalpy=                  0.068585
 Thermal correction to Gibbs Free Energy=         0.033332
 Sum of electronic and zero-point Energies=           -192.340991
 Sum of electronic and thermal Energies=              -192.335710
 Sum of electronic and thermal Enthalpies=            -192.334766
 Sum of electronic and thermal Free Energies=         -192.370019

                     E (Thermal)             CV                S
                      KCal/Mol        Cal/Mol-Kelvin    Cal/Mol-Kelvin
 Total                   42.445             17.964             74.196
 Electronic               0.000              0.000              2.755
 Translational            0.889              2.981             38.389
 Rotational               0.889              2.981             24.698
 Vibrational             40.668             12.002              8.354
 Vibration     1          0.620              1.896              2.594
 Vibration     2          0.644              1.819              2.006
 Vibration     3          0.703              1.644              1.333
 Vibration     4          0.796              1.394              0.842

 Optimization completed.
    -- Stationary point found.
 Normal termination of Gaussian 09 at Mon Jun 20 07:37:55 2016.
