 Gaussian 09, Revision E.01,
 Gaussian 09:  EM64L-G09RevE.01 30-Nov-2015

 ---------------------------------------------
 #p b3lyp/6-311++G(3df,2p) freq symmetry=Loose
 ---------------------------------------------

 ---------
 b3lyp opt
 ---------
 Symbolic Z-matrix:
 Charge =  3 Multiplicity = 4

                         Standard orientation:
 ---------------------------------------------------------------------
 Center     Atomic      Atomic             Coordinates (Angstroms)
 Number     Number       Type             X           Y           Z
 ---------------------------------------------------------------------
      1          6           0       -1.007030   -0.655733   -0.000121
      2          6           0        0.406109   -0.943936   -0.000302
      3          1           0       -1.713287   -1.215235   -0.772355
      4          1           0       -1.711542   -1.214339    0.774359
      5          6           0       -0.933705    0.837426   -0.000059
      6          1           0       -1.747213    1.593950    0.000212
      7          6           0        0.474465    1.029639   -0.000059
      8          6           0        1.487701   -0.108241    0.000058
      9          1           0        2.606798   -0.119307    0.000684
 ---------------------------------------------------------------------

 SCF Done:  E(UB3LYP) =  -191.010920966     A.U. after   15 cycles

 The electronic state is 4-A.
 Alpha  occ. eigenvalues --  -11.07352 -11.07232 -11.03468 -11.00219 -10.98286
 Alpha  occ. eigenvalues --   -1.69572  -1.52512  -1.46744  -1.30547  -1.28932
 Alpha  occ. eigenvalues --   -1.22010  -1.20219  -1.19165  -1.15883  -1.07539
 Alpha  occ. eigenvalues --   -1.02560  -1.01942
 Alpha virt. eigenvalues --   -0.87023  -0.80883  -0.73864  -0.59009  -0.57651
 Alpha virt. eigenvalues --   -0.53539  -0.53113  -0.50136  -0.48574  -0.47191
 Alpha virt. eigenvalues --   -0.43399  -0.42478  -0.41726  -0.40188  -0.38580

  Beta  occ. eigenvalues --  -11.05995 -11.05108 -11.02885 -10.99557 -10.97881
  Beta  occ. eigenvalues --   -1.66384  -1.49747  -1.42791  -1.28095  -1.25684
  Beta  occ. eigenvalues --   -1.19280  -1.18417  -1.14376  -1.12579
  Beta virt. eigenvalues --   -0.95895  -0.88716  -0.88591  -0.79013  -0.74139
  Beta virt. eigenvalues --   -0.66147  -0.56747  -0.55877  -0.52323  -0.50305
  Beta virt. eigenvalues --   -0.48901  -0.47545  -0.46034  -0.42572  -0.41459

 Mulliken charges and spin densities:
               1          2
     1  C   -0.161820   0.207250
     2  C    0.767705   0.746673
     3  H    0.349708   0.108328
     4  H    0.349901   0.108447
     5  C    0.221742   0.375091
     6  H    0.371979   0.009993
     7  C    0.557371   1.105948
     8  C    0.125018   0.330670
     9  H    0.418396   0.007600
 Sum of Mulliken charges =   3.00000   3.00000

 Dipole moment (field-independent basis, Debye):
    X=             -1.1489    Y=             -1.2264    Z=              0.0030  Tot=              1.6804
 Quadrupole moment (field-independent basis, Debye-Ang):
   XX=             10.7309   YY=             -5.3664   ZZ=            -20.7133
   XY=              2.1170   XZ=             -0.0015   YZ=             -0.0021

  Exact polarizability:  56.573   3.838  48.158  -0.002  -0.000  24.116
 Approx polarizability: 108.946  15.930 113.055  -0.008   0.003  37.221

                      1                      2                      3
                      A                      A                      A
 Frequencies --    280.7370               362.8008               390.6175
 Red. masses --      2.8179                 1.8418                 6.2842
 Frc consts  --      0.1308                 0.1428                 0.5649
 IR Inten    --     33.8733                29.7631                42.8403

                      4                      5                      6
                      A                      A                      A
 Frequencies --    617.4915               620.2931               638.4252
 Red. masses --      2.6611                 1.7365                 4.1162
 Frc consts  --      0.5978                 0.3937                 0.9885
 IR Inten    --    293.6695                57.0900               128.6838

                      7                      8                      9
                      A                      A                      A
 Frequencies --    764.1196               777.1708               794.1259
 Red. masses --      1.2791                 1.9194                 1.2576
 Frc consts  --      0.4400                 0.6831                 0.4673
 IR Inten    --      7.3954               334.1000                10.3165

                     10                     11                     12
                      A                      A                      A
 Frequencies --    875.3935               891.6483               977.7721
 Red. masses --      1.8000                 1.4119                 1.4781
 Frc consts  --      0.8127                 0.6613                 0.8326
 IR Inten    --     17.4438                 3.2198                16.8788

                     13                     14                     15
                      A                      A                      A
 Frequencies --   1028.9988              1112.4989              1160.3419
 Red. masses --      1.9306                 2.1493                 1.6064
 Frc consts  --      1.2044                 1.5673                 1.2743
 IR Inten    --     10.1609               131.3298                59.7014

                     16                     17                     18
                      A                      A                      A
 Frequencies --   1284.5742              1458.6433              2063.0960
 Red. masses --      3.7309                 7.9308                 1.0545
 Frc consts  --      3.6273                 9.9418                 2.6446
 IR Inten    --     84.8052                66.0329               471.4234

                     19                     20                     21
                      A                      A                      A
 Frequencies --   2354.3166              2863.5578              2929.6354
 Red. masses --      1.1069                 1.1133                 1.1018
 Frc consts  --      3.6149                 5.3787                 5.5716
 IR Inten    --   1226.2246               654.8912               281.7276

 - Thermochemistry -
 -------------------
 Temperature   298.150 Kelvin.  Pressure   1.00000 Atm.
 Atom     1 has atomic number  6 and mass  12.00000

 Molecular mass:    64.03130 amu.
 Principal axes and moments of inertia in atomic units:
                           1         2         3
     Eigenvalues --   156.50711 253.02799 400.92508
           X            0.99918   0.04050  -0.00001
           Y           -0.04050   0.99918  -0.00004
           Z            0.00001   0.00004   1.00000
 This molecule is an asymmetric top.
 Rotational symmetry number  1.
 Rotational temperatures (Kelvin)      0.55342     0.34231     0.21603
 Rotational constants (GHZ):          11.53137     7.13258     4.50144
 Zero-point vibrational energy     145024.8 (Joules/Mol)
                                   34.66177 (Kcal/Mol)
 Warning -- explicit consideration of   5 degrees of freedom as
           vibrations may cause significant error
 Vibrational temperatures:    403.92   521.99   562.01   888.43   892.46
          (Kelvin)            918.55  1099.40  1118.17  1142.57  1259.49
                             1282.88  1406.79  1480.50  1600.64  1669.47
                             1848.21  2098.66  2968.33  3387.33  4120.02
                             4215.09

 Zero-point correction=                           0.055237 (Hartree/Particle)
 Thermal correction to Energy=                    0.060125
 Thermal correction to Enthalpy=                  0.061069
 Thermal correction to Gibbs Free Energy=         0.027051
 Sum of electronic and zero-point Energies=           -190.955684
 Sum of electronic and thermal Energies=              -190.950796
 Sum of electronic and thermal Enthalpies=            -190.949852
 Sum of electronic and thermal Free Energies=         -190.983870

                     E (Thermal)             CV                S
                      KCal/Mol        Cal/Mol-Kelvin    Cal/Mol-Kelvin
 Total                   37.729             18.259             71.597
 Electronic               0.000              0.000              2.755
 Translational            0.889              2.981             38.389
 Rotational               0.889              2.981             24.277
 Vibrational             35.951             12.297              6.175
 Vibration     1          0.680              1.709              1.529
 Vibration     2          0.737              1.549              1.110
 Vibration     3          0.758              1.490              0.998
 Vibration     4          0.977              0.995              0.421
 Vibration     5          0.980              0.989              0.416

 Normal termination of Gaussian 09 at Mon Jun 20 13:14:20 2016.
