 Gaussian 09, Revision E.01,
 Gaussian 09:  EM64L-G09RevE.01 30-Nov-2015

 ---------------------------------------------
 #p b3lyp/6-311++G(3df,2p) freq symmetry=Loose
 ---------------------------------------------

 ---------
 b3lyp opt
 ---------
 Symbolic Z-matrix:
 Charge =  3 Multiplicity = 2

                         Standard orientation:
 ---------------------------------------------------------------------
 Center     Atomic      Atomic             Coordinates (Angstroms)
 Number     Number       Type             X           Y           Z
 ---------------------------------------------------------------------
      1          6           0       -0.469118    0.002239    0.500879
      2          6           0        0.828599   -0.766303    0.029642
      3          6           0        1.814003   -0.001306   -0.289985
      4          6           0        0.828685    0.766566    0.022981
      5          1           0       -0.564195    0.006925    1.601530
      6          6           0       -1.721837   -0.001488   -0.343596
      7          1           0       -2.685415    0.566720    0.157142
      8          1           0       -1.746835   -0.007051   -1.440697
      9          1           0       -2.685551   -0.564843    0.162495
 ---------------------------------------------------------------------

 SCF Done:  E(UB3LYP) =  -190.937066716     A.U. after   24 cycles

 The electronic state is 2-A.
 Alpha  occ. eigenvalues --  -11.07178 -11.07160 -11.04764 -11.01784 -10.96215
 Alpha  occ. eigenvalues --   -1.76499  -1.52533  -1.42123  -1.31051  -1.23566
 Alpha  occ. eigenvalues --   -1.23160  -1.16450  -1.14878  -1.10159  -1.08356
 Alpha  occ. eigenvalues --   -1.02872
 Alpha virt. eigenvalues --   -0.92715  -0.80818  -0.75850  -0.71507  -0.58715
 Alpha virt. eigenvalues --   -0.56172  -0.55573  -0.52344  -0.51424  -0.46625
 Alpha virt. eigenvalues --   -0.45066  -0.44171  -0.41640  -0.41071  -0.39169

  Beta  occ. eigenvalues --  -11.07139 -11.07119 -11.04555 -11.01877 -10.95041
  Beta  occ. eigenvalues --   -1.76429  -1.50990  -1.39378  -1.30986  -1.23182
  Beta  occ. eigenvalues --   -1.22055  -1.15411  -1.14023  -1.09721  -1.07929
  Beta virt. eigenvalues --   -0.92111  -0.88500  -0.80798  -0.74912  -0.70990
  Beta virt. eigenvalues --   -0.57286  -0.55309  -0.53796  -0.50770  -0.49950
  Beta virt. eigenvalues --   -0.46510  -0.44267  -0.43834  -0.41400  -0.40729

 Mulliken charges and spin densities:
               1          2
     1  C    0.267273  -0.061111
     2  C    0.752558  -0.002213
     3  C    0.144218   0.103154
     4  C    0.752633  -0.002090
     5  H    0.348521   0.001067
     6  C   -0.244702   0.741122
     7  H    0.312778   0.118893
     8  H    0.353889  -0.017823
     9  H    0.312832   0.119001
 Sum of Mulliken charges =   3.00000   1.00000

 Dipole moment (field-independent basis, Debye):
    X=             -4.1221    Y=              0.0008    Z=              0.1964  Tot=              4.1268
 Quadrupole moment (field-independent basis, Debye-Ang):
   XX=             24.8239   YY=            -17.4362   ZZ=            -15.9424
   XY=             -0.0078   XZ=             -1.6498   YZ=              0.0075

  Exact polarizability:  54.266  -0.014  30.945  -3.584  -0.014  27.428
 Approx polarizability:  97.946  -0.061  66.992 -14.572  -0.104  42.704

                      1                      2                      3
                      A                      A                      A
 Frequencies --     77.0317               274.6876               331.0268
 Red. masses --      1.1394                 4.1235                 7.3139
 Frc consts  --      0.0040                 0.1833                 0.4722
 IR Inten    --     19.8839                10.1682                19.8592

                      4                      5                      6
                      A                      A                      A
 Frequencies --    385.8442               509.5049               546.0092
 Red. masses --      3.7639                 4.9305                 1.0270
 Frc consts  --      0.3301                 0.7541                 0.1804
 IR Inten    --      3.1625                 9.8716                22.4241

                      7                      8                      9
                      A                      A                      A
 Frequencies --    675.3588               793.8183               835.2520
 Red. masses --      2.8685                 1.5416                 3.2814
 Frc consts  --      0.7709                 0.5723                 1.3488
 IR Inten    --     38.4665                88.5293                14.5023

                     10                     11                     12
                      A                      A                      A
 Frequencies --    970.2337              1039.0954              1083.1607
 Red. masses --      3.2935                 4.1243                 1.1760
 Frc consts  --      1.8267                 2.6237                 0.8129
 IR Inten    --     51.0822                17.5319                 7.8962

                     13                     14                     15
                      A                      A                      A
 Frequencies --   1185.4131              1334.2264              1451.7543
 Red. masses --      1.0985                 1.1421                 1.1090
 Frc consts  --      0.9095                 1.1979                 1.3771
 IR Inten    --    104.6156                 4.9953                27.1380

                     16                     17                     18
                      A                      A                      A
 Frequencies --   1535.5755              1837.4395              1849.0690
 Red. masses --     11.9627                11.8168                 1.0275
 Frc consts  --     16.6197                23.5058                 2.0699
 IR Inten    --     11.9647                24.4716               257.6618

                     19                     20                     21
                      A                      A                      A
 Frequencies --   2309.9686              2972.2575              3059.3216
 Red. masses --      1.1061                 1.0931                 1.0972
 Frc consts  --      3.4773                 5.6898                 6.0506
 IR Inten    --    416.7945               207.9529               148.8685

 - Thermochemistry -
 -------------------
 Temperature   298.150 Kelvin.  Pressure   1.00000 Atm.
 Atom     1 has atomic number  6 and mass  12.00000

 Molecular mass:    64.03130 amu.
 Principal axes and moments of inertia in atomic units:
                           1         2         3
     Eigenvalues --    88.97958 433.48315 449.80451
           X            0.99998   0.00000   0.00685
           Y           -0.00003   0.99999   0.00403
           Z           -0.00685  -0.00403   0.99997
 This molecule is an asymmetric top.
 Rotational symmetry number  1.
 Rotational temperatures (Kelvin)      0.97341     0.19981     0.19256
 Rotational constants (GHZ):          20.28265     4.16335     4.01228
 Zero-point vibrational energy     149868.5 (Joules/Mol)
                                   35.81942 (Kcal/Mol)
 Warning -- explicit consideration of   6 degrees of freedom as
           vibrations may cause significant error
 Vibrational temperatures:    110.83   395.21   476.27   555.14   733.06
          (Kelvin)            785.58   971.69  1142.13  1201.74  1395.95
                             1495.02  1558.42  1705.54  1919.65  2088.75
                             2209.35  2643.66  2660.39  3323.53  4276.41
                             4401.68

 Zero-point correction=                           0.057082 (Hartree/Particle)
 Thermal correction to Energy=                    0.062674
 Thermal correction to Enthalpy=                  0.063618
 Thermal correction to Gibbs Free Energy=         0.028363
 Sum of electronic and zero-point Energies=           -190.879985
 Sum of electronic and thermal Energies=              -190.874393
 Sum of electronic and thermal Enthalpies=            -190.873448
 Sum of electronic and thermal Free Energies=         -190.908704

                     E (Thermal)             CV                S
                      KCal/Mol        Cal/Mol-Kelvin    Cal/Mol-Kelvin
 Total                   39.329             18.861             74.202
 Electronic               0.000              0.000              1.377
 Translational            0.889              2.981             38.389
 Rotational               0.889              2.981             24.365
 Vibrational             37.551             12.899             10.070
 Vibration     1          0.599              1.964              3.965
 Vibration     2          0.677              1.720              1.567
 Vibration     3          0.713              1.614              1.255
 Vibration     4          0.755              1.500              1.016
 Vibration     5          0.865              1.229              0.635
 Vibration     6          0.901              1.148              0.553

 Optimization completed.
    -- Stationary point found.
 Normal termination of Gaussian 09 at Mon Jun 20 11:08:49 2016.
