 Gaussian 09, Revision E.01,
 Gaussian 09:  EM64L-G09RevE.01 30-Nov-2015

 ---------------------------------------------
 #p b3lyp/6-311++G(3df,2p) freq symmetry=Loose
 ---------------------------------------------

 ---------
 b3lyp opt
 ---------
 Symbolic Z-matrix:
 Charge =  2 Multiplicity = 1

                         Standard orientation:
 ---------------------------------------------------------------------
 Center     Atomic      Atomic             Coordinates (Angstroms)
 Number     Number       Type             X           Y           Z
 ---------------------------------------------------------------------
      1          6           0        1.286032   -1.077136   -0.255433
      2          6           0       -1.713377   -0.243053    0.205752
      3          1           0       -2.579011   -0.373001   -0.453407
      4          1           0       -1.860987   -0.353776    1.283278
      5          6           0       -0.460641    0.067026   -0.354373
      6          1           0       -0.260709   -0.148282   -1.437648
      7          6           0        0.472546    1.290504   -0.208802
      8          6           0        1.006414    0.080580    0.455515
      9          1           0        1.154857    0.167527    1.551819
 ---------------------------------------------------------------------

 SCF Done:  E(RB3LYP) =  -191.768911827     A.U. after   13 cycles

 The electronic state is 1-A.
 Alpha  occ. eigenvalues --  -10.79850 -10.78986 -10.75481 -10.75313 -10.72392
 Alpha  occ. eigenvalues --   -1.42407  -1.25705  -1.18415  -1.08728  -0.99939
 Alpha  occ. eigenvalues --   -0.96540  -0.90974  -0.88356  -0.86993  -0.80096
 Alpha  occ. eigenvalues --   -0.75479
 Alpha virt. eigenvalues --   -0.63125  -0.59684  -0.59287  -0.50652  -0.42687
 Alpha virt. eigenvalues --   -0.34571  -0.33104  -0.30832  -0.30144  -0.26252
 Alpha virt. eigenvalues --   -0.25567  -0.24658  -0.23518  -0.22959  -0.22312

 Mulliken charges:
               1
     1  C   -0.034426
     2  C   -0.269344
     3  H    0.291719
     4  H    0.319337
     5  C    0.249587
     6  H    0.311109
     7  C    0.276879
     8  C    0.570709
     9  H    0.284429
 Sum of Mulliken charges =   2.00000

 Dipole moment (field-independent basis, Debye):
    X=             -2.4366    Y=             -0.8957    Z=              1.5337  Tot=              3.0152
 Quadrupole moment (field-independent basis, Debye-Ang):
   XX=             -3.5388   YY=            -23.4727   ZZ=            -16.5638
   XY=              1.1325   XZ=              1.6595   YZ=             -0.0356

  Exact polarizability:  67.976   0.542  46.818  -0.949  -0.159  36.437
 Approx polarizability: 145.094  -3.603 110.104  -2.487  -0.179  61.800

                      1                      2                      3
                      A                      A                      A
 Frequencies --     90.6764               234.5177               327.2538
 Red. masses --      6.9287                 3.4089                 1.8549
 Frc consts  --      0.0336                 0.1105                 0.1170
 IR Inten    --      1.2580                 4.9358                12.0405

                      4                      5                      6
                      A                      A                      A
 Frequencies --    381.0158               453.0790               527.4269
 Red. masses --      2.1625                 2.4034                 4.6304
 Frc consts  --      0.1850                 0.2907                 0.7589
 IR Inten    --      9.2299                11.9842                15.7276

                      7                      8                      9
                      A                      A                      A
 Frequencies --    599.8275               793.2366               849.5553
 Red. masses --      7.2330                 1.2166                 1.1894
 Frc consts  --      1.5333                 0.4510                 0.5058
 IR Inten    --     31.5478                20.8585                54.0565

                     10                     11                     12
                      A                      A                      A
 Frequencies --    921.7874               968.6413              1062.1487
 Red. masses --      1.1912                 2.5744                 1.9801
 Frc consts  --      0.5963                 1.4231                 1.3161
 IR Inten    --      1.6833                56.0554                76.5008

                     13                     14                     15
                      A                      A                      A
 Frequencies --   1152.6173              1198.3254              1267.9822
 Red. masses --      1.3741                 2.1741                 2.2585
 Frc consts  --      1.0756                 1.8394                 2.1394
 IR Inten    --     13.1193               202.1441               218.7952

                     16                     17                     18
                      A                      A                      A
 Frequencies --   1359.4754              1462.1761              2791.0449
 Red. masses --      2.6498                 1.2564                 1.0846
 Frc consts  --      2.8854                 1.5826                 4.9779
 IR Inten    --     93.0120                 7.6859               239.6979

                     19                     20                     21
                      A                      A                      A
 Frequencies --   2925.3060              3039.9166              3152.4653
 Red. masses --      1.0909                 1.0555                 1.1239
 Frc consts  --      5.5000                 5.7470                 6.5811
 IR Inten    --    264.3804               158.8481                99.1470

 - Thermochemistry -
 -------------------
 Temperature   298.150 Kelvin.  Pressure   1.00000 Atm.
 Atom     1 has atomic number  6 and mass  12.00000

 Molecular mass:    64.03130 amu.
 Principal axes and moments of inertia in atomic units:
                           1         2         3
     Eigenvalues --   168.37078 343.22261 424.73497
           X            0.99919   0.03819   0.01263
           Y           -0.03830   0.99923   0.00874
           Z           -0.01228  -0.00922   0.99988
 This molecule is an asymmetric top.
 Rotational symmetry number  1.
 Rotational temperatures (Kelvin)      0.51442     0.25235     0.20392
 Rotational constants (GHZ):          10.71885     5.25822     4.24910
 Zero-point vibrational energy     152873.6 (Joules/Mol)
                                   36.53767 (Kcal/Mol)
 Warning -- explicit consideration of   7 degrees of freedom as
           vibrations may cause significant error
 Vibrational temperatures:    130.46   337.42   470.84   548.20   651.88
          (Kelvin)            758.85   863.02  1141.29  1222.32  1326.24
                             1393.66  1528.19  1658.36  1724.12  1824.34
                             1955.98  2103.74  4015.69  4208.86  4373.76
                             4535.69

 Zero-point correction=                           0.058226 (Hartree/Particle)
 Thermal correction to Energy=                    0.063992
 Thermal correction to Enthalpy=                  0.064936
 Thermal correction to Gibbs Free Energy=         0.029978
 Sum of electronic and zero-point Energies=           -191.710685
 Sum of electronic and thermal Energies=              -191.704920
 Sum of electronic and thermal Enthalpies=            -191.703976
 Sum of electronic and thermal Free Energies=         -191.738934

                     E (Thermal)             CV                S
                      KCal/Mol        Cal/Mol-Kelvin    Cal/Mol-Kelvin
 Total                   40.156             19.661             73.576
 Electronic               0.000              0.000              0.000
 Translational            0.889              2.981             38.389
 Rotational               0.889              2.981             24.710
 Vibrational             38.378             13.700             10.476
 Vibration     1          0.602              1.956              3.645
 Vibration     2          0.654              1.788              1.844
 Vibration     3          0.711              1.621              1.274
 Vibration     4          0.751              1.511              1.035
 Vibration     5          0.812              1.354              0.787
 Vibration     6          0.882              1.189              0.593
 Vibration     7          0.958              1.032              0.450

 Optimization completed.
    -- Stationary point found.
 Normal termination of Gaussian 09 at Mon Jun 20 08:03:18 2016.
