 Gaussian 09, Revision E.01,
 Gaussian 09:  EM64L-G09RevE.01 30-Nov-2015

 ---------------------------------------------
 #p b3lyp/6-311++G(3df,2p) freq symmetry=Loose
 ---------------------------------------------

 ---------
 b3lyp opt
 ---------
 Symbolic Z-matrix:
 Charge =  3 Multiplicity = 2

                         Standard orientation:
 ---------------------------------------------------------------------
 Center     Atomic      Atomic             Coordinates (Angstroms)
 Number     Number       Type             X           Y           Z
 ---------------------------------------------------------------------
      1          6           0        1.300409    0.294301    0.153970
      2          6           0       -0.636937   -0.904869   -0.085023
      3          6           0        0.718716   -1.006660   -0.161141
      4          1           0        1.592792    0.363848    1.254150
      5          1           0        2.143883    0.671800   -0.476724
      6          6           0       -0.127116    0.933588   -0.114336
      7          1           0       -0.254394    1.832728   -0.796315
      8          6           0       -1.421962    0.126744    0.161776
      9          1           0       -2.480936    0.473005    0.287410
 ---------------------------------------------------------------------

 SCF Done:  E(UB3LYP) =  -191.036618798     A.U. after   18 cycles

 The electronic state is 2-A.
 Alpha  occ. eigenvalues --  -11.10163 -11.08019 -11.07955 -11.03470 -10.95693
 Alpha  occ. eigenvalues --   -1.71670  -1.53448  -1.46475  -1.33833  -1.26069
 Alpha  occ. eigenvalues --   -1.22845  -1.20515  -1.16715  -1.14534  -1.08754
 Alpha  occ. eigenvalues --   -1.06513
 Alpha virt. eigenvalues --   -0.90051  -0.88903  -0.82452  -0.70794  -0.61574
 Alpha virt. eigenvalues --   -0.55276  -0.53942  -0.52633  -0.49903  -0.46724
 Alpha virt. eigenvalues --   -0.46030  -0.44046  -0.42083  -0.41736  -0.40621

  Beta  occ. eigenvalues --  -11.08582 -11.07798 -11.07588 -11.03535 -10.95734
  Beta  occ. eigenvalues --   -1.70444  -1.52684  -1.45014  -1.33303  -1.25012
  Beta  occ. eigenvalues --   -1.22177  -1.18871  -1.15776  -1.13854  -1.08565
  Beta virt. eigenvalues --   -0.93269  -0.88331  -0.84224  -0.81251  -0.69654
  Beta virt. eigenvalues --   -0.60950  -0.54627  -0.53679  -0.52171  -0.49389
  Beta virt. eigenvalues --   -0.46249  -0.45812  -0.43751  -0.41837  -0.41492

 Mulliken charges and spin densities:
               1          2
     1  C   -0.208527  -0.031928
     2  C    0.721425   0.045806
     3  C    0.540164   0.815762
     4  H    0.372454  -0.004076
     5  H    0.310484   0.014068
     6  C    0.147686   0.150338
     7  H    0.343065   0.030663
     8  C    0.340886  -0.031271
     9  H    0.432363   0.010639
 Sum of Mulliken charges =   3.00000   1.00000

 Dipole moment (field-independent basis, Debye):
    X=             -0.8647    Y=              1.1975    Z=             -0.0180  Tot=              1.4772
 Quadrupole moment (field-independent basis, Debye-Ang):
   XX=              5.5668   YY=             -6.3828   ZZ=            -18.5765
   XY=             -0.5903   XZ=              0.1412   YZ=             -0.8846

  Exact polarizability:  52.266  -1.154  40.855   0.482  -0.220  25.437
 Approx polarizability: 100.319  -7.794  96.167   0.294   4.082  39.853

                      1                      2                      3
                      A                      A                      A
 Frequencies --    245.8950               301.5505               404.4253
 Red. masses --      2.7416                 3.8422                 2.9555
 Frc consts  --      0.0977                 0.2058                 0.2848
 IR Inten    --      3.6593                 8.2727                 9.9325

                      4                      5                      6
                      A                      A                      A
 Frequencies --    459.9567               561.5573               654.8974
 Red. masses --      6.8853                 6.0001                 2.5626
 Frc consts  --      0.8582                 1.1148                 0.6476
 IR Inten    --     10.9075                25.5819                32.9619

                      7                      8                      9
                      A                      A                      A
 Frequencies --    771.3445               865.7644               888.5391
 Red. masses --      1.4566                 1.6444                 1.3918
 Frc consts  --      0.5106                 0.7262                 0.6474
 IR Inten    --     40.6000                11.1977                11.7544

                     10                     11                     12
                      A                      A                      A
 Frequencies --    946.6379               967.5746              1009.8176
 Red. masses --      2.7562                 1.3690                 1.2918
 Frc consts  --      1.4552                 0.7551                 0.7761
 IR Inten    --     29.2693                37.7132                13.5362

                     13                     14                     15
                      A                      A                      A
 Frequencies --   1083.9568              1158.1915              1187.1828
 Red. masses --      1.3417                 1.2694                 1.4226
 Frc consts  --      0.9288                 1.0033                 1.1813
 IR Inten    --     42.6697                49.3548               103.2228

                     16                     17                     18
                      A                      A                      A
 Frequencies --   1294.6437              1575.4956              2607.2060
 Red. masses --      2.6955                 6.1941                 1.0760
 Frc consts  --      2.6619                 9.0587                 4.3095
 IR Inten    --     78.5500               132.7263               706.7144

                     19                     20                     21
                      A                      A                      A
 Frequencies --   2673.5928              2810.2584              2844.8553
 Red. masses --      1.0874                 1.0889                 1.1188
 Frc consts  --      4.5798                 5.0669                 5.3348
 IR Inten    --    455.2610               636.0570               399.2182

 - Thermochemistry -
 -------------------
 Temperature   298.150 Kelvin.  Pressure   1.00000 Atm.
 Atom     1 has atomic number  6 and mass  12.00000

 Molecular mass:    64.03130 amu.
 Principal axes and moments of inertia in atomic units:
                           1         2         3
     Eigenvalues --   147.78580 260.38321 382.12774
           X            0.99988   0.01408   0.00676
           Y           -0.01384   0.99932  -0.03419
           Z           -0.00724   0.03410   0.99939
 This molecule is an asymmetric top.
 Rotational symmetry number  1.
 Rotational temperatures (Kelvin)      0.58608     0.33264     0.22666
 Rotational constants (GHZ):          12.21187     6.93110     4.72287
 Zero-point vibrational energy     151407.4 (Joules/Mol)
                                   36.18724 (Kcal/Mol)
 Warning -- explicit consideration of   5 degrees of freedom as
           vibrations may cause significant error
 Vibrational temperatures:    353.79   433.86   581.88   661.77   807.95
          (Kelvin)            942.25  1109.79  1245.64  1278.41  1362.00
                             1392.12  1452.90  1559.57  1666.38  1708.09
                             1862.70  2266.78  3751.18  3846.70  4043.33
                             4093.11

 Zero-point correction=                           0.057668 (Hartree/Particle)
 Thermal correction to Energy=                    0.062693
 Thermal correction to Enthalpy=                  0.063637
 Thermal correction to Gibbs Free Energy=         0.030007
 Sum of electronic and zero-point Energies=           -190.978951
 Sum of electronic and thermal Energies=              -190.973926
 Sum of electronic and thermal Enthalpies=            -190.972982
 Sum of electronic and thermal Free Energies=         -191.006612

                     E (Thermal)             CV                S
                      KCal/Mol        Cal/Mol-Kelvin    Cal/Mol-Kelvin
 Total                   39.340             18.169             70.780
 Electronic               0.000              0.000              1.377
 Translational            0.889              2.981             38.389
 Rotational               0.889              2.981             24.201
 Vibrational             37.563             12.208              6.812
 Vibration     1          0.660              1.770              1.760
 Vibration     2          0.694              1.671              1.408
 Vibration     3          0.770              1.461              0.947
 Vibration     4          0.818              1.339              0.766
 Vibration     5          0.917              1.114              0.521

 Optimization completed.
    -- Stationary point found.
 Normal termination of Gaussian 09 at Mon Jun 20 11:27:40 2016.
