 Gaussian 09, Revision E.01,
 Gaussian 09:  EM64L-G09RevE.01 30-Nov-2015

 ---------------------------------------------
 #p b3lyp/6-311++G(3df,2p) freq symmetry=Loose
 ---------------------------------------------

 ---------
 b3lyp opt
 ---------
 Symbolic Z-matrix:
 Charge =  2 Multiplicity = 1

                         Standard orientation:
 ---------------------------------------------------------------------
 Center     Atomic      Atomic             Coordinates (Angstroms)
 Number     Number       Type             X           Y           Z
 ---------------------------------------------------------------------
      1          6           0        1.095347    0.491239   -0.197548
      2          1           0        1.329356    1.467003   -0.647542
      3          6           0       -0.169437    0.267606    0.122597
      4          1           0        1.897006   -1.430293    0.497326
      5          6           0        2.107175   -0.461513    0.047848
      6          1           0        3.138529   -0.225596   -0.216297
      7          6           0       -1.454011    0.096580    0.402927
      8          1           0       -1.921232    0.371150    1.377413
      9          6           0       -2.319684   -0.424290   -0.544307
 ---------------------------------------------------------------------

 SCF Done:  E(RB3LYP) =  -191.916469437     A.U. after   13 cycles

 The electronic state is 1-A.
 Alpha  occ. eigenvalues --  -10.79031 -10.76958 -10.71041 -10.67747 -10.67289
 Alpha  occ. eigenvalues --   -1.33340  -1.27152  -1.15052  -1.08120  -0.97562
 Alpha  occ. eigenvalues --   -0.95823  -0.91976  -0.85003  -0.80556  -0.80065
 Alpha  occ. eigenvalues --   -0.76017
 Alpha virt. eigenvalues --   -0.60144  -0.59565  -0.57020  -0.42145  -0.41773
 Alpha virt. eigenvalues --   -0.32650  -0.29222  -0.28321  -0.26592  -0.25051
 Alpha virt. eigenvalues --   -0.24257  -0.23277  -0.22673  -0.20722  -0.20147

 Mulliken charges:
               1
     1  C    0.196357
     2  H    0.251615
     3  C    0.611139
     4  H    0.275572
     5  C   -0.207309
     6  H    0.293874
     7  C    0.254792
     8  H    0.262471
     9  C    0.061488
 Sum of Mulliken charges =   2.00000

 Dipole moment (field-independent basis, Debye):
    X=              1.3603    Y=             -0.0833    Z=              1.0265  Tot=              1.7062
 Quadrupole moment (field-independent basis, Debye-Ang):
   XX=             12.7630   YY=            -19.9075   ZZ=            -21.5064
   XY=             -2.0504   XZ=             -3.7828   YZ=             -0.9608

  Exact polarizability:  94.761   0.757  35.870   0.126  -0.183  33.354
 Approx polarizability: 183.151   5.949  57.013   2.984   2.761  54.449

                      1                      2                      3
                      A                      A                      A
 Frequencies --    124.3947               176.3585               220.1337
 Red. masses --      5.3518                 3.1053                 3.1119
 Frc consts  --      0.0488                 0.0569                 0.0888
 IR Inten    --      1.8258                 0.4242                 7.4318

                      4                      5                      6
                      A                      A                      A
 Frequencies --    320.8834               542.4478               573.6996
 Red. masses --      1.5548                 2.5036                 2.3473
 Frc consts  --      0.0943                 0.4340                 0.4552
 IR Inten    --     11.2625                11.6485                20.8525

                      7                      8                      9
                      A                      A                      A
 Frequencies --    693.1716               894.8256               897.4455
 Red. masses --      1.9086                 2.6517                 1.1908
 Frc consts  --      0.5403                 1.2510                 0.5651
 IR Inten    --     16.7837                 3.0514                41.1230

                     10                     11                     12
                      A                      A                      A
 Frequencies --    970.0098              1048.6531              1173.8284
 Red. masses --      1.2998                 1.4812                 1.3747
 Frc consts  --      0.7205                 0.9597                 1.1160
 IR Inten    --      5.7725                 8.2183                 5.6587

                     13                     14                     15
                      A                      A                      A
 Frequencies --   1215.3740              1314.0507              1455.3370
 Red. masses --      1.8921                 2.1625                 2.8432
 Frc consts  --      1.6467                 2.2001                 3.5480
 IR Inten    --    195.5110               313.9622               152.4904

                     16                     17                     18
                      A                      A                      A
 Frequencies --   1512.3782              1872.4435              2861.0238
 Red. masses --      1.5787                11.0783                 1.0830
 Frc consts  --      2.1275                22.8844                 5.2232
 IR Inten    --     19.5609              1125.3916               403.2345

                     19                     20                     21
                      A                      A                      A
 Frequencies --   3007.1228              3090.7970              3205.4613
 Red. masses --      1.0850                 1.0584                 1.1249
 Frc consts  --      5.7807                 5.9572                 6.8102
 IR Inten    --    192.0826                70.2939                70.7346

 - Thermochemistry -
 -------------------
 Temperature   298.150 Kelvin.  Pressure   1.00000 Atm.
 Atom     1 has atomic number  6 and mass  12.00000

 Molecular mass:    64.03130 amu.
 Principal axes and moments of inertia in atomic units:
                           1         2         3
     Eigenvalues --    77.53029 661.70136 678.59113
           X            0.99973  -0.01721  -0.01530
           Y            0.01328   0.97362  -0.22779
           Z            0.01882   0.22753   0.97359
 This molecule is an asymmetric top.
 Rotational symmetry number  1.
 Rotational temperatures (Kelvin)      1.11716     0.13090     0.12764
 Rotational constants (GHZ):          23.27788     2.72743     2.65954
 Zero-point vibrational energy     162511.7 (Joules/Mol)
                                   38.84124 (Kcal/Mol)
 Warning -- explicit consideration of   6 degrees of freedom as
           vibrations may cause significant error
 Vibrational temperatures:    178.98   253.74   316.72   461.68   780.46
          (Kelvin)            825.42   997.32  1287.45  1291.22  1395.63
                             1508.78  1688.88  1748.65  1890.62  2093.90
                             2175.97  2694.03  4116.37  4326.57  4446.96
                             4611.94

 Zero-point correction=                           0.061897 (Hartree/Particle)
 Thermal correction to Energy=                    0.067665
 Thermal correction to Enthalpy=                  0.068609
 Thermal correction to Gibbs Free Energy=         0.033410
 Sum of electronic and zero-point Energies=           -191.854572
 Sum of electronic and thermal Energies=              -191.848804
 Sum of electronic and thermal Enthalpies=            -191.847860
 Sum of electronic and thermal Free Energies=         -191.883060

                     E (Thermal)             CV                S
                      KCal/Mol        Cal/Mol-Kelvin    Cal/Mol-Kelvin
 Total                   42.461             18.780             74.084
 Electronic               0.000              0.000              0.000
 Translational            0.889              2.981             38.389
 Rotational               0.889              2.981             25.057
 Vibrational             40.683             12.818             10.637
 Vibration     1          0.610              1.929              3.031
 Vibration     2          0.628              1.871              2.367
 Vibration     3          0.647              1.810              1.958
 Vibration     4          0.706              1.634              1.306
 Vibration     5          0.898              1.156              0.560
 Vibration     6          0.930              1.088              0.497

 Optimization completed.
    -- Stationary point found.
 Normal termination of Gaussian 09 at Mon Jun 20 08:02:54 2016.
