 Gaussian 09, Revision E.01,
 Gaussian 09:  EM64L-G09RevE.01 30-Nov-2015

 ---------------------------------------------
 #p b3lyp/6-311++G(3df,2p) freq symmetry=Loose
 ---------------------------------------------

 ---------
 b3lyp opt
 ---------
 Symbolic Z-matrix:
 Charge =  1 Multiplicity = 2

                         Standard orientation:
 ---------------------------------------------------------------------
 Center     Atomic      Atomic             Coordinates (Angstroms)
 Number     Number       Type             X           Y           Z
 ---------------------------------------------------------------------
      1          6           0       -1.031336   -0.621019    0.152335
      2          1           0       -1.183628   -0.881296    1.215433
      3          1           0       -1.123498   -1.546239   -0.421134
      4          6           0       -1.944855    0.412408   -0.278499
      5          1           0       -2.167465    1.430889    0.013977
      6          6           0        0.354478   -0.070702    0.064633
      7          6           0        1.280009    0.938274    0.164520
      8          6           0        1.681309   -0.317915   -0.168333
      9          1           0        2.436962   -1.049625   -0.416214
 ---------------------------------------------------------------------

 SCF Done:  E(UB3LYP) =  -192.397719236     A.U. after   22 cycles

 The electronic state is 2-A.
 Alpha  occ. eigenvalues --  -10.49264 -10.47744 -10.46599 -10.45633 -10.44116
 Alpha  occ. eigenvalues --   -1.18411  -1.04233  -0.86227  -0.81881  -0.75564
 Alpha  occ. eigenvalues --   -0.70411  -0.69160  -0.64431  -0.61297  -0.59681
 Alpha  occ. eigenvalues --   -0.48631  -0.44186
 Alpha virt. eigenvalues --   -0.38387  -0.26662  -0.23341  -0.15610  -0.13662
 Alpha virt. eigenvalues --   -0.12253  -0.11675  -0.10205  -0.08935  -0.08026
 Alpha virt. eigenvalues --   -0.07022  -0.06102  -0.04937  -0.04349  -0.03841

  Beta  occ. eigenvalues --  -10.49338 -10.47925 -10.46560 -10.44177 -10.44050
  Beta  occ. eigenvalues --   -1.19025  -1.02539  -0.82596  -0.81957  -0.75082
  Beta  occ. eigenvalues --   -0.70263  -0.68994  -0.64493  -0.61094  -0.60155
  Beta  occ. eigenvalues --   -0.50101
  Beta virt. eigenvalues --   -0.30756  -0.29416  -0.26098  -0.24569  -0.15571
  Beta virt. eigenvalues --   -0.13520  -0.12142  -0.11450  -0.10139  -0.08741
  Beta virt. eigenvalues --   -0.07990  -0.06894  -0.05915  -0.04884  -0.04286

 Mulliken charges and spin densities:
               1          2
     1  C   -0.017398  -0.140616
     2  H    0.222661   0.048930
     3  H    0.196714   0.032560
     4  C   -0.270160   1.631939
     5  H    0.260956   0.009961
     6  C    0.105242   0.068998
     7  C   -0.052078  -0.552227
     8  C    0.238784  -0.095906
     9  H    0.315279  -0.003640
 Sum of Mulliken charges =   1.00000   1.00000

 Dipole moment (field-independent basis, Debye):
    X=             -0.2243    Y=             -1.7498    Z=              0.1458  Tot=              1.7701
 Quadrupole moment (field-independent basis, Debye-Ang):
   XX=            -12.7521   YY=            -23.1155   ZZ=            -26.0054
   XY=             -4.5542   XZ=             -2.2325   YZ=              0.0331

  Exact polarizability: 138.998  12.260  46.981   6.138   1.861  33.997
 Approx polarizability: 323.148  49.446  81.075  24.447   7.177  53.196

                      1                      2                      3
                      A                      A                      A
 Frequencies --     73.4550               214.8018               308.1031
 Red. masses --      2.5040                 4.8246                 2.0635
 Frc consts  --      0.0080                 0.1312                 0.1154
 IR Inten    --      9.2927                 0.5237                10.1474

                      4                      5                      6
                      A                      A                      A
 Frequencies --    399.9730               440.2894               724.2705
 Red. masses --      1.4630                 3.7577                 1.2783
 Frc consts  --      0.1379                 0.4292                 0.3951
 IR Inten    --     12.3194                30.4877                 5.8226

                      7                      8                      9
                      A                      A                      A
 Frequencies --    742.5325               890.1834               943.1845
 Red. masses --      4.5188                 1.4883                 1.5935
 Frc consts  --      1.4679                 0.6948                 0.8352
 IR Inten    --      0.3581               158.4463               174.7347

                     10                     11                     12
                      A                      A                      A
 Frequencies --    968.4864              1053.3812              1161.4896
 Red. masses --      1.2875                 2.7504                 1.2333
 Frc consts  --      0.7115                 1.7981                 0.9803
 IR Inten    --     18.7023               308.1238                 6.3391

                     13                     14                     15
                      A                      A                      A
 Frequencies --   1178.9704              1242.5576              1327.2544
 Red. masses --      7.3764                 3.6128                 1.7425
 Frc consts  --      6.0408                 3.2865                 1.8086
 IR Inten    --    277.0645                18.2757                19.3716

                     16                     17                     18
                      A                      A                      A
 Frequencies --   1388.4824              1684.4798              2924.8556
 Red. masses --      1.1005                 7.7876                 1.0688
 Frc consts  --      1.2501                13.0193                 5.3871
 IR Inten    --     28.3544                 5.1184                40.6081

                     19                     20                     21
                      A                      A                      A
 Frequencies --   3060.7533              3204.5204              3240.9651
 Red. masses --      1.0859                 1.0924                 1.1173
 Frc consts  --      5.9937                 6.6094                 6.9147
 IR Inten    --      8.9797                99.5781                64.9251

 - Thermochemistry -
 -------------------
 Temperature   298.150 Kelvin.  Pressure   1.00000 Atm.
 Atom     1 has atomic number  6 and mass  12.00000

 Molecular mass:    64.03130 amu.
 Principal axes and moments of inertia in atomic units:
                           1         2         3
     Eigenvalues --   101.64223 465.75433 540.74806
           X            0.99949  -0.02733  -0.01641
           Y            0.02739   0.99962   0.00332
           Z            0.01631  -0.00377   0.99986
 This molecule is an asymmetric top.
 Rotational symmetry number  1.
 Rotational temperatures (Kelvin)      0.85214     0.18596     0.16017
 Rotational constants (GHZ):          17.75582     3.87488     3.33749
 Zero-point vibrational energy     162530.6 (Joules/Mol)
                                   38.84574 (Kcal/Mol)
 Warning -- explicit consideration of   5 degrees of freedom as
           vibrations may cause significant error
 Vibrational temperatures:    105.69   309.05   443.29   575.47   633.48
          (Kelvin)           1042.06  1068.34  1280.77  1357.03  1393.43
                             1515.58  1671.12  1696.27  1787.76  1909.62
                             1997.71  2423.59  4208.21  4403.74  4610.58
                             4663.02

 Zero-point correction=                           0.061905 (Hartree/Particle)
 Thermal correction to Energy=                    0.067499
 Thermal correction to Enthalpy=                  0.068443
 Thermal correction to Gibbs Free Energy=         0.032856
 Sum of electronic and zero-point Energies=           -192.335815
 Sum of electronic and thermal Energies=              -192.330220
 Sum of electronic and thermal Enthalpies=            -192.329276
 Sum of electronic and thermal Free Energies=         -192.364864

                     E (Thermal)             CV                S
                      KCal/Mol        Cal/Mol-Kelvin    Cal/Mol-Kelvin
 Total                   42.356             18.397             74.900
 Electronic               0.000              0.000              1.377
 Translational            0.889              2.981             38.389
 Rotational               0.889              2.981             24.752
 Vibrational             40.579             12.436             10.381
 Vibration     1          0.599              1.967              4.059
 Vibration     2          0.645              1.818              2.002
 Vibration     3          0.698              1.658              1.373
 Vibration     4          0.766              1.470              0.963
 Vibration     5          0.800              1.382              0.826

 Optimization completed.
    -- Stationary point found.
 Normal termination of Gaussian 09 at Mon Jun 20 05:34:35 2016.
