 Gaussian 09, Revision E.01,
 Gaussian 09:  EM64L-G09RevE.01 30-Nov-2015

 ---------------------------------------------
 #p b3lyp/6-311++G(3df,2p) freq symmetry=Loose
 ---------------------------------------------

 ---------
 b3lyp opt
 ---------
 Symbolic Z-matrix:
 Charge =  2 Multiplicity = 1

                         Standard orientation:
 ---------------------------------------------------------------------
 Center     Atomic      Atomic             Coordinates (Angstroms)
 Number     Number       Type             X           Y           Z
 ---------------------------------------------------------------------
      1          6           0        0.273016    1.431581    0.686010
      2          6           0       -0.063656    0.309622    0.000000
      3          1           0        0.429498    1.967740    1.618776
      4          6           0       -0.515717   -1.111339    0.000000
      5          1           0       -1.148525   -1.404903   -0.902078
      6          1           0       -1.148525   -1.404903    0.902078
      7          6           0        0.273016   -2.249056   -0.000000
      8          6           0        0.273016    1.431581   -0.686010
      9          1           0        0.429498    1.967740   -1.618776
 ---------------------------------------------------------------------

 SCF Done:  E(RB3LYP) =  -191.923548009     A.U. after   12 cycles

 The electronic state is 1-A'.
 Alpha  occ. eigenvalues --  -10.81668 -10.72282 -10.69644 -10.69349 -10.69287
 Alpha  occ. eigenvalues --   -1.41225  -1.31757  -1.09672  -1.03552  -0.99013
 Alpha  occ. eigenvalues --   -0.96288  -0.93914  -0.85017  -0.82878  -0.82060
 Alpha  occ. eigenvalues --   -0.78226
 Alpha virt. eigenvalues --   -0.59321  -0.57224  -0.48792  -0.46901  -0.34177
 Alpha virt. eigenvalues --   -0.33398  -0.30279  -0.29200  -0.28025  -0.26992
 Alpha virt. eigenvalues --   -0.26163  -0.24100  -0.22203  -0.22092  -0.20335

 Mulliken charges:
               1
     1  C    0.212773
     2  C    0.143309
     3  H    0.359329
     4  C   -0.042762
     5  H    0.312951
     6  H    0.312951
     7  C    0.129349
     8  C    0.212773
     9  H    0.359329
 Sum of Mulliken charges =   2.00000

 Dipole moment (field-independent basis, Debye):
    X=             -1.0707    Y=             -0.5756    Z=             -0.0000  Tot=              1.2156
 Quadrupole moment (field-independent basis, Debye-Ang):
   XX=            -20.4482   YY=              1.5387   ZZ=            -14.9555
   XY=              6.5175   XZ=             -0.0000   YZ=             -0.0000

  Exact polarizability:  31.062   2.739  56.240   0.000  -0.000  37.889
 Approx polarizability:  51.759   0.822  84.125  -0.000   0.000  60.997

                      1                      2                      3
                     A"                     A'                     A"
 Frequencies --     59.6859               204.7162               297.9971
 Red. masses --      2.5001                 7.0268                 1.5813
 Frc consts  --      0.0052                 0.1735                 0.0827
 IR Inten    --      2.7768                 3.9986                 8.2701

                      4                      5                      6
                     A"                     A'                     A'
 Frequencies --    405.1796               447.4262               677.2935
 Red. masses --      2.5289                 3.0798                 4.6025
 Frc consts  --      0.2446                 0.3633                 1.2439
 IR Inten    --      0.5470                18.8923                 3.1548

                      7                      8                      9
                     A'                     A'                     A"
 Frequencies --    852.5794               934.6078               955.0605
 Red. masses --      1.1970                 1.4813                 1.1563
 Frc consts  --      0.5127                 0.7624                 0.6214
 IR Inten    --     31.6186                12.7893                 0.9564

                     10                     11                     12
                     A'                     A"                     A"
 Frequencies --    971.1271              1017.2725              1059.6952
 Red. masses --      1.1766                 1.4164                 1.3828
 Frc consts  --      0.6538                 0.8636                 0.9149
 IR Inten    --     39.5353                 0.0667                13.4556

                     13                     14                     15
                     A'                     A'                     A"
 Frequencies --   1230.8415              1289.2129              1339.1705
 Red. masses --      1.1026                 6.6303                 6.0791
 Frc consts  --      0.9841                 6.4928                 6.4234
 IR Inten    --     68.7181               116.5149                43.6092

                     16                     17                     18
                     A'                     A'                     A'
 Frequencies --   1435.3559              1752.7223              2667.6588
 Red. masses --      5.8531                 6.5038                 1.0556
 Frc consts  --      7.1049                11.7718                 4.4261
 IR Inten    --    330.6541                 4.7890               234.5608

                     19                     20                     21
                     A"                     A"                     A'
 Frequencies --   2671.1485              3175.5197              3206.7640
 Red. masses --      1.0875                 1.1049                 1.1467
 Frc consts  --      4.5718                 6.5644                 6.9475
 IR Inten    --    214.1406               185.2894               103.0605

 - Thermochemistry -
 -------------------
 Temperature   298.150 Kelvin.  Pressure   1.00000 Atm.
 Atom     1 has atomic number  6 and mass  12.00000

 Molecular mass:    64.03130 amu.
 Principal axes and moments of inertia in atomic units:
                           1         2         3
     Eigenvalues --    91.81460 523.31270 561.60434
           X            0.10420   0.00000   0.99456
           Y            0.99456   0.00000  -0.10420
           Z            0.00000   1.00000   0.00000
 This molecule is an asymmetric top.
 Rotational symmetry number  1.
 Rotational temperatures (Kelvin)      0.94336     0.16551     0.15423
 Rotational constants (GHZ):          19.65636     3.44869     3.21355
 Zero-point vibrational energy     159408.6 (Joules/Mol)
                                   38.09957 (Kcal/Mol)
 Warning -- explicit consideration of   5 degrees of freedom as
           vibrations may cause significant error
 Vibrational temperatures:     85.87   294.54   428.75   582.96   643.75
          (Kelvin)            974.47  1226.67  1344.69  1374.12  1397.23
                             1463.63  1524.66  1770.90  1854.89  1926.77
                             2065.15  2521.77  3838.16  3843.18  4568.86
                             4613.81

 Zero-point correction=                           0.060716 (Hartree/Particle)
 Thermal correction to Energy=                    0.066336
 Thermal correction to Enthalpy=                  0.067280
 Thermal correction to Gibbs Free Energy=         0.032103
 Sum of electronic and zero-point Energies=           -191.862832
 Sum of electronic and thermal Energies=              -191.857212
 Sum of electronic and thermal Enthalpies=            -191.856268
 Sum of electronic and thermal Free Energies=         -191.891445

                     E (Thermal)             CV                S
                      KCal/Mol        Cal/Mol-Kelvin    Cal/Mol-Kelvin
 Total                   41.627             18.276             74.037
 Electronic               0.000              0.000              0.000
 Translational            0.889              2.981             38.389
 Rotational               0.889              2.981             24.804
 Vibrational             39.849             12.314             10.843
 Vibration     1          0.597              1.974              4.468
 Vibration     2          0.640              1.833              2.090
 Vibration     3          0.691              1.677              1.428
 Vibration     4          0.770              1.459              0.944
 Vibration     5          0.807              1.367              0.804

 Optimization completed.
    -- Stationary point found.
 Normal termination of Gaussian 09 at Tue Jul 19 20:49:15 2016.
