 Gaussian 09, Revision E.01,
 Gaussian 09:  EM64L-G09RevE.01 30-Nov-2015

 ---------------------------------------------
 #p b3lyp/6-311++G(3df,2p) freq symmetry=Loose
 ---------------------------------------------

 ---------
 b3lyp opt
 ---------
 Symbolic Z-matrix:
 Charge =  3 Multiplicity = 4

                         Standard orientation:
 ---------------------------------------------------------------------
 Center     Atomic      Atomic             Coordinates (Angstroms)
 Number     Number       Type             X           Y           Z
 ---------------------------------------------------------------------
      1          6           0        0.181748   -0.014051   -0.000086
      2          6           0       -1.077571   -0.014681   -0.000070
      3          6           0       -2.510166    0.089573   -0.000023
      4          1           0       -2.954740    1.107111    0.000052
      5          1           0       -3.139213   -0.722642   -0.646242
      6          1           0       -3.139206   -0.722627    0.646250
      7          6           0        1.500197   -0.008493    0.000073
      8          6           0        2.793615    0.002082    0.000068
      9          1           0        3.906219    0.011578    0.000155
 ---------------------------------------------------------------------

 SCF Done:  E(UB3LYP) =  -191.119722622     A.U. after   17 cycles

 The electronic state is 4-A.
 Alpha  occ. eigenvalues --  -10.97836 -10.96737 -10.95873 -10.92983 -10.92779
 Alpha  occ. eigenvalues --   -1.53238  -1.49444  -1.43037  -1.34081  -1.21274
 Alpha  occ. eigenvalues --   -1.17816  -1.12421  -1.08274  -1.05167  -1.03725
 Alpha  occ. eigenvalues --   -0.96290  -0.94622
 Alpha virt. eigenvalues --   -0.74371  -0.74169  -0.57315  -0.56128  -0.54006
 Alpha virt. eigenvalues --   -0.50553  -0.48946  -0.46560  -0.45769  -0.41698
 Alpha virt. eigenvalues --   -0.40791  -0.39135  -0.38802  -0.37705  -0.36238

  Beta  occ. eigenvalues --  -10.96287 -10.95713 -10.95244 -10.92671 -10.91866
  Beta  occ. eigenvalues --   -1.49971  -1.44901  -1.39244  -1.31748  -1.18646
  Beta  occ. eigenvalues --   -1.16236  -1.10324  -1.01855  -1.01256
  Beta virt. eigenvalues --   -0.90796  -0.85396  -0.82298  -0.69196  -0.67908
  Beta virt. eigenvalues --   -0.52987  -0.52271  -0.51367  -0.48103  -0.45704
  Beta virt. eigenvalues --   -0.44255  -0.44156  -0.40905  -0.39900  -0.38325

 Mulliken charges and spin densities:
               1          2
     1  C   -0.167809   0.734262
     2  C    0.908299   0.236296
     3  C   -0.230441   0.521791
     4  H    0.359866   0.010080
     5  H    0.338128   0.158725
     6  H    0.338136   0.158746
     7  C    0.373646   0.628574
     8  C    0.589127   0.579562
     9  H    0.491047  -0.028036
 Sum of Mulliken charges =   3.00000   3.00000

 Dipole moment (field-independent basis, Debye):
    X=             -2.1323    Y=             -1.0468    Z=              0.0003  Tot=              2.3754
 Quadrupole moment (field-independent basis, Debye-Ang):
   XX=             80.2574   YY=            -19.4558   ZZ=            -21.4125
   XY=              3.8599   XZ=              0.0016   YZ=              0.0000

  Exact polarizability: 140.774   2.159  26.211   0.002  -0.000  24.753
 Approx polarizability: 310.733   3.894  36.602   0.006  -0.000  35.135

                      1                      2                      3
                      A                      A                      A
 Frequencies --    147.6652               148.4594               330.5399
 Red. masses --      3.5161                 3.3031                 3.3819
 Frc consts  --      0.0452                 0.0429                 0.2177
 IR Inten    --     49.3539                49.8127                 4.9485

                      4                      5                      6
                      A                      A                      A
 Frequencies --    340.3633               432.7248               537.3936
 Red. masses --      3.5037                 1.0498                 4.7115
 Frc consts  --      0.2391                 0.1158                 0.8017
 IR Inten    --      0.7062                38.5065                10.0113

                      7                      8                      9
                      A                      A                      A
 Frequencies --    540.1818               651.3015               692.6467
 Red. masses --      5.2200                 3.4286                 1.4545
 Frc consts  --      0.8974                 0.8569                 0.4111
 IR Inten    --      9.1715               132.2811                15.3719

                     10                     11                     12
                      A                      A                      A
 Frequencies --    731.1828               771.7560               780.8130
 Red. masses --      1.3826                 1.6039                 1.5975
 Frc consts  --      0.4355                 0.5628                 0.5738
 IR Inten    --     17.6014               263.6738                87.3129

                     13                     14                     15
                      A                      A                      A
 Frequencies --    899.7788              1085.6263              1322.7195
 Red. masses --      2.1615                 1.8489                 1.1171
 Frc consts  --      1.0310                 1.2839                 1.1515
 IR Inten    --    726.5909                12.4739                20.3749

                     16                     17                     18
                      A                      A                      A
 Frequencies --   1739.3903              1833.5381              2154.7339
 Red. masses --      6.9943                 1.0294                10.4840
 Frc consts  --     12.4678                 2.0390                28.6791
 IR Inten    --    270.1530               331.4063                51.8804

                     19                     20                     21
                      A                      A                      A
 Frequencies --   2310.8728              2905.1370              2969.8153
 Red. masses --      1.1173                 1.0874                 1.1534
 Frc consts  --      3.5152                 5.4070                 5.9938
 IR Inten    --   1156.1099               466.7489               720.3134

 - Thermochemistry -
 -------------------
 Temperature   298.150 Kelvin.  Pressure   1.00000 Atm.
 Atom     1 has atomic number  6 and mass  12.00000

 Molecular mass:    64.03130 amu.
 Principal axes and moments of inertia in atomic units:
                           1         2         3
     Eigenvalues --    11.51066 910.81003 916.30842
           X            0.99999   0.00527  -0.00002
           Y           -0.00527   0.99999  -0.00006
           Z            0.00002   0.00006   1.00000
 This molecule is an asymmetric top.
 Rotational symmetry number  1.
 Rotational temperatures (Kelvin)      7.52466     0.09510     0.09452
 Rotational constants (GHZ):         156.78868     1.98147     1.96958
 Zero-point vibrational energy     139524.3 (Joules/Mol)
                                   33.34711 (Kcal/Mol)
 Warning -- explicit consideration of   7 degrees of freedom as
           vibrations may cause significant error
 Vibrational temperatures:    212.46   213.60   475.57   489.71   622.59
          (Kelvin)            773.19   777.20   937.08   996.56  1052.01
                             1110.38  1123.41  1294.58  1561.97  1903.10
                             2502.59  2638.05  3100.18  3324.83  4179.84
                             4272.90

 Zero-point correction=                           0.053142 (Hartree/Particle)
 Thermal correction to Energy=                    0.059312
 Thermal correction to Enthalpy=                  0.060256
 Thermal correction to Gibbs Free Energy=         0.023947
 Sum of electronic and zero-point Energies=           -191.066581
 Sum of electronic and thermal Energies=              -191.060411
 Sum of electronic and thermal Enthalpies=            -191.059467
 Sum of electronic and thermal Free Energies=         -191.095776

                     E (Thermal)             CV                S
                      KCal/Mol        Cal/Mol-Kelvin    Cal/Mol-Kelvin
 Total                   37.219             21.624             76.419
 Electronic               0.000              0.000              2.755
 Translational            0.889              2.981             38.389
 Rotational               0.889              2.981             23.778
 Vibrational             35.441             15.662             11.497
 Vibration     1          0.617              1.905              2.702
 Vibration     2          0.618              1.904              2.692
 Vibration     3          0.713              1.615              1.257
 Vibration     4          0.720              1.595              1.210
 Vibration     5          0.794              1.399              0.850
 Vibration     6          0.892              1.167              0.571
 Vibration     7          0.895              1.161              0.565

 Optimization completed.
    -- Stationary point found.
 Normal termination of Gaussian 09 at Mon Jun 20 12:01:01 2016.
