 Gaussian 09, Revision E.01,
 Gaussian 09:  EM64L-G09RevE.01 30-Nov-2015

 ------------------------------------------------------
 #p b3lyp/6-311++G(3df,2p) freq IOp(2/17=3) IOp(2/18=3)
 ------------------------------------------------------

 ---------
 b3lyp opt
 ---------
 Symbolic Z-matrix:
 Charge =  0 Multiplicity = 3

                         Standard orientation:
 ---------------------------------------------------------------------
 Center     Atomic      Atomic             Coordinates (Angstroms)
 Number     Number       Type             X           Y           Z
 ---------------------------------------------------------------------
      1          6           0        0.971751   -0.662183    0.000000
      2          6           0        0.034857    0.059901    1.001725
      3          1           0        0.030210    0.015221    2.078279
      4          6           0        0.034857    0.059901   -1.001725
      5          1           0        0.030210    0.015221   -2.078279
      6          1           0       -0.786447    1.966170   -0.000000
      7          6           0        0.000000    1.209289   -0.000000
      8          6           0       -0.723698   -0.716912    0.000000
      9          1           0       -1.181042   -1.696603    0.000000
 ---------------------------------------------------------------------

 SCF Done:  E(UB3LYP) =  -192.691281400     A.U. after   16 cycles

 The electronic state is 3-A'.
 Alpha  occ. eigenvalues --  -10.22988 -10.22485 -10.22484 -10.21938 -10.21742
 Alpha  occ. eigenvalues --   -0.99288  -0.69847  -0.68430  -0.61195  -0.54705
 Alpha  occ. eigenvalues --   -0.50610  -0.44590  -0.41805  -0.38245  -0.34098
 Alpha  occ. eigenvalues --   -0.28843  -0.23596  -0.21092
 Alpha virt. eigenvalues --   -0.00532   0.00706   0.00930   0.01426   0.03210
 Alpha virt. eigenvalues --    0.04923   0.06271   0.06970   0.07594   0.07881
 Alpha virt. eigenvalues --    0.08371   0.09825   0.10345   0.10565   0.11112

  Beta  occ. eigenvalues --  -10.22409 -10.22376 -10.22360 -10.20941 -10.20154
  Beta  occ. eigenvalues --   -0.97547  -0.67881  -0.66536  -0.58866  -0.54464
  Beta  occ. eigenvalues --   -0.47452  -0.42412  -0.41021  -0.37167  -0.33058
  Beta  occ. eigenvalues --   -0.25235
  Beta virt. eigenvalues --   -0.11965  -0.06708  -0.00413   0.00735   0.01298
  Beta virt. eigenvalues --    0.02478   0.03991   0.05918   0.06932   0.06970
  Beta virt. eigenvalues --    0.07623   0.08150   0.08565   0.10370   0.10597

 Mulliken charges and spin densities:
               1          2
     1  C   -0.641030   0.713092
     2  C    0.583091  -0.160793
     3  H    0.257429  -0.009394
     4  C    0.583091  -0.160793
     5  H    0.257429  -0.009394
     6  H    0.160742   0.072968
     7  C   -0.749883   1.074005
     8  C   -0.630943   0.436802
     9  H    0.180074   0.043507
 Sum of Mulliken charges =  -0.00000   2.00000

 Dipole moment (field-independent basis, Debye):
    X=             -2.4266    Y=              0.0840    Z=              0.0000  Tot=              2.4281
 Quadrupole moment (field-independent basis, Debye-Ang):
   XX=            -34.5171   YY=            -30.1829   ZZ=            -26.0405
   XY=              1.6406   XZ=              0.0000   YZ=             -0.0000

  Exact polarizability:  57.386  -2.871  59.056   0.000   0.000  49.477
 Approx polarizability: 101.077  -2.469  86.675   0.000   0.000  74.658

                      1                      2                      3
                     A'                     A'                     A"
 Frequencies --    546.7796               566.8646               574.0938
 Red. masses --      3.6307                 4.3017                 7.6711
 Frc consts  --      0.6395                 0.8144                 1.4896
 IR Inten    --      6.2931                31.8300                 0.0408

                      4                      5                      6
                     A'                     A"                     A'
 Frequencies --    652.5650               810.0903               823.1680
 Red. masses --      1.7145                 4.3420                 2.3922
 Frc consts  --      0.4302                 1.6788                 0.9550
 IR Inten    --     98.5577                 0.1224                 8.0288

                      7                      8                      9
                     A'                     A'                     A"
 Frequencies --    844.6930               904.2325               940.8176
 Red. masses --      1.4791                 2.1423                 1.2057
 Frc consts  --      0.6218                 1.0320                 0.6288
 IR Inten    --      4.1912                 4.1243                 6.2892

                     10                     11                     12
                     A'                     A"                     A"
 Frequencies --    943.8097               998.9174              1034.1681
 Red. masses --      2.7309                 1.3175                 1.2759
 Frc consts  --      1.4332                 0.7746                 0.8040
 IR Inten    --      1.4085                 0.6239                 3.1093

                     13                     14                     15
                     A'                     A"                     A'
 Frequencies --   1094.3034              1145.5304              1219.1386
 Red. masses --      1.4392                 1.3639                 2.6989
 Frc consts  --      1.0154                 1.0545                 2.3635
 IR Inten    --     13.1804                 0.0968                 6.9688

                     16                     17                     18
                     A"                     A'                     A'
 Frequencies --   1245.4793              1282.9358              3050.4105
 Red. masses --      2.6261                 2.7928                 1.0858
 Frc consts  --      2.4001                 2.7084                 5.9525
 IR Inten    --     12.3271                 6.3572                21.4458

                     19                     20                     21
                     A'                     A'                     A"
 Frequencies --   3174.8337              3232.8424              3233.2143
 Red. masses --      1.0931                 1.1024                 1.0950
 Frc consts  --      6.4919                 6.7880                 6.7443
 IR Inten    --      4.0415                 0.0222                 6.2640

 - Thermochemistry -
 -------------------
 Temperature   298.150 Kelvin.  Pressure   1.00000 Atm.
 Atom     1 has atomic number  6 and mass  12.00000

 Molecular mass:    64.03130 amu.
 Principal axes and moments of inertia in atomic units:
                           1         2         3
     Eigenvalues --   186.95002 198.12603 245.35884
           X           -0.05971   0.00000   0.99822
           Y            0.99822   0.00000   0.05971
           Z           -0.00000   1.00000  -0.00000
 This molecule is an asymmetric top.
 Rotational symmetry number  1.
 Rotational temperatures (Kelvin)      0.46330     0.43717     0.35301
 Rotational constants (GHZ):           9.65360     9.10906     7.35552
 Zero-point vibrational energy     169384.6 (Joules/Mol)
                                   40.48388 (Kcal/Mol)
 Warning -- explicit consideration of   3 degrees of freedom as
           vibrations may cause significant error
 Vibrational temperatures:    786.69   815.59   825.99   938.89  1165.54
          (Kelvin)           1184.35  1215.32  1300.99  1353.63  1357.93
                             1437.22  1487.94  1574.46  1648.16  1754.07
                             1791.96  1845.86  4388.85  4567.87  4651.33
                             4651.87

 Zero-point correction=                           0.064515 (Hartree/Particle)
 Thermal correction to Energy=                    0.068543
 Thermal correction to Enthalpy=                  0.069487
 Thermal correction to Gibbs Free Energy=         0.037392
 Sum of electronic and zero-point Energies=           -192.626766
 Sum of electronic and thermal Energies=              -192.622739
 Sum of electronic and thermal Enthalpies=            -192.621794
 Sum of electronic and thermal Free Energies=         -192.653889

                     E (Thermal)             CV                S
                      KCal/Mol        Cal/Mol-Kelvin    Cal/Mol-Kelvin
 Total                   43.011             15.207             67.549
 Electronic               0.000              0.000              2.183
 Translational            0.889              2.981             38.389
 Rotational               0.889              2.981             23.723
 Vibrational             41.234              9.246              3.254
 Vibration     1          0.902              1.147              0.551
 Vibration     2          0.923              1.103              0.510
 Vibration     3          0.930              1.087              0.496

 Optimization completed.
    -- Stationary point found.
 Normal termination of Gaussian 09 at Thu Jan 31 07:00:12 2019.
