 Gaussian 09, Revision E.01,
 Gaussian 09:  EM64L-G09RevE.01 30-Nov-2015

 ---------------------------------------------
 #p b3lyp/6-311++G(3df,2p) freq symmetry=Loose
 ---------------------------------------------

 ---------
 b3lyp opt
 ---------
 Symbolic Z-matrix:
 Charge =  3 Multiplicity = 4

                         Standard orientation:
 ---------------------------------------------------------------------
 Center     Atomic      Atomic             Coordinates (Angstroms)
 Number     Number       Type             X           Y           Z
 ---------------------------------------------------------------------
      1          6           0       -1.291740    0.046691   -0.000000
      2          6           0       -0.000000    0.497115   -0.000000
      3          1           0        0.064880    1.610480   -0.000000
      4          6           0       -2.586594   -0.214192    0.000000
      5          1           0       -3.674699   -0.448394    0.000000
      6          6           0        1.177173   -0.289456    0.000000
      7          1           0        1.156056   -1.428174    0.000000
      8          6           0        2.506264   -0.007720    0.000000
      9          1           0        3.623145    0.071456    0.000000
 ---------------------------------------------------------------------

 SCF Done:  E(UB3LYP) =  -191.105909340     A.U. after   16 cycles

 The electronic state is 4-A'.
 Alpha  occ. eigenvalues --  -11.01846 -10.99008 -10.97995 -10.94703 -10.90242
 Alpha  occ. eigenvalues --   -1.54602  -1.50965  -1.42055  -1.27577  -1.21023
 Alpha  occ. eigenvalues --   -1.17700  -1.17440  -1.09468  -1.07195  -1.02441
 Alpha  occ. eigenvalues --   -1.00922  -0.90031
 Alpha virt. eigenvalues --   -0.80825  -0.71956  -0.71012  -0.60165  -0.53991
 Alpha virt. eigenvalues --   -0.50985  -0.49405  -0.47310  -0.43003  -0.42091
 Alpha virt. eigenvalues --   -0.39943  -0.38984  -0.37787  -0.36661  -0.36563

  Beta  occ. eigenvalues --  -11.00606 -10.97938 -10.96155 -10.94423 -10.89658
  Beta  occ. eigenvalues --   -1.51501  -1.45932  -1.38140  -1.25290  -1.19487
  Beta  occ. eigenvalues --   -1.16308  -1.16062  -1.07581  -1.00220
  Beta virt. eigenvalues --   -0.89761  -0.86842  -0.79112  -0.76734  -0.64610
  Beta virt. eigenvalues --   -0.63885  -0.54625  -0.51244  -0.49886  -0.47840
  Beta virt. eigenvalues --   -0.46352  -0.42518  -0.41270  -0.39393  -0.38143

 Mulliken charges and spin densities:
               1          2
     1  C    0.425453   0.737103
     2  C    0.128085   0.427785
     3  H    0.278658   0.029180
     4  C    0.421846   0.973518
     5  H    0.492194  -0.031712
     6  C    0.047006   0.190284
     7  H    0.285368  -0.013581
     8  C    0.408690   0.704082
     9  H    0.512701  -0.016659
 Sum of Mulliken charges =   3.00000   3.00000

 Dipole moment (field-independent basis, Debye):
    X=              1.0516    Y=             -0.9363    Z=              0.0000  Tot=              1.4080
 Quadrupole moment (field-independent basis, Debye-Ang):
   XX=             62.9856   YY=            -14.6415   ZZ=            -24.1321
   XY=              1.9883   XZ=              0.0000   YZ=             -0.0000

  Exact polarizability: 126.131   0.733  31.617  -0.001   0.000  23.400
 Approx polarizability: 255.444   5.247  49.392   0.000  -0.000  32.839

                      1                      2                      3
                     A"                     A'                     A'
 Frequencies --    152.8436               174.3209               319.6450
 Red. masses --      2.9710                 3.4308                 2.8996
 Frc consts  --      0.0409                 0.0614                 0.1746
 IR Inten    --     16.5496                26.7765                 8.6117

                      4                      5                      6
                     A"                     A"                     A"
 Frequencies --    398.8873               414.2414               476.3533
 Red. masses --      1.2541                 2.7879                 1.4330
 Frc consts  --      0.1176                 0.2819                 0.1916
 IR Inten    --     41.2593                29.2394                20.4486

                      7                      8                      9
                     A'                     A'                     A"
 Frequencies --    501.1484               698.3075               698.6911
 Red. masses --      4.4341                 1.3652                 1.1952
 Frc consts  --      0.6561                 0.3922                 0.3438
 IR Inten    --      6.1783                15.8668                75.1587

                     10                     11                     12
                     A"                     A'                     A'
 Frequencies --    732.7924               783.3436               890.9525
 Red. masses --      2.1558                 2.1860                 3.2614
 Frc consts  --      0.6820                 0.7903                 1.5253
 IR Inten    --      0.2985                62.9080               553.2048

                     13                     14                     15
                     A'                     A'                     A'
 Frequencies --    998.5329              1134.2614              1229.9657
 Red. masses --      1.9951                 1.6447                 1.2561
 Frc consts  --      1.1720                 1.2467                 1.1196
 IR Inten    --     47.1313               372.6106                92.7526

                     16                     17                     18
                     A'                     A'                     A'
 Frequencies --   1461.3089              1734.3551              2664.5291
 Red. masses --      3.9558                 7.9940                 1.0804
 Frc consts  --      4.9770                14.1675                 4.5192
 IR Inten    --     33.8295                10.3203               286.3890

                     19                     20                     21
                     A'                     A'                     A'
 Frequencies --   2829.1433              2883.7172              2954.0318
 Red. masses --      1.0800                 1.1098                 1.1343
 Frc consts  --      5.0933                 5.4374                 5.8318
 IR Inten    --    341.6298              1001.3686               587.3205

 - Thermochemistry -
 -------------------
 Temperature   298.150 Kelvin.  Pressure   1.00000 Atm.
 Atom     1 has atomic number  6 and mass  12.00000

 Molecular mass:    64.03130 amu.
 Principal axes and moments of inertia in atomic units:
                           1         2         3
     Eigenvalues --    33.59196 787.42475 821.01671
           X            0.99996  -0.00933   0.00000
           Y            0.00933   0.99996   0.00000
           Z            0.00000  -0.00000   1.00000
 This molecule is an asymmetric top.
 Rotational symmetry number  1.
 Rotational temperatures (Kelvin)      2.57841     0.11000     0.10550
 Rotational constants (GHZ):          53.72539     2.29195     2.19818
 Zero-point vibrational energy     144337.7 (Joules/Mol)
                                   34.49753 (Kcal/Mol)
 Warning -- explicit consideration of   7 degrees of freedom as
           vibrations may cause significant error
 Vibrational temperatures:    219.91   250.81   459.90   573.91   596.00
          (Kelvin)            685.37   721.04  1004.71  1005.26  1054.32
                             1127.06  1281.88  1436.66  1631.95  1769.64
                             2102.49  2495.35  3833.66  4070.50  4149.02
                             4250.19

 Zero-point correction=                           0.054975 (Hartree/Particle)
 Thermal correction to Energy=                    0.061063
 Thermal correction to Enthalpy=                  0.062008
 Thermal correction to Gibbs Free Energy=         0.025528
 Sum of electronic and zero-point Energies=           -191.050934
 Sum of electronic and thermal Energies=              -191.044846
 Sum of electronic and thermal Enthalpies=            -191.043902
 Sum of electronic and thermal Free Energies=         -191.080381

                     E (Thermal)             CV                S
                      KCal/Mol        Cal/Mol-Kelvin    Cal/Mol-Kelvin
 Total                   38.318             21.393             76.778
 Electronic               0.000              0.000              2.755
 Translational            0.889              2.981             38.389
 Rotational               0.889              2.981             24.588
 Vibrational             36.540             15.431             11.045
 Vibration     1          0.619              1.900              2.637
 Vibration     2          0.627              1.874              2.388
 Vibration     3          0.706              1.636              1.312
 Vibration     4          0.765              1.473              0.967
 Vibration     5          0.778              1.439              0.912
 Vibration     6          0.833              1.303              0.720
 Vibration     7          0.857              1.247              0.655

 Optimization completed.
    -- Stationary point found.
 Normal termination of Gaussian 09 at Wed Jul 20 09:09:06 2016.
