 Gaussian 09, Revision E.01,
 Gaussian 09:  EM64L-G09RevE.01 30-Nov-2015

 ---------------------------------------------
 #p b3lyp/6-311++G(3df,2p) freq symmetry=Loose
 ---------------------------------------------

 ---------
 b3lyp opt
 ---------
 Symbolic Z-matrix:
 Charge =  1 Multiplicity = 4

                         Standard orientation:
 ---------------------------------------------------------------------
 Center     Atomic      Atomic             Coordinates (Angstroms)
 Number     Number       Type             X           Y           Z
 ---------------------------------------------------------------------
      1          1           0        1.842775   -0.372922    1.211628
      2          6           0        0.382721   -0.806767   -0.346754
      3          6           0       -0.694848   -0.030143    0.062370
      4          6           0       -2.045572    0.051941    0.087648
      5          1           0       -2.912850   -0.587939    0.075023
      6          6           0        0.447328    0.832111   -0.016191
      7          1           0        0.518511    1.777083   -0.550818
      8          6           0        1.593501   -0.170696    0.171055
      9          1           0        2.452778   -0.074899   -0.484594
 ---------------------------------------------------------------------

 SCF Done:  E(UB3LYP) =  -192.422613135     A.U. after   15 cycles

 The electronic state is 4-A.
 Alpha  occ. eigenvalues --  -10.50723 -10.49630 -10.47360 -10.45776 -10.44608
 Alpha  occ. eigenvalues --   -1.20504  -1.01014  -0.90576  -0.86603  -0.75460
 Alpha  occ. eigenvalues --   -0.73404  -0.69432  -0.66994  -0.64725  -0.59365
 Alpha  occ. eigenvalues --   -0.51556  -0.48385  -0.47528
 Alpha virt. eigenvalues --   -0.27116  -0.21759  -0.14517  -0.13538  -0.12793
 Alpha virt. eigenvalues --   -0.11823  -0.10154  -0.08335  -0.07240  -0.07059
 Alpha virt. eigenvalues --   -0.06316  -0.05284  -0.04694  -0.03452  -0.02824

  Beta  occ. eigenvalues --  -10.48898 -10.48808 -10.47569 -10.44540 -10.43238
  Beta  occ. eigenvalues --   -1.18691  -0.97958  -0.87548  -0.83782  -0.73156
  Beta  occ. eigenvalues --   -0.70146  -0.67787  -0.65216  -0.62596  -0.56527
  Beta virt. eigenvalues --   -0.36953  -0.33668  -0.30860  -0.23063  -0.18120
  Beta virt. eigenvalues --   -0.13780  -0.12975  -0.12263  -0.11181  -0.09635
  Beta virt. eigenvalues --   -0.08119  -0.06807  -0.06207  -0.05207  -0.04514

 Mulliken charges and spin densities:
               1          2
     1  H    0.255683   0.044908
     2  C    0.197094   1.078154
     3  C    0.607853  -0.253557
     4  C   -0.204947   1.572032
     5  H    0.272865  -0.002401
     6  C   -0.068283   0.533532
     7  H    0.249511   0.030102
     8  C   -0.515332  -0.021676
     9  H    0.205556   0.018907
 Sum of Mulliken charges =   1.00000   3.00000

 Dipole moment (field-independent basis, Debye):
    X=              0.3767    Y=              0.3969    Z=             -0.0593  Tot=              0.5504
 Quadrupole moment (field-independent basis, Debye-Ang):
   XX=            -11.1830   YY=            -23.4221   ZZ=            -26.3404
   XY=              2.1114   XZ=              0.0805   YZ=             -1.2980

  Exact polarizability:  72.246   0.399  42.083   0.209   0.505  32.595
 Approx polarizability: 107.763  -0.336  74.718  -0.194   4.334  48.104

                      1                      2                      3
                      A                      A                      A
 Frequencies --    260.4353               347.3891               514.5988
 Red. masses --      2.8617                 2.7742                 1.8700
 Frc consts  --      0.1144                 0.1973                 0.2918
 IR Inten    --      4.0880                12.5464                17.0498

                      4                      5                      6
                      A                      A                      A
 Frequencies --    592.9608               662.7153               731.3452
 Red. masses --      2.1901                 2.5746                 2.1200
 Frc consts  --      0.4537                 0.6662                 0.6681
 IR Inten    --     12.2526                13.5008                 4.2127

                      7                      8                      9
                      A                      A                      A
 Frequencies --    756.3722               849.6108               933.7363
 Red. masses --      3.2205                 1.6461                 1.8847
 Frc consts  --      1.0856                 0.7001                 0.9682
 IR Inten    --     11.5999                31.9591                 1.3236

                     10                     11                     12
                      A                      A                      A
 Frequencies --    995.7753              1047.0909              1057.0621
 Red. masses --      1.7710                 1.2815                 1.7006
 Frc consts  --      1.0346                 0.8278                 1.1196
 IR Inten    --      9.1364                 3.7931                 9.9771

                     13                     14                     15
                      A                      A                      A
 Frequencies --   1085.3681              1190.6953              1246.9515
 Red. masses --      2.4107                 1.5414                 3.7748
 Frc consts  --      1.6732                 1.2876                 3.4581
 IR Inten    --      7.8624                24.7339                 9.7336

                     16                     17                     18
                      A                      A                      A
 Frequencies --   1473.5317              1559.3502              3073.6185
 Red. masses --      1.1571                 7.1682                 1.0584
 Frc consts  --      1.4803                10.2694                 5.8910
 IR Inten    --      7.4673                 2.2460                26.6364

                     19                     20                     21
                      A                      A                      A
 Frequencies --   3132.1527              3171.1633              3258.8973
 Red. masses --      1.0927                 1.1111                 1.0979
 Frc consts  --      6.3160                 6.5832                 6.8702
 IR Inten    --     43.8362                12.9394                76.0227

 - Thermochemistry -
 -------------------
 Temperature   298.150 Kelvin.  Pressure   1.00000 Atm.
 Atom     1 has atomic number  1 and mass   1.00783

 Molecular mass:    64.03130 amu.
 Principal axes and moments of inertia in atomic units:
                           1         2         3
     Eigenvalues --    86.08049 402.68621 461.36174
           X            0.99978   0.02043   0.00369
           Y           -0.02004   0.99606  -0.08643
           Z           -0.00545   0.08633   0.99625
 This molecule is an asymmetric top.
 Rotational symmetry number  1.
 Rotational temperatures (Kelvin)      1.00620     0.21509     0.18774
 Rotational constants (GHZ):          20.96574     4.48176     3.91177
 Zero-point vibrational energy     167123.2 (Joules/Mol)
                                   39.94341 (Kcal/Mol)
 Warning -- explicit consideration of   4 degrees of freedom as
           vibrations may cause significant error
 Vibrational temperatures:    374.71   499.81   740.39   853.14   953.50
          (Kelvin)           1052.24  1088.25  1222.40  1343.44  1432.70
                             1506.53  1520.87  1561.60  1713.14  1794.08
                             2120.08  2243.55  4422.25  4506.46  4562.59
                             4688.82

 Zero-point correction=                           0.063654 (Hartree/Particle)
 Thermal correction to Energy=                    0.068299
 Thermal correction to Enthalpy=                  0.069243
 Thermal correction to Gibbs Free Energy=         0.035544
 Sum of electronic and zero-point Energies=           -192.358959
 Sum of electronic and thermal Energies=              -192.354314
 Sum of electronic and thermal Enthalpies=            -192.353370
 Sum of electronic and thermal Free Energies=         -192.387069

                     E (Thermal)             CV                S
                      KCal/Mol        Cal/Mol-Kelvin    Cal/Mol-Kelvin
 Total                   42.858             16.830             70.925
 Electronic               0.000              0.000              2.755
 Translational            0.889              2.981             38.389
 Rotational               0.889              2.981             24.284
 Vibrational             41.081             10.868              5.497
 Vibration     1          0.668              1.745              1.659
 Vibration     2          0.725              1.581              1.178
 Vibration     3          0.870              1.218              0.623
 Vibration     4          0.951              1.047              0.462

 Optimization completed.
    -- Stationary point found.
 Normal termination of Gaussian 09 at Mon Jun 20 07:05:29 2016.
