 Gaussian 09, Revision E.01,
 Gaussian 09:  EM64L-G09RevE.01 30-Nov-2015

 ------------------------------------------------------
 #p b3lyp/6-311++G(3df,2p) freq IOp(2/17=3) IOp(2/18=3)
 ------------------------------------------------------

 ---------
 b3lyp opt
 ---------
 Symbolic Z-matrix:
 Charge =  1 Multiplicity = 4

                         Standard orientation:
 ---------------------------------------------------------------------
 Center     Atomic      Atomic             Coordinates (Angstroms)
 Number     Number       Type             X           Y           Z
 ---------------------------------------------------------------------
      1          6           0        0.000000    0.000000    1.114211
      2          1           0       -0.878742   -0.000000    1.770383
      3          1           0        0.878742   -0.000000    1.770383
      4          6           0       -0.000037    1.182350    0.178896
      5          1           0       -0.000480    2.219088    0.489910
      6          6           0        0.000036    0.702012   -1.112681
      7          6           0       -0.000036   -0.702012   -1.112681
      8          6           0        0.000037   -1.182350    0.178896
      9          1           0        0.000480   -2.219088    0.489910
 ---------------------------------------------------------------------

 SCF Done:  E(UB3LYP) =  -192.456637881     A.U. after   12 cycles

 The electronic state is 4-B.
 Alpha  occ. eigenvalues --  -10.47941 -10.47895 -10.47467 -10.47464 -10.43357
 Alpha  occ. eigenvalues --   -1.15253  -0.98536  -0.96957  -0.82325  -0.76587
 Alpha  occ. eigenvalues --   -0.73974  -0.69708  -0.64978  -0.64569  -0.57938
 Alpha  occ. eigenvalues --   -0.54264  -0.51115  -0.50059
 Alpha virt. eigenvalues --   -0.30953  -0.19677  -0.15920  -0.12800  -0.12267
 Alpha virt. eigenvalues --   -0.12036  -0.11020  -0.08541  -0.07739  -0.06612
 Alpha virt. eigenvalues --   -0.06060  -0.05598  -0.05129  -0.02488  -0.02439

  Beta  occ. eigenvalues --  -10.46668 -10.46666 -10.46038 -10.45993 -10.43183
  Beta  occ. eigenvalues --   -1.12023  -0.94923  -0.94621  -0.80333  -0.73653
  Beta  occ. eigenvalues --   -0.71016  -0.67974  -0.63259  -0.63210  -0.54587
  Beta virt. eigenvalues --   -0.40169  -0.36945  -0.30797  -0.26247  -0.15784
  Beta virt. eigenvalues --   -0.14560  -0.12442  -0.12134  -0.11623  -0.10321
  Beta virt. eigenvalues --   -0.08137  -0.06891  -0.06378  -0.05409  -0.04735

 Mulliken charges and spin densities:
               1          2
     1  C   -0.099483   0.023024
     2  H    0.188867   0.001996
     3  H    0.188867   0.001996
     4  C   -0.068726   0.441196
     5  H    0.248332   0.001818
     6  C    0.181269   1.043479
     7  C    0.181269   1.043479
     8  C   -0.068726   0.441196
     9  H    0.248332   0.001818
 Sum of Mulliken charges =   1.00000   3.00000

 Dipole moment (field-independent basis, Debye):
    X=             -0.0000    Y=              0.0000    Z=              1.8937  Tot=              1.8937
 Quadrupole moment (field-independent basis, Debye-Ang):
   XX=            -26.4992   YY=            -16.8600   ZZ=            -21.4027
   XY=             -0.0019   XZ=              0.0000   YZ=             -0.0000

  Exact polarizability:  31.753  -0.000  58.042  -0.000   0.000  51.832
 Approx polarizability:  48.071   0.001  97.744   0.000   0.000  88.242

                      1                      2                      3
                      B                      A                      B
 Frequencies --    294.0432               477.1214               656.9051
 Red. masses --      1.6558                 5.4555                 1.1749
 Frc consts  --      0.0844                 0.7317                 0.2987
 IR Inten    --      0.1784                 0.0000                35.0182

                      4                      5                      6
                      B                      A                      A
 Frequencies --    736.5706               756.7531               835.5866
 Red. masses --      9.6302                 5.9843                 1.1782
 Frc consts  --      3.0783                 2.0192                 0.4847
 IR Inten    --      1.4999                 2.7478                 0.0000

                      7                      8                      9
                      A                      B                      B
 Frequencies --    908.4439               932.1308               959.7646
 Red. masses --      2.5370                 1.8371                 2.0637
 Frc consts  --      1.2336                 0.9405                 1.1200
 IR Inten    --     14.0157                 5.1343                 3.5008

                     10                     11                     12
                      A                      A                      B
 Frequencies --   1122.8825              1139.7468              1151.8084
 Red. masses --      2.3726                 1.1734                 1.5546
 Frc consts  --      1.7626                 0.8981                 1.2152
 IR Inten    --      7.4804                 0.0000                17.3513

                     13                     14                     15
                      B                      B                      A
 Frequencies --   1260.8660              1338.6341              1342.6671
 Red. masses --      2.2776                 2.6647                 1.6130
 Frc consts  --      2.1333                 2.8133                 1.7132
 IR Inten    --      0.8544               124.6976                 2.9672

                     16                     17                     18
                      A                      A                      A
 Frequencies --   1386.4358              1462.8135              3011.8010
 Red. masses --      1.9357                 3.6900                 1.0604
 Frc consts  --      2.1922                 4.6522                 5.6675
 IR Inten    --     45.4930                 0.0057                34.1003

                     19                     20                     21
                      B                      B                      A
 Frequencies --   3042.4590              3202.0686              3205.8203
 Red. masses --      1.0992                 1.0914                 1.0968
 Frc consts  --      5.9946                 6.5929                 6.6415
 IR Inten    --     19.1439                57.8478                 6.2415

 - Thermochemistry -
 -------------------
 Temperature   298.150 Kelvin.  Pressure   1.00000 Atm.
 Atom     1 has atomic number  6 and mass  12.00000

 Molecular mass:    64.03130 amu.
 Principal axes and moments of inertia in atomic units:
                           1         2         3
     Eigenvalues --   190.77648 203.05332 382.71336
           X           -0.00005   0.00000   1.00000
           Y            1.00000   0.00000   0.00005
           Z           -0.00000   1.00000  -0.00000
 This molecule is an asymmetric top.
 Rotational symmetry number  2.
 Rotational temperatures (Kelvin)      0.45401     0.42656     0.22632
 Rotational constants (GHZ):           9.45998     8.88802     4.71565
 Zero-point vibrational energy     174806.2 (Joules/Mol)
                                   41.77970 (Kcal/Mol)
 Warning -- explicit consideration of   2 degrees of freedom as
           vibrations may cause significant error
 Vibrational temperatures:    423.06   686.47   945.14  1059.76  1088.80
          (Kelvin)           1202.22  1307.05  1341.13  1380.89  1615.58
                             1639.84  1657.19  1814.10  1925.99  1931.80
                             1994.77  2104.66  4333.30  4377.41  4607.06
                             4612.45

 Zero-point correction=                           0.066580 (Hartree/Particle)
 Thermal correction to Energy=                    0.070726
 Thermal correction to Enthalpy=                  0.071670
 Thermal correction to Gibbs Free Energy=         0.039439
 Sum of electronic and zero-point Energies=           -192.390058
 Sum of electronic and thermal Energies=              -192.385912
 Sum of electronic and thermal Enthalpies=            -192.384968
 Sum of electronic and thermal Free Energies=         -192.417199

                     E (Thermal)             CV                S
                      KCal/Mol        Cal/Mol-Kelvin    Cal/Mol-Kelvin
 Total                   44.381             14.681             67.836
 Electronic               0.000              0.000              2.755
 Translational            0.889              2.981             38.389
 Rotational               0.889              2.981             22.832
 Vibrational             42.604              8.719              3.860
 Vibration     1          0.689              1.685              1.451
 Vibration     2          0.834              1.301              0.718

 Optimization completed.
    -- Stationary point found.
 Normal termination of Gaussian 09 at Thu Jan 31 07:50:11 2019.
