 Gaussian 09, Revision E.01,
 Gaussian 09:  EM64L-G09RevE.01 30-Nov-2015

 ---------------------------------------------
 #p b3lyp/6-311++G(3df,2p) freq symmetry=Loose
 ---------------------------------------------

 ---------
 b3lyp opt
 ---------
 Symbolic Z-matrix:
 Charge =  0 Multiplicity = 3

                         Standard orientation:
 ---------------------------------------------------------------------
 Center     Atomic      Atomic             Coordinates (Angstroms)
 Number     Number       Type             X           Y           Z
 ---------------------------------------------------------------------
      1          6           0        0.452125    1.062633    0.008795
      2          1           0        0.452342    1.652762    0.924751
      3          1           0        0.523691    1.724785   -0.854634
      4          6           0       -0.678305   -0.023738   -0.059171
      5          6           0       -2.066517    0.007521    0.020459
      6          6           0        1.357569   -0.157849    0.009143
      7          1           0        2.432422   -0.269062   -0.034279
      8          6           0        0.323683   -1.051654    0.010640
      9          1           0        0.260217   -2.129958    0.024971
 ---------------------------------------------------------------------

 SCF Done:  E(UB3LYP) =  -192.733392397     A.U. after   19 cycles

 The electronic state is 3-A.
 Alpha  occ. eigenvalues --  -10.23946 -10.22759 -10.21892 -10.20875 -10.19791
 Alpha  occ. eigenvalues --   -0.91693  -0.74214  -0.69787  -0.61320  -0.55123
 Alpha  occ. eigenvalues --   -0.47708  -0.45350  -0.41682  -0.38834  -0.34275
 Alpha  occ. eigenvalues --   -0.28971  -0.26847  -0.19605
 Alpha virt. eigenvalues --   -0.07082  -0.01426   0.00365   0.00779   0.01222
 Alpha virt. eigenvalues --    0.03395   0.04834   0.05803   0.06386   0.07173
 Alpha virt. eigenvalues --    0.08042   0.09383   0.10103   0.10552   0.11540

  Beta  occ. eigenvalues --  -10.23398 -10.22312 -10.21874 -10.20715 -10.17947
  Beta  occ. eigenvalues --   -0.90592  -0.70220  -0.69460  -0.59003  -0.55020
  Beta  occ. eigenvalues --   -0.46620  -0.44140  -0.39999  -0.37986  -0.32370
  Beta  occ. eigenvalues --   -0.25295
  Beta virt. eigenvalues --   -0.16610  -0.05155  -0.03798  -0.01367   0.00967
  Beta virt. eigenvalues --    0.01312   0.01427   0.04544   0.05188   0.05970
  Beta virt. eigenvalues --    0.06684   0.07406   0.08255   0.10043   0.10526

 Mulliken charges and spin densities:
               1          2
     1  C   -0.520594   0.015141
     2  H    0.159600   0.007059
     3  H    0.137121   0.006404
     4  C    0.519637   0.394144
     5  C   -0.661284   1.234514
     6  C    0.078087   0.417696
     7  H    0.253519  -0.015116
     8  C   -0.194298  -0.061874
     9  H    0.228213   0.002033
 Sum of Mulliken charges =  -0.00000   2.00000

 Dipole moment (field-independent basis, Debye):
    X=              4.8735    Y=             -0.2098    Z=             -0.3339  Tot=              4.8894
 Quadrupole moment (field-independent basis, Debye-Ang):
   XX=            -38.7048   YY=            -27.7355   ZZ=            -30.3391
   XY=              0.0218   XZ=              0.9012   YZ=             -0.0335

  Exact polarizability: 107.499  -1.746  60.502   6.092  -0.705  43.110
 Approx polarizability: 151.520  -0.044  85.019   1.744  -0.587  62.091

                      1                      2                      3
                      A                      A                      A
 Frequencies --    176.8103               342.5217               375.5123
 Red. masses --      3.2893                 3.9530                 2.7756
 Frc consts  --      0.0606                 0.2732                 0.2306
 IR Inten    --      9.7535                46.9243                79.8161

                      4                      5                      6
                      A                      A                      A
 Frequencies --    658.6116               724.2031               840.8923
 Red. masses --      2.1700                 1.6825                 3.8300
 Frc consts  --      0.5546                 0.5199                 1.5956
 IR Inten    --     65.8671                53.8408                 8.2888

                      7                      8                      9
                      A                      A                      A
 Frequencies --    944.6408               955.0153               991.4803
 Red. masses --      1.5975                 1.9890                 1.4978
 Frc consts  --      0.8399                 1.0688                 0.8675
 IR Inten    --     13.1369                 7.6936                19.4172

                     10                     11                     12
                      A                      A                      A
 Frequencies --   1010.6474              1086.9251              1096.9214
 Red. masses --      2.6929                 1.3852                 1.4637
 Frc consts  --      1.6206                 0.9642                 1.0377
 IR Inten    --      8.8572                 6.7433                 1.3094

                     13                     14                     15
                      A                      A                      A
 Frequencies --   1204.6510              1285.4947              1365.1623
 Red. masses --      1.4455                 2.1000                 4.0536
 Frc consts  --      1.2359                 2.0446                 4.4510
 IR Inten    --      6.6738                 4.0240               169.2728

                     16                     17                     18
                      A                      A                      A
 Frequencies --   1452.1138              1491.9413              3050.2007
 Red. masses --      1.9397                 1.7031                 1.0563
 Frc consts  --      2.4098                 2.2336                 5.7900
 IR Inten    --      2.3776                 5.9707                16.7312

                     19                     20                     21
                      A                      A                      A
 Frequencies --   3098.8544              3187.6389              3216.9690
 Red. masses --      1.1072                 1.0875                 1.1088
 Frc consts  --      6.2644                 6.5105                 6.7611
 IR Inten    --      7.4598                 1.8064                 5.5991

 - Thermochemistry -
 -------------------
 Temperature   298.150 Kelvin.  Pressure   1.00000 Atm.
 Atom     1 has atomic number  6 and mass  12.00000

 Molecular mass:    64.03130 amu.
 Principal axes and moments of inertia in atomic units:
                           1         2         3
     Eigenvalues --   139.82586 323.37767 451.41949
           X            0.99995   0.00961  -0.00117
           Y           -0.00961   0.99995   0.00030
           Z            0.00117  -0.00029   1.00000
 This molecule is an asymmetric top.
 Rotational symmetry number  1.
 Rotational temperatures (Kelvin)      0.61944     0.26784     0.19187
 Rotational constants (GHZ):          12.90706     5.58091     3.99792
 Zero-point vibrational energy     170810.0 (Joules/Mol)
                                   40.82458 (Kcal/Mol)
 Warning -- explicit consideration of   3 degrees of freedom as
           vibrations may cause significant error
 Vibrational temperatures:    254.39   492.81   540.28   947.59  1041.97
          (Kelvin)           1209.85  1359.13  1374.05  1426.52  1454.09
                             1563.84  1578.22  1733.22  1849.54  1964.16
                             2089.27  2146.57  4388.55  4458.55  4586.30
                             4628.50

 Zero-point correction=                           0.065058 (Hartree/Particle)
 Thermal correction to Energy=                    0.069756
 Thermal correction to Enthalpy=                  0.070700
 Thermal correction to Gibbs Free Energy=         0.036873
 Sum of electronic and zero-point Energies=           -192.668334
 Sum of electronic and thermal Energies=              -192.663637
 Sum of electronic and thermal Enthalpies=            -192.662693
 Sum of electronic and thermal Free Energies=         -192.696519

                     E (Thermal)             CV                S
                      KCal/Mol        Cal/Mol-Kelvin    Cal/Mol-Kelvin
 Total                   43.772             16.065             71.194
 Electronic               0.000              0.000              2.183
 Translational            0.889              2.981             38.389
 Rotational               0.889              2.981             24.527
 Vibrational             41.995             10.103              6.095
 Vibration     1          0.628              1.871              2.362
 Vibration     2          0.722              1.590              1.200
 Vibration     3          0.746              1.522              1.057

 Optimization completed.
    -- Stationary point found.
 Normal termination of Gaussian 09 at Wed Jun 22 05:11:38 2016.
