 Gaussian 09, Revision E.01,
 Gaussian 09:  EM64L-G09RevE.01 30-Nov-2015

 ---------------------------------------------
 #p b3lyp/6-311++G(3df,2p) freq symmetry=Loose
 ---------------------------------------------

 ---------
 b3lyp opt
 ---------
 Symbolic Z-matrix:
 Charge =  3 Multiplicity = 2

                         Standard orientation:
 ---------------------------------------------------------------------
 Center     Atomic      Atomic             Coordinates (Angstroms)
 Number     Number       Type             X           Y           Z
 ---------------------------------------------------------------------
      1          6           0       -0.673303   -0.794293   -0.000547
      2          6           0       -1.823265   -0.010207    0.000462
      3          6           0       -0.695073    0.797236   -0.000520
      4          1           0       -2.947308   -0.029998    0.000836
      5          6           0        0.561479    0.004561    0.000171
      6          6           0        1.917602    0.069998    0.000177
      7          1           0        2.409180   -0.717269    0.727362
      8          1           0        2.408696   -0.717764   -0.726717
      9          1           0        2.404798    1.061266    0.000047
 ---------------------------------------------------------------------

 SCF Done:  E(UB3LYP) =  -191.057802927     A.U. after   19 cycles

 The electronic state is 2-A.
 Alpha  occ. eigenvalues --  -11.11192 -11.11115 -11.05078 -11.03536 -10.88548
 Alpha  occ. eigenvalues --   -1.77701  -1.52549  -1.42259  -1.34777  -1.23895
 Alpha  occ. eigenvalues --   -1.20767  -1.18956  -1.18005  -1.11078  -1.08546
 Alpha  occ. eigenvalues --   -1.04392
 Alpha virt. eigenvalues --   -0.85402  -0.85175  -0.81208  -0.68585  -0.58271
 Alpha virt. eigenvalues --   -0.55159  -0.51806  -0.48844  -0.48292  -0.48179
 Alpha virt. eigenvalues --   -0.46876  -0.43310  -0.41701  -0.40421  -0.39745

  Beta  occ. eigenvalues --  -11.09949 -11.09836 -11.05189 -11.03657 -10.88523
  Beta  occ. eigenvalues --   -1.76793  -1.52558  -1.42040  -1.30471  -1.23391
  Beta  occ. eigenvalues --   -1.20418  -1.18267  -1.17763  -1.08234  -1.04274
  Beta virt. eigenvalues --   -0.95242  -0.85556  -0.82607  -0.75001  -0.67855
  Beta virt. eigenvalues --   -0.57710  -0.54310  -0.51516  -0.48558  -0.48049
  Beta virt. eigenvalues --   -0.47570  -0.45968  -0.43239  -0.41361  -0.40132

 Mulliken charges and spin densities:
               1          2
     1  C    1.238984   0.283421
     2  C   -0.436467   0.067095
     3  C    1.201797   0.333247
     4  H    0.444124   0.022308
     5  C    0.080190   0.104248
     6  C   -0.572896   0.190761
     7  H    0.358833   0.002523
     8  H    0.358796   0.002528
     9  H    0.326640  -0.006131
 Sum of Mulliken charges =   3.00000   1.00000

 Dipole moment (field-independent basis, Debye):
    X=             -0.0074    Y=             -0.9646    Z=              0.0005  Tot=              0.9646
 Quadrupole moment (field-independent basis, Debye-Ang):
   XX=             28.8996   YY=            -14.0559   ZZ=            -20.9776
   XY=             -2.4782   XZ=              0.0004   YZ=             -0.0002

  Exact polarizability:  75.332  -2.336  33.368  -0.001   0.000  24.348
 Approx polarizability: 149.459  -8.032  75.039  -0.013   0.002  38.168

                      1                      2                      3
                      A                      A                      A
 Frequencies --    252.1250               313.3532               348.6217
 Red. masses --      2.8687                 1.2316                 2.6398
 Frc consts  --      0.1074                 0.0712                 0.1890
 IR Inten    --     15.9556                58.8970                26.8276

                      4                      5                      6
                      A                      A                      A
 Frequencies --    482.1844               510.9718               579.9258
 Red. masses --      1.9631                 4.7153                 1.1268
 Frc consts  --      0.2689                 0.7254                 0.2233
 IR Inten    --     10.4167                 7.7169               844.0164

                      7                      8                      9
                      A                      A                      A
 Frequencies --    725.2657               730.4569               823.0695
 Red. masses --      2.3465                 4.2470                 1.3358
 Frc consts  --      0.7272                 1.3351                 0.5332
 IR Inten    --      0.0920                16.2261                60.1157

                     10                     11                     12
                      A                      A                      A
 Frequencies --    841.4924               951.2157               992.9444
 Red. masses --      2.1346                 1.9207                 5.0543
 Frc consts  --      0.8906                 1.0239                 2.9361
 IR Inten    --     56.9334                88.2024                30.8554

                     13                     14                     15
                      A                      A                      A
 Frequencies --   1020.6695              1022.6327              1337.6051
 Red. masses --      2.0822                 1.0984                 1.1567
 Frc consts  --      1.2781                 0.6768                 1.2194
 IR Inten    --     17.2541                56.6181                17.4669

                     16                     17                     18
                      A                      A                      A
 Frequencies --   1423.6976              1559.4889              2227.3304
 Red. masses --      6.5291                 9.0592                 1.0489
 Frc consts  --      7.7972                12.9809                 3.0658
 IR Inten    --    227.9584               123.6177               340.3362

                     19                     20                     21
                      A                      A                      A
 Frequencies --   2440.8001              2821.1496              2967.6059
 Red. masses --      1.0879                 1.1290                 1.0919
 Frc consts  --      3.8187                 5.2943                 5.6654
 IR Inten    --   1426.0874               688.1008               261.2863

 - Thermochemistry -
 -------------------
 Temperature   298.150 Kelvin.  Pressure   1.00000 Atm.
 Atom     1 has atomic number  6 and mass  12.00000

 Molecular mass:    64.03130 amu.
 Principal axes and moments of inertia in atomic units:
                           1         2         3
     Eigenvalues --    66.02294 450.34421 508.75753
           X            0.99997  -0.00777  -0.00003
           Y            0.00777   0.99997  -0.00002
           Z            0.00003   0.00002   1.00000
 This molecule is an asymmetric top.
 Rotational symmetry number  1.
 Rotational temperatures (Kelvin)      1.31187     0.19233     0.17025
 Rotational constants (GHZ):          27.33506     4.00747     3.54735
 Zero-point vibrational energy     145780.6 (Joules/Mol)
                                   34.84239 (Kcal/Mol)
 Warning -- explicit consideration of   6 degrees of freedom as
           vibrations may cause significant error
 Vibrational temperatures:    362.75   450.84   501.59   693.76   735.17
          (Kelvin)            834.38  1043.49  1050.96  1184.21  1210.72
                             1368.59  1428.62  1468.51  1471.34  1924.51
                             2048.38  2243.75  3204.63  3511.76  4059.00
                             4269.72

 Zero-point correction=                           0.055525 (Hartree/Particle)
 Thermal correction to Energy=                    0.060746
 Thermal correction to Enthalpy=                  0.061690
 Thermal correction to Gibbs Free Energy=         0.027768
 Sum of electronic and zero-point Energies=           -191.002278
 Sum of electronic and thermal Energies=              -190.997057
 Sum of electronic and thermal Enthalpies=            -190.996112
 Sum of electronic and thermal Free Energies=         -191.030035

                     E (Thermal)             CV                S
                      KCal/Mol        Cal/Mol-Kelvin    Cal/Mol-Kelvin
 Total                   38.119             19.113             71.395
 Electronic               0.000              0.000              1.377
 Translational            0.889              2.981             38.389
 Rotational               0.889              2.981             24.229
 Vibrational             36.341             13.151              7.400
 Vibration     1          0.664              1.759              1.716
 Vibration     2          0.701              1.648              1.345
 Vibration     3          0.726              1.578              1.172
 Vibration     4          0.838              1.290              0.704
 Vibration     5          0.866              1.226              0.631
 Vibration     6          0.937              1.075              0.486

 Optimization completed.
    -- Stationary point found.
 Normal termination of Gaussian 09 at Mon Jun 20 11:08:27 2016.
