 Gaussian 09, Revision E.01,
 Gaussian 09:  EM64L-G09RevE.01 30-Nov-2015

 ---------------------------------------------
 #p b3lyp/6-311++G(3df,2p) freq symmetry=Loose
 ---------------------------------------------

 ---------
 b3lyp opt
 ---------
 Symbolic Z-matrix:
 Charge =  2 Multiplicity = 1

                         Standard orientation:
 ---------------------------------------------------------------------
 Center     Atomic      Atomic             Coordinates (Angstroms)
 Number     Number       Type             X           Y           Z
 ---------------------------------------------------------------------
      1          6           0        0.754429    0.001908    0.027482
      2          6           0        1.408861    1.195406   -0.126809
      3          6           0        1.433185   -1.170347   -0.177712
      4          6           0       -1.803856    0.019823   -0.415780
      5          1           0       -2.828611    0.010715   -0.025014
      6          1           0       -1.682557    0.058961   -1.502598
      7          6           0       -0.736776   -0.029941    0.532997
      8          1           0       -0.908184    0.754291    1.307393
      9          1           0       -0.915705   -0.925056    1.179149
 ---------------------------------------------------------------------

 SCF Done:  E(RB3LYP) =  -191.783366106     A.U. after   12 cycles

 The electronic state is 1-A.
 Alpha  occ. eigenvalues --  -10.77825 -10.77803 -10.75851 -10.70854 -10.67519
 Alpha  occ. eigenvalues --   -1.34023  -1.26704  -1.12949  -1.10515  -0.98252
 Alpha  occ. eigenvalues --   -0.93422  -0.90389  -0.87940  -0.79934  -0.78549
 Alpha  occ. eigenvalues --   -0.75358
 Alpha virt. eigenvalues --   -0.60713  -0.60450  -0.58123  -0.55167  -0.41665
 Alpha virt. eigenvalues --   -0.33774  -0.32475  -0.30959  -0.29537  -0.27958
 Alpha virt. eigenvalues --   -0.25794  -0.24251  -0.23663  -0.21295  -0.19540

 Mulliken charges:
               1
     1  C    1.139391
     2  C    0.036667
     3  C    0.012073
     4  C   -0.022702
     5  H    0.289122
     6  H    0.274734
     7  C   -0.315169
     8  H    0.292020
     9  H    0.293862
 Sum of Mulliken charges =   2.00000

 Dipole moment (field-independent basis, Debye):
    X=             -4.2548    Y=             -0.0431    Z=              0.0952  Tot=              4.2561
 Quadrupole moment (field-independent basis, Debye-Ang):
   XX=              0.2697   YY=            -21.4790   ZZ=            -19.1863
   XY=              0.0235   XZ=              0.6668   YZ=             -0.1872

  Exact polarizability:  54.216  -0.172  47.957   0.731   0.039  37.414
 Approx polarizability:  78.501  -0.722 112.969   1.118   0.769  59.063

                      1                      2                      3
                      A                      A                      A
 Frequencies --     36.7234               172.0276               231.0574
 Red. masses --      2.2211                 1.8906                 1.7051
 Frc consts  --      0.0018                 0.0330                 0.0536
 IR Inten    --      0.9482                 8.8958                10.3773

                      4                      5                      6
                      A                      A                      A
 Frequencies --    249.4806               333.6578               475.8525
 Red. masses --      4.7155                 8.4752                 4.2840
 Frc consts  --      0.1729                 0.5559                 0.5715
 IR Inten    --      5.3878                14.0454                 0.4070

                      7                      8                      9
                      A                      A                      A
 Frequencies --    601.8864               726.7571              1001.1191
 Red. masses --      1.4851                 4.4726                 1.4326
 Frc consts  --      0.3170                 1.3918                 0.8460
 IR Inten    --     15.9465                19.4069                 3.4989

                     10                     11                     12
                      A                      A                      A
 Frequencies --   1069.8260              1100.4595              1219.7413
 Red. masses --      1.9746                 1.1038                 1.1745
 Frc consts  --      1.3315                 0.7876                 1.0295
 IR Inten    --    149.7370                 7.1963                78.7533

                     13                     14                     15
                      A                      A                      A
 Frequencies --   1238.9954              1293.3300              1352.2236
 Red. masses --      4.7198                 1.3342                 1.7105
 Frc consts  --      4.2689                 1.3149                 1.8427
 IR Inten    --    132.7951                 9.9297                21.3441

                     16                     17                     18
                      A                      A                      A
 Frequencies --   1486.5227              1510.2309              2821.4496
 Red. masses --      1.2571                11.0062                 1.0816
 Frc consts  --      1.6367                14.7902                 5.0729
 IR Inten    --      9.4681               559.9906               134.2408

                     19                     20                     21
                      A                      A                      A
 Frequencies --   2860.0614              3036.9534              3147.2066
 Red. masses --      1.0704                 1.0566                 1.1237
 Frc consts  --      5.1586                 5.7418                 6.5578
 IR Inten    --    188.3408                96.4948                89.8880

 - Thermochemistry -
 -------------------
 Temperature   298.150 Kelvin.  Pressure   1.00000 Atm.
 Atom     1 has atomic number  6 and mass  12.00000

 Molecular mass:    64.03130 amu.
 Principal axes and moments of inertia in atomic units:
                           1         2         3
     Eigenvalues --   166.01566 443.82139 528.07210
           X            1.00000   0.00057   0.00232
           Y           -0.00055   0.99997  -0.00820
           Z           -0.00233   0.00819   0.99996
 This molecule is an asymmetric top.
 Rotational symmetry number  1.
 Rotational temperatures (Kelvin)      0.52172     0.19515     0.16402
 Rotational constants (GHZ):          10.87091     4.06637     3.41760
 Zero-point vibrational energy     155308.6 (Joules/Mol)
                                   37.11963 (Kcal/Mol)
 Warning -- explicit consideration of   7 degrees of freedom as
           vibrations may cause significant error
 Vibrational temperatures:     52.84   247.51   332.44   358.95   480.06
          (Kelvin)            684.64   865.98  1045.64  1440.39  1539.24
                             1583.31  1754.93  1782.64  1860.81  1945.55
                             2138.77  2172.88  4059.43  4114.99  4369.49
                             4528.12

 Zero-point correction=                           0.059154 (Hartree/Particle)
 Thermal correction to Energy=                    0.065490
 Thermal correction to Enthalpy=                  0.066434
 Thermal correction to Gibbs Free Energy=         0.029344
 Sum of electronic and zero-point Energies=           -191.724212
 Sum of electronic and thermal Energies=              -191.717876
 Sum of electronic and thermal Enthalpies=            -191.716932
 Sum of electronic and thermal Free Energies=         -191.754022

                     E (Thermal)             CV                S
                      KCal/Mol        Cal/Mol-Kelvin    Cal/Mol-Kelvin
 Total                   41.095             19.859             78.063
 Electronic               0.000              0.000              0.000
 Translational            0.889              2.981             38.389
 Rotational               0.889              2.981             25.168
 Vibrational             39.318             13.898             14.506
 Vibration     1          0.594              1.982              5.428
 Vibration     2          0.626              1.877              2.413
 Vibration     3          0.653              1.794              1.871
 Vibration     4          0.662              1.764              1.734
 Vibration     5          0.715              1.608              1.242
 Vibration     6          0.832              1.304              0.721
 Vibration     7          0.960              1.028              0.446

 Normal termination of Gaussian 09 at Mon Jun 20 07:51:56 2016.
