 Gaussian 09, Revision E.01,
 Gaussian 09:  EM64L-G09RevE.01 30-Nov-2015

 ---------------------------------------------
 #p b3lyp/6-311++G(3df,2p) freq symmetry=Loose
 ---------------------------------------------

 ---------
 b3lyp opt
 ---------
 Symbolic Z-matrix:
 Charge =  2 Multiplicity = 3

                         Standard orientation:
 ---------------------------------------------------------------------
 Center     Atomic      Atomic             Coordinates (Angstroms)
 Number     Number       Type             X           Y           Z
 ---------------------------------------------------------------------
      1          6           0        0.532241   -0.389134    0.798262
      2          6           0        0.090290    0.867543    0.000000
      3          6           0        0.532241   -0.389134   -0.798262
      4          6           0        0.532241   -1.497457   -0.000000
      5          1           0        0.800391    1.696690    0.000000
      6          1           0        0.720131   -2.573611   -0.000000
      7          6           0       -1.319798    1.135778    0.000000
      8          1           0       -2.062801    0.340507   -0.000000
      9          1           0       -1.661021    2.170836    0.000000
 ---------------------------------------------------------------------

 SCF Done:  E(UB3LYP) =  -191.862596755     A.U. after   16 cycles

 The electronic state is 3-A".
 Alpha  occ. eigenvalues --  -10.81495 -10.81482 -10.74098 -10.73254 -10.70178
 Alpha  occ. eigenvalues --   -1.49224  -1.27091  -1.13920  -1.08516  -1.02196
 Alpha  occ. eigenvalues --   -0.96805  -0.94247  -0.91869  -0.86302  -0.85529
 Alpha  occ. eigenvalues --   -0.84649  -0.72007
 Alpha virt. eigenvalues --   -0.58976  -0.52263  -0.50883  -0.33565  -0.31662
 Alpha virt. eigenvalues --   -0.31324  -0.30293  -0.28210  -0.26016  -0.26008
 Alpha virt. eigenvalues --   -0.24503  -0.23801  -0.23055  -0.21173  -0.20188

  Beta  occ. eigenvalues --  -10.79783 -10.79775 -10.74147 -10.73261 -10.69498
  Beta  occ. eigenvalues --   -1.47773  -1.26002  -1.12432  -1.02836  -1.01639
  Beta  occ. eigenvalues --   -0.96114  -0.92867  -0.89933  -0.85361  -0.83880
  Beta virt. eigenvalues --   -0.68254  -0.59334  -0.53295  -0.49669  -0.46456
  Beta virt. eigenvalues --   -0.33195  -0.30903  -0.30370  -0.29923  -0.27676
  Beta virt. eigenvalues --   -0.25191  -0.24774  -0.23836  -0.23460  -0.22061

 Mulliken charges and spin densities:
               1          2
     1  C    0.539071   0.923356
     2  C    0.031947  -0.195292
     3  C    0.539071   0.923356
     4  C   -0.090778  -0.132992
     5  H    0.304866  -0.002488
     6  H    0.373981   0.017493
     7  C   -0.266487   0.488696
     8  H    0.291018  -0.013321
     9  H    0.277310  -0.008810
 Sum of Mulliken charges =   2.00000   2.00000

 Dipole moment (field-independent basis, Debye):
    X=             -0.5461    Y=             -0.5812    Z=             -0.0000  Tot=              0.7975
 Quadrupole moment (field-independent basis, Debye-Ang):
   XX=            -13.7430   YY=             -2.8524   ZZ=            -21.4521
   XY=             -8.4395   XZ=             -0.0000   YZ=              0.0000

  Exact polarizability:  50.426 -18.216  55.999   0.000  -0.000  32.502
 Approx polarizability:  82.737 -31.854  90.462   0.000   0.000  67.919

                      1                      2                      3
                     A'                     A"                     A"
 Frequencies --    251.5543               298.3331               432.4296
 Red. masses --      3.0425                 1.8958                 2.3546
 Frc consts  --      0.1134                 0.0994                 0.2594
 IR Inten    --     19.5897                 1.6364                 1.2495

                      4                      5                      6
                     A"                     A'                     A'
 Frequencies --    451.7169               554.1900               751.4525
 Red. masses --      2.4998                 3.9999                 4.1913
 Frc consts  --      0.3005                 0.7238                 1.3944
 IR Inten    --      1.8044                28.1387                96.2101

                      7                      8                      9
                     A'                     A'                     A"
 Frequencies --    857.1499               931.2292              1007.8021
 Red. masses --      1.3330                 3.4176                 1.5141
 Frc consts  --      0.5770                 1.7462                 0.9060
 IR Inten    --     29.4854                52.6805                19.9821

                     10                     11                     12
                     A"                     A"                     A'
 Frequencies --   1023.8724              1062.2638              1075.2598
 Red. masses --      1.6210                 1.3317                 1.8330
 Frc consts  --      1.0012                 0.8853                 1.2486
 IR Inten    --      1.5908                49.0533                 3.6831

                     13                     14                     15
                     A"                     A'                     A'
 Frequencies --   1158.2465              1190.2368              1369.6989
 Red. masses --      2.1425                 2.8097                 1.3808
 Frc consts  --      1.6935                 2.3452                 1.5263
 IR Inten    --     29.2116                15.6879                21.8898

                     16                     17                     18
                     A'                     A'                     A'
 Frequencies --   1479.9275              1534.5368              3084.9803
 Red. masses --      1.1933                 6.1689                 1.0540
 Frc consts  --      1.5398                 8.5588                 5.9099
 IR Inten    --     18.1457                 6.1969               152.0960

                     19                     20                     21
                     A'                     A'                     A'
 Frequencies --   3098.1922              3127.9250              3205.0130
 Red. masses --      1.0929                 1.1188                 1.1256
 Frc consts  --      6.1806                 6.4494                 6.8121
 IR Inten    --    150.4620               255.1712                71.8239

 - Thermochemistry -
 -------------------
 Temperature   298.150 Kelvin.  Pressure   1.00000 Atm.
 Atom     1 has atomic number  6 and mass  12.00000

 Molecular mass:    64.03130 amu.
 Principal axes and moments of inertia in atomic units:
                           1         2         3
     Eigenvalues --   108.35757 388.59255 389.46182
           X           -0.55573   0.00000   0.83136
           Y            0.83136   0.00000   0.55573
           Z           -0.00000   1.00000  -0.00000
 This molecule is an asymmetric top.
 Rotational symmetry number  1.
 Rotational temperatures (Kelvin)      0.79933     0.22289     0.22239
 Rotational constants (GHZ):          16.65542     4.64430     4.63394
 Zero-point vibrational energy     167154.3 (Joules/Mol)
                                   39.95083 (Kcal/Mol)
 Warning -- explicit consideration of   5 degrees of freedom as
           vibrations may cause significant error
 Vibrational temperatures:    361.93   429.23   622.17   649.92   797.35
          (Kelvin)           1081.17  1233.25  1339.83  1450.00  1473.12
                             1528.36  1547.06  1666.46  1712.48  1970.69
                             2129.28  2207.85  4438.59  4457.60  4500.38
                             4611.29

 Zero-point correction=                           0.063666 (Hartree/Particle)
 Thermal correction to Energy=                    0.068519
 Thermal correction to Enthalpy=                  0.069463
 Thermal correction to Gibbs Free Energy=         0.035636
 Sum of electronic and zero-point Energies=           -191.798931
 Sum of electronic and thermal Energies=              -191.794077
 Sum of electronic and thermal Enthalpies=            -191.793133
 Sum of electronic and thermal Free Energies=         -191.826961

                     E (Thermal)             CV                S
                      KCal/Mol        Cal/Mol-Kelvin    Cal/Mol-Kelvin
 Total                   42.997             17.086             71.197
 Electronic               0.000              0.000              2.183
 Translational            0.889              2.981             38.389
 Rotational               0.889              2.981             24.309
 Vibrational             41.219             11.124              6.315
 Vibration     1          0.664              1.760              1.720
 Vibration     2          0.691              1.677              1.426
 Vibration     3          0.793              1.400              0.851
 Vibration     4          0.810              1.357              0.791
 Vibration     5          0.910              1.131              0.536

 Optimization completed.
    -- Stationary point found.
 Normal termination of Gaussian 09 at Wed Jul 20 04:07:39 2016.
