 Gaussian 09, Revision E.01,
 Gaussian 09:  EM64L-G09RevE.01 30-Nov-2015

 ---------------------------------------------
 #p b3lyp/6-311++G(3df,2p) freq symmetry=Loose
 ---------------------------------------------

 ---------
 b3lyp opt
 ---------
 Symbolic Z-matrix:
 Charge =  2 Multiplicity = 1

                         Standard orientation:
 ---------------------------------------------------------------------
 Center     Atomic      Atomic             Coordinates (Angstroms)
 Number     Number       Type             X           Y           Z
 ---------------------------------------------------------------------
      1          6           0       -0.001886   -2.267034    0.000000
      2          1           0        0.937329   -2.851834    0.000000
      3          1           0       -0.941542   -2.850957    0.000000
      4          6           0       -0.001046   -0.988391    0.000000
      5          6           0        0.000000    0.354251    0.000000
      6          6           0       -0.662476    1.585592    0.000000
      7          1           0       -1.649054    2.047771    0.000000
      8          6           0        0.665554    1.583812    0.000000
      9          1           0        1.652390    2.045640    0.000000
 ---------------------------------------------------------------------

 SCF Done:  E(RB3LYP) =  -192.038171978     A.U. after   11 cycles

 The electronic state is 1-A'.
 Alpha  occ. eigenvalues --  -10.73934 -10.73272 -10.71162 -10.71075 -10.67797
 Alpha  occ. eigenvalues --   -1.42248  -1.28041  -1.16501  -1.04383  -0.99446
 Alpha  occ. eigenvalues --   -0.95739  -0.90842  -0.87856  -0.86724  -0.83180
 Alpha  occ. eigenvalues --   -0.77124
 Alpha virt. eigenvalues --   -0.57390  -0.54415  -0.46913  -0.36028  -0.32421
 Alpha virt. eigenvalues --   -0.29569  -0.29357  -0.27626  -0.26419  -0.25405
 Alpha virt. eigenvalues --   -0.25055  -0.24130  -0.21840  -0.20883  -0.19452

 Mulliken charges:
               1
     1  C    0.059182
     2  H    0.320261
     3  H    0.320307
     4  C    0.334391
     5  C   -0.073677
     6  C    0.152117
     7  H    0.367842
     8  C    0.151746
     9  H    0.367830
 Sum of Mulliken charges =   2.00000

 Dipole moment (field-independent basis, Debye):
    X=             -0.0010    Y=             -1.2596    Z=              0.0000  Tot=              1.2596
 Quadrupole moment (field-independent basis, Debye-Ang):
   XX=            -13.5430   YY=             16.5491   ZZ=            -25.2635
   XY=              0.0258   XZ=              0.0000   YZ=              0.0000

  Exact polarizability:  35.787   0.040  84.398  -0.001  -0.001  24.341
 Approx polarizability:  55.897   0.074 151.088  -0.000  -0.000  35.434

                      1                      2                      3
                     A'                     A"                     A'
 Frequencies --    172.3273               205.8864               409.8432
 Red. masses --      2.7316                 4.3726                 1.7783
 Frc consts  --      0.0478                 0.1092                 0.1760
 IR Inten    --     10.6396                19.4168                 3.2397

                      4                      5                      6
                     A"                     A"                     A'
 Frequencies --    473.8321               530.7849               712.5404
 Red. masses --      1.1231                 4.5422                 3.6079
 Frc consts  --      0.1486                 0.7540                 1.0792
 IR Inten    --      0.0000                 1.6532                 0.0495

                      7                      8                      9
                     A'                     A"                     A"
 Frequencies --    812.6742               858.4121               929.2249
 Red. masses --      2.6507                 1.3272                 1.3813
 Frc consts  --      1.0314                 0.5762                 0.7027
 IR Inten    --      2.6858                53.7722                 0.0004

                     10                     11                     12
                     A"                     A'                     A'
 Frequencies --    947.5659               957.3048              1030.7532
 Red. masses --      1.3333                 1.2145                 1.3604
 Frc consts  --      0.7053                 0.6557                 0.8516
 IR Inten    --     47.4534                 5.6789                18.1439

                     13                     14                     15
                     A'                     A'                     A'
 Frequencies --   1100.4615              1189.6052              1277.5629
 Red. masses --      7.0119                 2.0055                 1.8334
 Frc consts  --      5.0030                 1.6721                 1.7631
 IR Inten    --     69.9289                77.1742                60.9036

                     16                     17                     18
                     A'                     A'                     A'
 Frequencies --   1663.2228              1838.3546              2931.1567
 Red. masses --      6.2677                 7.3874                 1.0594
 Frc consts  --     10.2155                14.7097                 5.3627
 IR Inten    --     37.2482                10.2243               549.7464

                     19                     20                     21
                     A'                     A'                     A'
 Frequencies --   2985.5595              3144.5023              3191.1636
 Red. masses --      1.1087                 1.0967                 1.1607
 Frc consts  --      5.8223                 6.3890                 6.9642
 IR Inten    --    247.0762               269.2157               170.8509

 - Thermochemistry -
 -------------------
 Temperature   298.150 Kelvin.  Pressure   1.00000 Atm.
 Atom     1 has atomic number  6 and mass  12.00000

 Molecular mass:    64.03130 amu.
 Principal axes and moments of inertia in atomic units:
                           1         2         3
     Eigenvalues --    63.75531 571.24540 635.00070
           X            0.00086   1.00000   0.00000
           Y            1.00000  -0.00086   0.00000
           Z            0.00000  -0.00000   1.00000
 This molecule is an asymmetric top.
 Rotational symmetry number  1.
 Rotational temperatures (Kelvin)      1.35853     0.15162     0.13640
 Rotational constants (GHZ):          28.30731     3.15931     2.84211
 Zero-point vibrational energy     163665.5 (Joules/Mol)
                                   39.11700 (Kcal/Mol)
 Warning -- explicit consideration of   5 degrees of freedom as
           vibrations may cause significant error
 Vibrational temperatures:    247.94   296.22   589.67   681.74   763.68
          (Kelvin)           1025.19  1169.26  1235.06  1336.95  1363.33
                             1377.35  1483.02  1583.32  1711.57  1838.13
                             2393.00  2644.98  4217.28  4295.55  4524.23
                             4591.37

 Zero-point correction=                           0.062337 (Hartree/Particle)
 Thermal correction to Energy=                    0.067546
 Thermal correction to Enthalpy=                  0.068491
 Thermal correction to Gibbs Free Energy=         0.034756
 Sum of electronic and zero-point Energies=           -191.975835
 Sum of electronic and thermal Energies=              -191.970626
 Sum of electronic and thermal Enthalpies=            -191.969681
 Sum of electronic and thermal Free Energies=         -192.003416

                     E (Thermal)             CV                S
                      KCal/Mol        Cal/Mol-Kelvin    Cal/Mol-Kelvin
 Total                   42.386             17.989             71.000
 Electronic               0.000              0.000              0.000
 Translational            0.889              2.981             38.389
 Rotational               0.889              2.981             24.651
 Vibrational             40.608             12.028              7.960
 Vibration     1          0.626              1.877              2.410
 Vibration     2          0.640              1.832              2.080
 Vibration     3          0.774              1.449              0.927
 Vibration     4          0.831              1.308              0.727
 Vibration     5          0.886              1.182              0.585

 Optimization completed.
    -- Stationary point found.
 Normal termination of Gaussian 09 at Mon Jun 20 07:49:08 2016.
