 Gaussian 09, Revision E.01,
 Gaussian 09:  EM64L-G09RevE.01 30-Nov-2015

 ---------------------------------------------
 #p b3lyp/6-311++G(3df,2p) freq symmetry=Loose
 ---------------------------------------------

 ---------
 b3lyp opt
 ---------
 Symbolic Z-matrix:
 Charge =  0 Multiplicity = 1

                         Standard orientation:
 ---------------------------------------------------------------------
 Center     Atomic      Atomic             Coordinates (Angstroms)
 Number     Number       Type             X           Y           Z
 ---------------------------------------------------------------------
      1          6           0       -1.303918    0.075176    0.000106
      2          6           0        2.269637   -0.432750    0.000124
      3          6           0       -0.053543    0.750450   -0.000165
      4          1           0       -0.077854    1.837064    0.001235
      5          6           0        1.110480    0.147128   -0.000391
      6          1           0        2.773033   -0.688093    0.925654
      7          1           0        2.774344   -0.687377   -0.924841
      8          6           0       -2.379900   -0.460039    0.000079
      9          1           0       -3.326061   -0.941386   -0.000565
 ---------------------------------------------------------------------

 SCF Done:  E(RB3LYP) =  -192.873368397     A.U. after   13 cycles

 The electronic state is 1-A.
 Alpha  occ. eigenvalues --  -10.21112 -10.21012 -10.19137 -10.18510 -10.17203
 Alpha  occ. eigenvalues --   -0.82967  -0.76823  -0.71864  -0.58045  -0.52738
 Alpha  occ. eigenvalues --   -0.49070  -0.48144  -0.46218  -0.34561  -0.29339
 Alpha  occ. eigenvalues --   -0.28893  -0.25221
 Alpha virt. eigenvalues --   -0.03790  -0.01891  -0.00457   0.00947   0.02003
 Alpha virt. eigenvalues --    0.02778   0.03220   0.05376   0.06005   0.06048
 Alpha virt. eigenvalues --    0.07907   0.08841   0.09340   0.10260   0.10511

 Mulliken charges:
               1
     1  C   -0.438433
     2  C   -0.537269
     3  C   -0.799061
     4  H    0.152171
     5  C    0.537451
     6  H    0.173900
     7  H    0.173922
     8  C    0.428919
     9  H    0.308399
 Sum of Mulliken charges =  -0.00000

 Dipole moment (field-independent basis, Debye):
    X=              0.7599    Y=              0.0089    Z=              0.0007  Tot=              0.7600
 Quadrupole moment (field-independent basis, Debye-Ang):
   XX=            -23.6614   YY=            -28.9011   ZZ=            -30.7844
   XY=              0.3200   XZ=              0.0027   YZ=              0.0022

  Exact polarizability: 108.026  -2.973  49.925  -0.001  -0.001  40.238
 Approx polarizability: 167.337  -3.571  76.370  -0.000  -0.004  56.332

                      1                      2                      3
                      A                      A                      A
 Frequencies --    140.7200               298.2680               351.1464
 Red. masses --      3.8913                 1.6585                 3.3439
 Frc consts  --      0.0454                 0.0869                 0.2429
 IR Inten    --      1.6266                13.3904                 0.0179

                      4                      5                      6
                      A                      A                      A
 Frequencies --    359.5297               606.6134               637.7449
 Red. masses --      4.7061                 6.9119                 1.6080
 Frc consts  --      0.3584                 1.4986                 0.3853
 IR Inten    --      2.9250                13.5227                33.6744

                      7                      8                      9
                      A                      A                      A
 Frequencies --    641.8958               689.0005               887.3019
 Red. masses --      1.5100                 1.2704                 1.1626
 Frc consts  --      0.3666                 0.3553                 0.5393
 IR Inten    --     15.4070                41.3532                19.7011

                     10                     11                     12
                      A                      A                      A
 Frequencies --    890.4722               951.0576              1006.6204
 Red. masses --      1.3229                 5.8456                 1.5253
 Frc consts  --      0.6180                 3.1153                 0.9106
 IR Inten    --     48.4934                 9.4178                 0.1232

                     13                     14                     15
                      A                      A                      A
 Frequencies --   1140.0314              1353.6783              1468.7634
 Red. masses --      1.6695                 1.4554                 1.4952
 Frc consts  --      1.2784                 1.5714                 1.9004
 IR Inten    --      0.5945                 8.6264                 4.5878

                     16                     17                     18
                      A                      A                      A
 Frequencies --   2033.8354              2202.7640              3110.5532
 Red. masses --     10.2333                 6.1021                 1.0751
 Frc consts  --     24.9401                17.4446                 6.1285
 IR Inten    --     71.1008                 9.6785                 0.2027

                     19                     20                     21
                      A                      A                      A
 Frequencies --   3113.6429              3182.3547              3463.8649
 Red. masses --      1.0678                 1.1144                 1.1581
 Frc consts  --      6.0995                 6.6494                 8.1866
 IR Inten    --      3.5141                 0.1864                85.1799

 - Thermochemistry -
 -------------------
 Temperature   298.150 Kelvin.  Pressure   1.00000 Atm.
 Atom     1 has atomic number  6 and mass  12.00000

 Molecular mass:    64.03130 amu.
 Principal axes and moments of inertia in atomic units:
                           1         2         3
     Eigenvalues --    67.27287 690.42380 745.37244
           X            0.99999  -0.00479   0.00001
           Y            0.00479   0.99999   0.00010
           Z           -0.00002  -0.00010   1.00000
 This molecule is an asymmetric top.
 Rotational symmetry number  1.
 Rotational temperatures (Kelvin)      1.28750     0.12545     0.11620
 Rotational constants (GHZ):          26.82718     2.61396     2.42126
 Zero-point vibrational energy     170646.5 (Joules/Mol)
                                   40.78548 (Kcal/Mol)
 Warning -- explicit consideration of   5 degrees of freedom as
           vibrations may cause significant error
 Vibrational temperatures:    202.46   429.14   505.22   517.28   872.78
          (Kelvin)            917.57   923.54   991.32  1276.63  1281.19
                             1368.36  1448.30  1640.25  1947.64  2113.22
                             2926.23  3169.28  4475.39  4479.83  4578.69
                             4983.72

 Zero-point correction=                           0.064996 (Hartree/Particle)
 Thermal correction to Energy=                    0.070403
 Thermal correction to Enthalpy=                  0.071347
 Thermal correction to Gibbs Free Energy=         0.037107
 Sum of electronic and zero-point Energies=           -192.808373
 Sum of electronic and thermal Energies=              -192.802965
 Sum of electronic and thermal Enthalpies=            -192.802021
 Sum of electronic and thermal Free Energies=         -192.836261

                     E (Thermal)             CV                S
                      KCal/Mol        Cal/Mol-Kelvin    Cal/Mol-Kelvin
 Total                   44.179             18.751             72.064
 Electronic               0.000              0.000              0.000
 Translational            0.889              2.981             38.389
 Rotational               0.889              2.981             25.052
 Vibrational             42.401             12.789              8.623
 Vibration     1          0.615              1.913              2.794
 Vibration     2          0.691              1.677              1.427
 Vibration     3          0.728              1.573              1.161
 Vibration     4          0.734              1.556              1.124
 Vibration     5          0.965              1.018              0.438

 Optimization completed.
    -- Stationary point found.
 Normal termination of Gaussian 09 at Wed Jun 22 01:33:25 2016.
