 Gaussian 09, Revision E.01,
 Gaussian 09:  EM64L-G09RevE.01 30-Nov-2015

 ---------------------------------------------
 #p b3lyp/6-311++G(3df,2p) freq symmetry=Loose
 ---------------------------------------------

 ---------
 b3lyp opt
 ---------
 Symbolic Z-matrix:
 Charge =  0 Multiplicity = 3

                         Standard orientation:
 ---------------------------------------------------------------------
 Center     Atomic      Atomic             Coordinates (Angstroms)
 Number     Number       Type             X           Y           Z
 ---------------------------------------------------------------------
      1          6           0        1.282726   -0.000268    0.000018
      2          1           0        1.929988   -0.059924   -0.878131
      3          1           0        1.929214    0.059361    0.878740
      4          6           0        0.306486   -1.142349    0.049124
      5          6           0        0.307054    1.142273   -0.049325
      6          6           0       -0.960929   -0.749845   -0.025940
      7          1           0       -1.854302   -1.348322   -0.124681
      8          6           0       -0.960531    0.750170    0.026065
      9          1           0       -1.853733    1.348993    0.124417
 ---------------------------------------------------------------------

 SCF Done:  E(UB3LYP) =  -192.776808646     A.U. after   17 cycles

 The electronic state is 3-A.
 Alpha  occ. eigenvalues --  -10.20912 -10.20909 -10.20450 -10.19206 -10.19180
 Alpha  occ. eigenvalues --   -0.88805  -0.72958  -0.71629  -0.56587  -0.53037
 Alpha  occ. eigenvalues --   -0.47654  -0.46183  -0.41442  -0.40735  -0.32465
 Alpha  occ. eigenvalues --   -0.28735  -0.24843  -0.24723
 Alpha virt. eigenvalues --   -0.04182  -0.00480   0.01276   0.02177   0.02803
 Alpha virt. eigenvalues --    0.04110   0.05229   0.05478   0.06952   0.07765
 Alpha virt. eigenvalues --    0.09271   0.11063   0.11392   0.11838   0.12658

  Beta  occ. eigenvalues --  -10.20255 -10.19317 -10.19314 -10.19070 -10.19046
  Beta  occ. eigenvalues --   -0.86859  -0.72214  -0.69117  -0.55613  -0.50906
  Beta  occ. eigenvalues --   -0.45652  -0.44142  -0.39930  -0.39717  -0.32154
  Beta  occ. eigenvalues --   -0.23288
  Beta virt. eigenvalues --   -0.13046  -0.08729  -0.02340  -0.00329   0.01357
  Beta virt. eigenvalues --    0.02474   0.02931   0.04909   0.05844   0.05940
  Beta virt. eigenvalues --    0.07160   0.07725   0.09374   0.11505   0.11747

 Mulliken charges and spin densities:
               1          2
     1  C   -0.304235  -0.055113
     2  H    0.146576   0.000388
     3  H    0.146638   0.000382
     4  C   -0.062627   1.092845
     5  C   -0.062851   1.092699
     6  C   -0.109793  -0.085092
     7  H    0.178041   0.019441
     8  C   -0.109712  -0.085003
     9  H    0.177962   0.019454
 Sum of Mulliken charges =  -0.00000   2.00000

 Dipole moment (field-independent basis, Debye):
    X=             -0.1077    Y=             -0.0003    Z=              0.0002  Tot=              0.1077
 Quadrupole moment (field-independent basis, Debye-Ang):
   XX=            -24.5371   YY=            -32.8780   ZZ=            -31.4280
   XY=             -0.0009   XZ=              0.0010   YZ=              1.0132

  Exact polarizability:  65.958   0.002  60.812  -0.002  -2.536  41.274
 Approx polarizability: 109.011   0.003  91.497  -0.008  -4.199  60.521

                      1                      2                      3
                      A                      A                      A
 Frequencies --    229.5590               321.4974               731.7000
 Red. masses --      2.2540                 1.7983                 2.6734
 Frc consts  --      0.0700                 0.1095                 0.8433
 IR Inten    --      5.8301                27.7345                22.0390

                      4                      5                      6
                      A                      A                      A
 Frequencies --    783.6003               802.0628               849.7731
 Red. masses --      2.1344                 5.0525                 1.7805
 Frc consts  --      0.7722                 1.9150                 0.7575
 IR Inten    --     22.1372                 4.7866                 0.2531

                      7                      8                      9
                      A                      A                      A
 Frequencies --    890.9110               914.2577               917.3164
 Red. masses --      1.8353                 2.3557                 2.8854
 Frc consts  --      0.8583                 1.1601                 1.4305
 IR Inten    --     37.5591                16.0974                 1.3165

                     10                     11                     12
                      A                      A                      A
 Frequencies --    978.4209              1101.4272              1190.4916
 Red. masses --      5.8316                 1.0787                 1.4684
 Frc consts  --      3.2892                 0.7710                 1.2262
 IR Inten    --      3.5644                 0.1709                 5.1327

                     13                     14                     15
                      A                      A                      A
 Frequencies --   1194.8839              1224.1106              1414.9234
 Red. masses --      1.2472                 1.5643                 1.1686
 Frc consts  --      1.0492                 1.3811                 1.3784
 IR Inten    --      0.8795                 4.2348                18.8362

                     16                     17                     18
                      A                      A                      A
 Frequencies --   1488.4603              1619.9268              3041.4533
 Red. masses --      5.6787                 6.9797                 1.0584
 Frc consts  --      7.4126                10.7913                 5.7684
 IR Inten    --      0.0512                 0.6443                 1.4212

                     19                     20                     21
                      A                      A                      A
 Frequencies --   3071.3041              3198.2739              3210.4543
 Red. masses --      1.1006                 1.0918                 1.0970
 Frc consts  --      6.1170                 6.5797                 6.6621
 IR Inten    --      1.3016                 1.5983                 1.0425

 - Thermochemistry -
 -------------------
 Temperature   298.150 Kelvin.  Pressure   1.00000 Atm.
 Atom     1 has atomic number  6 and mass  12.00000

 Molecular mass:    64.03130 amu.
 Principal axes and moments of inertia in atomic units:
                           1         2         3
     Eigenvalues --   179.09487 215.14024 382.40103
           X            1.00000  -0.00016   0.00002
           Y            0.00016   0.99996   0.00934
           Z           -0.00002  -0.00934   0.99996
 This molecule is an asymmetric top.
 Rotational symmetry number  1.
 Rotational temperatures (Kelvin)      0.48362     0.40259     0.22650
 Rotational constants (GHZ):          10.07701     8.38867     4.71950
 Zero-point vibrational energy     174504.1 (Joules/Mol)
                                   41.70748 (Kcal/Mol)
 Warning -- explicit consideration of   2 degrees of freedom as
           vibrations may cause significant error
 Vibrational temperatures:    330.28   462.56  1052.75  1127.42  1153.99
          (Kelvin)           1222.63  1281.82  1315.41  1319.81  1407.73
                             1584.71  1712.85  1719.17  1761.22  2035.76
                             2141.56  2330.71  4375.97  4418.92  4601.60
                             4619.12

 Zero-point correction=                           0.066465 (Hartree/Particle)
 Thermal correction to Energy=                    0.070822
 Thermal correction to Enthalpy=                  0.071766
 Thermal correction to Gibbs Free Energy=         0.038716
 Sum of electronic and zero-point Energies=           -192.710344
 Sum of electronic and thermal Energies=              -192.705987
 Sum of electronic and thermal Enthalpies=            -192.705043
 Sum of electronic and thermal Free Energies=         -192.738092

                     E (Thermal)             CV                S
                      KCal/Mol        Cal/Mol-Kelvin    Cal/Mol-Kelvin
 Total                   44.441             15.045             69.558
 Electronic               0.000              0.000              2.183
 Translational            0.889              2.981             38.389
 Rotational               0.889              2.981             24.203
 Vibrational             42.664              9.083              4.783
 Vibration     1          0.652              1.796              1.882
 Vibration     2          0.707              1.632              1.302

 Optimization completed.
    -- Stationary point found.
 Normal termination of Gaussian 09 at Mon Jun 20 03:26:12 2016.
