 Gaussian 09, Revision E.01,
 Gaussian 09:  EM64L-G09RevE.01 30-Nov-2015

 ---------------------------------------------
 #p b3lyp/6-311++G(3df,2p) freq symmetry=Loose
 ---------------------------------------------

 ---------
 b3lyp opt
 ---------
 Symbolic Z-matrix:
 Charge =  0 Multiplicity = 1

                         Standard orientation:
 ---------------------------------------------------------------------
 Center     Atomic      Atomic             Coordinates (Angstroms)
 Number     Number       Type             X           Y           Z
 ---------------------------------------------------------------------
      1          6           0       -1.401180    1.067782    0.000000
      2          6           0        0.000000    0.910376    0.000000
      3          6           0       -0.878959   -0.243300    0.000000
      4          6           0        0.312347   -1.199741    0.000000
      5          1           0        0.326590   -1.835786    0.882945
      6          1           0        0.326590   -1.835786   -0.882945
      7          6           0        1.239797    0.018647    0.000000
      8          1           0        1.857396    0.174496    0.882450
      9          1           0        1.857396    0.174496   -0.882450
 ---------------------------------------------------------------------

 SCF Done:  E(RB3LYP) =  -192.747091670     A.U. after   12 cycles

 The electronic state is 1-A'.
 Alpha  occ. eigenvalues --  -10.23084 -10.23063 -10.22508 -10.22465 -10.22081
 Alpha  occ. eigenvalues --   -0.95903  -0.80610  -0.68821  -0.56826  -0.51493
 Alpha  occ. eigenvalues --   -0.49153  -0.44046  -0.41285  -0.36909  -0.35475
 Alpha  occ. eigenvalues --   -0.34249  -0.20502
 Alpha virt. eigenvalues --   -0.04016  -0.02388  -0.02082  -0.00439   0.01618
 Alpha virt. eigenvalues --    0.03218   0.04382   0.04688   0.04966   0.05747
 Alpha virt. eigenvalues --    0.07260   0.08440   0.09259   0.10522   0.11060

 Mulliken charges:
               1
     1  C   -0.134884
     2  C   -0.008570
     3  C   -0.016444
     4  C   -0.256811
     5  H    0.169027
     6  H    0.169027
     7  C   -0.259627
     8  H    0.169140
     9  H    0.169140
 Sum of Mulliken charges =  -0.00000

 Dipole moment (field-independent basis, Debye):
    X=              3.9895    Y=             -3.0276    Z=             -0.0000  Tot=              5.0083
 Quadrupole moment (field-independent basis, Debye-Ang):
   XX=            -34.5134   YY=            -32.7409   ZZ=            -28.3244
   XY=              3.1946   XZ=             -0.0000   YZ=              0.0000

  Exact polarizability:  61.184  -5.283  58.279   0.000  -0.000  40.032
 Approx polarizability:  96.661   0.968  97.245  -0.000   0.000  62.749

                      1                      2                      3
                     A"                     A'                     A"
 Frequencies --    225.1219               246.9998               326.0440
 Red. masses --      1.9552                 9.1420                 4.9030
 Frc consts  --      0.0584                 0.3286                 0.3071
 IR Inten    --      0.0000                81.3757                 0.7422

                      4                      5                      6
                     A'                     A"                     A'
 Frequencies --    683.5606               699.7929               755.2459
 Red. masses --      9.6133                 1.1444                 4.9400
 Frc consts  --      2.6465                 0.3302                 1.6602
 IR Inten    --     11.4832                 5.2991                 0.1399

                      7                      8                      9
                     A'                     A"                     A'
 Frequencies --    873.5683              1008.3991              1041.6699
 Red. masses --      3.7902                 1.8971                 3.5449
 Frc consts  --      1.7041                 1.1366                 2.2663
 IR Inten    --      0.9958                 0.0001                 1.5593

                     10                     11                     12
                     A"                     A'                     A"
 Frequencies --   1106.6240              1146.5278              1203.6904
 Red. masses --      1.1302                 5.2060                 1.1366
 Frc consts  --      0.8155                 4.0320                 0.9702
 IR Inten    --      0.9745                15.2512                 0.0000

                     13                     14                     15
                     A'                     A'                     A'
 Frequencies --   1239.3863              1254.4828              1448.5330
 Red. masses --      1.4907                 1.4769                 1.0857
 Frc consts  --      1.3491                 1.3694                 1.3422
 IR Inten    --      7.9371                 2.5731                 9.7601

                     16                     17                     18
                     A'                     A'                     A'
 Frequencies --   1457.2755              1571.9352              3067.5693
 Red. masses --      1.1586                 8.3260                 1.0565
 Frc consts  --      1.4496                12.1216                 5.8574
 IR Inten    --      0.5050                76.7594                 9.7778

                     19                     20                     21
                     A'                     A"                     A"
 Frequencies --   3068.6467              3110.7395              3123.7840
 Red. masses --      1.0604                 1.1091                 1.1071
 Frc consts  --      5.8830                 6.3234                 6.3650
 IR Inten    --      9.0166                 0.0003                 5.2656

 - Thermochemistry -
 -------------------
 Temperature   298.150 Kelvin.  Pressure   1.00000 Atm.
 Atom     1 has atomic number  6 and mass  12.00000

 Molecular mass:    64.03130 amu.
 Principal axes and moments of inertia in atomic units:
                           1         2         3
     Eigenvalues --   129.50328 277.25128 384.32108
           X            0.79575   0.60563   0.00000
           Y           -0.60563   0.79575   0.00000
           Z           -0.00000   0.00000   1.00000
 This molecule is an asymmetric top.
 Rotational symmetry number  1.
 Rotational temperatures (Kelvin)      0.66882     0.31240     0.22537
 Rotational constants (GHZ):          13.93587     6.50941     4.69592
 Zero-point vibrational energy     171422.5 (Joules/Mol)
                                   40.97095 (Kcal/Mol)
 Warning -- explicit consideration of   3 degrees of freedom as
           vibrations may cause significant error
 Vibrational temperatures:    323.90   355.38   469.10   983.49  1006.84
          (Kelvin)           1086.63  1256.87  1450.86  1498.73  1592.18
                             1649.60  1731.84  1783.20  1804.92  2084.11
                             2096.69  2261.66  4413.54  4415.09  4475.65
                             4494.42

 Zero-point correction=                           0.065291 (Hartree/Particle)
 Thermal correction to Energy=                    0.070082
 Thermal correction to Enthalpy=                  0.071026
 Thermal correction to Gibbs Free Energy=         0.038271
 Sum of electronic and zero-point Energies=           -192.681800
 Sum of electronic and thermal Energies=              -192.677010
 Sum of electronic and thermal Enthalpies=            -192.676066
 Sum of electronic and thermal Free Energies=         -192.708821

                     E (Thermal)             CV                S
                      KCal/Mol        Cal/Mol-Kelvin    Cal/Mol-Kelvin
 Total                   43.977             16.119             68.939
 Electronic               0.000              0.000              0.000
 Translational            0.889              2.981             38.389
 Rotational               0.889              2.981             24.138
 Vibrational             42.199             10.158              6.412
 Vibration     1          0.650              1.803              1.918
 Vibration     2          0.661              1.768              1.752
 Vibration     3          0.710              1.623              1.280

 Normal termination of Gaussian 09 at Wed Jun 22 02:41:15 2016.
