 Gaussian 09, Revision E.01,
 Gaussian 09:  EM64L-G09RevE.01 30-Nov-2015

 ------------------------------------------------------
 #p b3lyp/6-311++G(3df,2p) freq IOp(2/17=3) IOp(2/18=3)
 ------------------------------------------------------

 ---------
 b3lyp opt
 ---------
 Symbolic Z-matrix:
 Charge =  0 Multiplicity = 3

                         Standard orientation:
 ---------------------------------------------------------------------
 Center     Atomic      Atomic             Coordinates (Angstroms)
 Number     Number       Type             X           Y           Z
 ---------------------------------------------------------------------
      1          6           0       -1.092897    0.152610    0.000000
      2          6           0        1.261059    0.357130    0.000000
      3          1           0       -2.157439    0.361677    0.000000
      4          1           0       -0.043019    1.858225    0.870519
      5          6           0        0.897887   -0.949279    0.000000
      6          6           0        0.000000    1.196414    0.000000
      7          1           0       -0.043019    1.858225   -0.870519
      8          6           0       -0.514575   -1.098299    0.000000
      9          1           0       -1.065197   -2.029523    0.000000
 ---------------------------------------------------------------------

 SCF Done:  E(UB3LYP) =  -192.758808953     A.U. after   17 cycles

 The electronic state is 3-A".
 Alpha  occ. eigenvalues --  -10.23312 -10.21453 -10.20859 -10.20174 -10.19524
 Alpha  occ. eigenvalues --   -0.89746  -0.73583  -0.73021  -0.58314  -0.51564
 Alpha  occ. eigenvalues --   -0.51161  -0.47109  -0.41115  -0.40084  -0.34497
 Alpha  occ. eigenvalues --   -0.27901  -0.26918  -0.21752
 Alpha virt. eigenvalues --   -0.07140  -0.01410   0.00927   0.01873   0.01990
 Alpha virt. eigenvalues --    0.03655   0.05331   0.05759   0.06753   0.07294
 Alpha virt. eigenvalues --    0.09025   0.09882   0.11028   0.11090   0.12366

  Beta  occ. eigenvalues --  -10.22655 -10.21368 -10.20651 -10.18861 -10.18132
  Beta  occ. eigenvalues --   -0.88043  -0.72730  -0.70127  -0.57385  -0.50196
  Beta  occ. eigenvalues --   -0.49005  -0.45813  -0.40386  -0.38972  -0.32231
  Beta  occ. eigenvalues --   -0.22073
  Beta virt. eigenvalues --   -0.16007  -0.09316  -0.03786  -0.01348   0.01054
  Beta virt. eigenvalues --    0.02009   0.02068   0.05478   0.06044   0.07019
  Beta virt. eigenvalues --    0.07115   0.07432   0.09716   0.10033   0.11158

 Mulliken charges and spin densities:
               1          2
     1  C   -0.043801   0.498337
     2  C   -0.350196   0.774945
     3  H    0.192367  -0.019890
     4  H    0.134200   0.001375
     5  C    0.081972   0.876563
     6  C   -0.203355  -0.023167
     7  H    0.134200   0.001375
     8  C   -0.114172  -0.107837
     9  H    0.168785  -0.001702
 Sum of Mulliken charges =  -0.00000   2.00000

 Dipole moment (field-independent basis, Debye):
    X=             -3.8740    Y=              1.0736    Z=              0.0000  Tot=              4.0200
 Quadrupole moment (field-independent basis, Debye-Ang):
   XX=            -34.2881   YY=            -28.8275   ZZ=            -30.1355
   XY=              0.8323   XZ=              0.0000   YZ=              0.0000

  Exact polarizability:  70.000   3.047  77.950   0.000  -0.000  35.068
 Approx polarizability: 109.000   5.226 128.510  -0.000   0.000  63.312

                      1                      2                      3
                     A"                     A'                     A"
 Frequencies --    316.3599               481.5770               489.0101
 Red. masses --      1.6218                 9.8761                 3.0106
 Frc consts  --      0.0956                 1.3495                 0.4242
 IR Inten    --      2.2334               261.5515                 0.0407

                      4                      5                      6
                     A"                     A'                     A'
 Frequencies --    793.1660               818.6478               892.3452
 Red. masses --      1.9083                 7.0279                 2.4047
 Frc consts  --      0.7073                 2.7750                 1.1282
 IR Inten    --     25.1649                 0.3954                14.3014

                      7                      8                      9
                     A'                     A"                     A"
 Frequencies --    928.6472               961.8475               974.2894
 Red. masses --      3.4617                 1.3189                 1.3459
 Frc consts  --      1.7589                 0.7189                 0.7527
 IR Inten    --     10.2666                86.5349                26.9683

                     10                     11                     12
                     A'                     A'                     A"
 Frequencies --   1087.3836              1100.8745              1131.1822
 Red. masses --      1.6532                 2.3222                 1.1765
 Frc consts  --      1.1517                 1.6581                 0.8870
 IR Inten    --      6.9789                12.3913                 4.2152

                     13                     14                     15
                     A'                     A'                     A'
 Frequencies --   1219.8887              1351.2089              1389.2845
 Red. masses --      1.5639                 1.7682                 1.4930
 Frc consts  --      1.3712                 1.9020                 1.6978
 IR Inten    --     15.1149                23.5886                 3.0246

                     16                     17                     18
                     A'                     A'                     A'
 Frequencies --   1436.9229              1499.0640              3024.6117
 Red. masses --      1.9671                 7.9572                 1.0605
 Frc consts  --      2.3930                10.5354                 5.7159
 IR Inten    --     37.4915                15.7051                 3.6939

                     19                     20                     21
                     A"                     A'                     A'
 Frequencies --   3047.5504              3150.8298              3185.4223
 Red. masses --      1.0987                 1.0883                 1.0972
 Frc consts  --      6.0119                 6.3655                 6.5598
 IR Inten    --      0.0000                11.6964                24.4958

 - Thermochemistry -
 -------------------
 Temperature   298.150 Kelvin.  Pressure   1.00000 Atm.
 Atom     1 has atomic number  6 and mass  12.00000

 Molecular mass:    64.03130 amu.
 Principal axes and moments of inertia in atomic units:
                           1         2         3
     Eigenvalues --   189.41570 204.99815 383.50449
           X            0.31163   0.95020   0.00000
           Y            0.95020  -0.31163   0.00000
           Z            0.00000  -0.00000   1.00000
 This molecule is an asymmetric top.
 Rotational symmetry number  1.
 Rotational temperatures (Kelvin)      0.45727     0.42251     0.22585
 Rotational constants (GHZ):           9.52794     8.80370     4.70592
 Zero-point vibrational energy     175134.0 (Joules/Mol)
                                   41.85802 (Kcal/Mol)
 Warning -- explicit consideration of   3 degrees of freedom as
           vibrations may cause significant error
 Vibrational temperatures:    455.17   692.88   703.58  1141.19  1177.85
          (Kelvin)           1283.88  1336.11  1383.88  1401.78  1564.50
                             1583.91  1627.52  1755.15  1944.09  1998.87
                             2067.41  2156.82  4351.74  4384.74  4533.34
                             4583.11

 Zero-point correction=                           0.066705 (Hartree/Particle)
 Thermal correction to Energy=                    0.070866
 Thermal correction to Enthalpy=                  0.071810
 Thermal correction to Gibbs Free Energy=         0.039177
 Sum of electronic and zero-point Energies=           -192.692104
 Sum of electronic and thermal Energies=              -192.687943
 Sum of electronic and thermal Enthalpies=            -192.686999
 Sum of electronic and thermal Free Energies=         -192.719632

                     E (Thermal)             CV                S
                      KCal/Mol        Cal/Mol-Kelvin    Cal/Mol-Kelvin
 Total                   44.469             14.672             68.683
 Electronic               0.000              0.000              2.183
 Translational            0.889              2.981             38.389
 Rotational               0.889              2.981             24.214
 Vibrational             42.692              8.710              3.897
 Vibration     1          0.703              1.642              1.329
 Vibration     2          0.838              1.291              0.706
 Vibration     3          0.845              1.274              0.686

 Optimization completed.
    -- Stationary point found.
 Normal termination of Gaussian 09 at Thu Jan 31 06:59:57 2019.
