 Gaussian 09, Revision E.01,
 Gaussian 09:  EM64L-G09RevE.01 30-Nov-2015

 ------------------------------------------------------
 #p b3lyp/6-311++G(3df,2p) freq IOp(2/17=3) IOp(2/18=3)
 ------------------------------------------------------

 ---------
 b3lyp opt
 ---------
 Symbolic Z-matrix:
 Charge =  1 Multiplicity = 2

                         Standard orientation:
 ---------------------------------------------------------------------
 Center     Atomic      Atomic             Coordinates (Angstroms)
 Number     Number       Type             X           Y           Z
 ---------------------------------------------------------------------
      1          6           0        0.612859    0.152891   -0.840035
      2          1           0        1.449232    0.192032   -1.520442
      3          6           0       -0.000000    1.173065   -0.000000
      4          6           0        0.612859    0.152891    0.840035
      5          1           0        1.449232    0.192032    1.520442
      6          6           0       -0.624064   -0.624238    0.691061
      7          1           0       -1.381928   -0.883232    1.417798
      8          6           0       -0.624064   -0.624238   -0.691061
      9          1           0       -1.381928   -0.883232   -1.417798
 ---------------------------------------------------------------------

 SCF Done:  E(UB3LYP) =  -192.468636654     A.U. after   15 cycles

 The electronic state is 2-A'.
 Alpha  occ. eigenvalues --  -10.50741 -10.47989 -10.47980 -10.46835 -10.46778
 Alpha  occ. eigenvalues --   -1.23179  -0.97205  -0.93717  -0.81656  -0.77726
 Alpha  occ. eigenvalues --   -0.77036  -0.69069  -0.66509  -0.63535  -0.59183
 Alpha  occ. eigenvalues --   -0.54548  -0.48077
 Alpha virt. eigenvalues --   -0.29570  -0.26495  -0.18781  -0.15002  -0.13949
 Alpha virt. eigenvalues --   -0.12359  -0.11512  -0.10749  -0.08857  -0.08285
 Alpha virt. eigenvalues --   -0.07662  -0.06983  -0.06217  -0.05679  -0.03342

  Beta  occ. eigenvalues --  -10.49870 -10.47543 -10.47537 -10.46801 -10.46744
  Beta  occ. eigenvalues --   -1.22319  -0.96598  -0.92857  -0.80154  -0.77287
  Beta  occ. eigenvalues --   -0.76308  -0.68169  -0.66024  -0.61285  -0.58279
  Beta  occ. eigenvalues --   -0.52650
  Beta virt. eigenvalues --   -0.36914  -0.28209  -0.26162  -0.17138  -0.14737
  Beta virt. eigenvalues --   -0.13824  -0.11644  -0.11287  -0.10615  -0.08621
  Beta virt. eigenvalues --   -0.07982  -0.07451  -0.06512  -0.06110  -0.05411

 Mulliken charges and spin densities:
               1          2
     1  C    0.057998   0.264013
     2  H    0.308891  -0.012011
     3  C   -0.048976   0.463002
     4  C    0.057998   0.264013
     5  H    0.308891  -0.012011
     6  C   -0.068441   0.010021
     7  H    0.226040   0.006475
     8  C   -0.068441   0.010021
     9  H    0.226040   0.006475
 Sum of Mulliken charges =   1.00000   1.00000

 Dipole moment (field-independent basis, Debye):
    X=              0.4348    Y=             -1.2549    Z=             -0.0000  Tot=              1.3281
 Quadrupole moment (field-independent basis, Debye-Ang):
   XX=            -19.7148   YY=            -26.6241   ZZ=            -18.4833
   XY=              3.8107   XZ=             -0.0000   YZ=             -0.0000

  Exact polarizability:  41.886   5.746  46.696   0.000  -0.000  46.268
 Approx polarizability:  65.005  12.643  97.677  -0.000   0.000  78.969

                      1                      2                      3
                     A'                     A"                     A'
 Frequencies --    281.3674               343.6175               628.2052
 Red. masses --      4.0107                 2.6440                 4.0755
 Frc consts  --      0.1871                 0.1839                 0.9476
 IR Inten    --     12.2557                 0.7106                 0.7290

                      4                      5                      6
                     A"                     A'                     A"
 Frequencies --    725.4843               783.8092               853.4099
 Red. masses --      7.1215                 1.1930                 1.4927
 Frc consts  --      2.2084                 0.4318                 0.6405
 IR Inten    --      0.0361                36.7479                 3.5003

                      7                      8                      9
                     A'                     A"                     A'
 Frequencies --    903.4480               932.8633               983.2205
 Red. masses --      1.5657                 1.6512                 1.7047
 Frc consts  --      0.7530                 0.8466                 0.9710
 IR Inten    --    111.8240                 0.0007                 1.6422

                     10                     11                     12
                     A"                     A"                     A'
 Frequencies --   1011.6476              1027.5680              1083.4632
 Red. masses --      1.4774                 2.5951                 1.2156
 Frc consts  --      0.8909                 1.6145                 0.8407
 IR Inten    --      0.9499                16.2020                 3.7312

                     13                     14                     15
                     A'                     A"                     A'
 Frequencies --   1134.5419              1156.9859              1260.1841
 Red. masses --      1.9582                 1.4725                 5.9294
 Frc consts  --      1.4851                 1.1613                 5.5479
 IR Inten    --      1.0893                 0.0135                 3.4591

                     16                     17                     18
                     A"                     A'                     A"
 Frequencies --   1344.6809              1469.5920              3208.2162
 Red. masses --      2.0749                 4.4806                 1.0916
 Frc consts  --      2.2104                 5.7014                 6.6199
 IR Inten    --     30.2113                52.4276                12.8975

                     19                     20                     21
                     A'                     A"                     A'
 Frequencies --   3225.6409              3241.0515              3247.7546
 Red. masses --      1.1058                 1.0991                 1.1055
 Frc consts  --      6.7787                 6.8022                 6.8704
 IR Inten    --     37.2634                71.1765                39.0689

 - Thermochemistry -
 -------------------
 Temperature   298.150 Kelvin.  Pressure   1.00000 Atm.
 Atom     1 has atomic number  6 and mass  12.00000

 Molecular mass:    64.03130 amu.
 Principal axes and moments of inertia in atomic units:
                           1         2         3
     Eigenvalues --   177.51112 194.57752 282.10236
           X            0.68752   0.00000   0.72616
           Y            0.72616   0.00000  -0.68752
           Z           -0.00000   1.00000   0.00000
 This molecule is an asymmetric top.
 Rotational symmetry number  1.
 Rotational temperatures (Kelvin)      0.48793     0.44514     0.30703
 Rotational constants (GHZ):          10.16692     9.27518     6.39747
 Zero-point vibrational energy     172541.9 (Joules/Mol)
                                   41.23850 (Kcal/Mol)
 Warning -- explicit consideration of   2 degrees of freedom as
           vibrations may cause significant error
 Vibrational temperatures:    404.82   494.39   903.85  1043.81  1127.73
          (Kelvin)           1227.86  1299.86  1342.18  1414.63  1455.53
                             1478.44  1558.86  1632.35  1664.64  1813.12
                             1934.69  2114.41  4615.90  4640.97  4663.14
                             4672.79

 Zero-point correction=                           0.065718 (Hartree/Particle)
 Thermal correction to Energy=                    0.070063
 Thermal correction to Enthalpy=                  0.071007
 Thermal correction to Gibbs Free Energy=         0.038641
 Sum of electronic and zero-point Energies=           -192.402919
 Sum of electronic and thermal Energies=              -192.398574
 Sum of electronic and thermal Enthalpies=            -192.397629
 Sum of electronic and thermal Free Energies=         -192.429996

                     E (Thermal)             CV                S
                      KCal/Mol        Cal/Mol-Kelvin    Cal/Mol-Kelvin
 Total                   43.965             15.478             68.121
 Electronic               0.000              0.000              1.377
 Translational            0.889              2.981             38.389
 Rotational               0.889              2.981             23.792
 Vibrational             42.188              9.516              4.562
 Vibration     1          0.681              1.708              1.525
 Vibration     2          0.722              1.588              1.195

 Optimization completed.
    -- Stationary point found.
 Normal termination of Gaussian 09 at Thu Jan 31 07:29:12 2019.
