 Gaussian 09, Revision E.01,
 Gaussian 09:  EM64L-G09RevE.01 30-Nov-2015

 ------------------------------------------------------
 #p b3lyp/6-311++G(3df,2p) freq IOp(2/17=3) IOp(2/18=3)
 ------------------------------------------------------

 ---------
 b3lyp opt
 ---------
 Symbolic Z-matrix:
 Charge =  0 Multiplicity = 1

                         Standard orientation:
 ---------------------------------------------------------------------
 Center     Atomic      Atomic             Coordinates (Angstroms)
 Number     Number       Type             X           Y           Z
 ---------------------------------------------------------------------
      1          6           0       -1.604441   -0.892829    0.000000
      2          1           0       -2.578244   -0.405450    0.000000
      3          1           0       -1.520169   -1.533729    0.879068
      4          1           0       -1.520169   -1.533729   -0.879068
      5          6           0        0.970171    0.160195    0.000000
      6          6           0        2.100903   -0.448925    0.000000
      7          6           0       -0.524712    0.099052    0.000000
      8          6           0        0.000000    1.270746    0.000000
      9          1           0       -0.032809    2.343433    0.000000
 ---------------------------------------------------------------------

 SCF Done:  E(RB3LYP) =  -192.770492844     A.U. after   13 cycles

 The electronic state is 1-A'.
 Alpha  occ. eigenvalues --  -10.26072 -10.24500 -10.21874 -10.19007 -10.18217
 Alpha  occ. eigenvalues --   -0.93558  -0.78156  -0.70953  -0.59974  -0.53139
 Alpha  occ. eigenvalues --   -0.48386  -0.47253  -0.41994  -0.38716  -0.34920
 Alpha  occ. eigenvalues --   -0.26580  -0.22565
 Alpha virt. eigenvalues --   -0.08137  -0.03835  -0.02005   0.00332   0.02114
 Alpha virt. eigenvalues --    0.02709   0.03982   0.04441   0.05500   0.07135
 Alpha virt. eigenvalues --    0.07632   0.08694   0.08932   0.09368   0.09792

 Mulliken charges:
               1
     1  C   -0.431139
     2  H    0.153533
     3  H    0.166648
     4  H    0.166648
     5  C    0.669651
     6  C   -0.928363
     7  C   -0.183255
     8  C    0.108223
     9  H    0.278055
 Sum of Mulliken charges =  -0.00000

 Dipole moment (field-independent basis, Debye):
    X=             -5.4943    Y=              1.6289    Z=             -0.0000  Tot=              5.7307
 Quadrupole moment (field-independent basis, Debye-Ang):
   XX=            -38.5517   YY=            -25.3163   ZZ=            -31.4879
   XY=              5.1491   XZ=              0.0000   YZ=              0.0000

  Exact polarizability:  76.372  -2.576  59.259  -0.000  -0.000  41.128
 Approx polarizability: 115.285  -8.931  95.009   0.000   0.000  59.228

                      1                      2                      3
                     A'                     A"                     A"
 Frequencies --    132.3452               162.0505               293.7265
 Red. masses --      5.8217                 1.0697                 2.6901
 Frc consts  --      0.0601                 0.0166                 0.1367
 IR Inten    --      9.7221                 1.3890                 6.6319

                      4                      5                      6
                     A'                     A"                     A'
 Frequencies --    359.4680               423.2403               633.1009
 Red. masses --      3.1278                 6.6815                 5.4610
 Frc consts  --      0.2381                 0.7052                 1.2896
 IR Inten    --      1.2438                 0.0637                 5.4495

                      7                      8                      9
                     A"                     A'                     A'
 Frequencies --    715.7709               830.8530               933.2614
 Red. masses --      1.4027                 3.5091                 3.0326
 Frc consts  --      0.4234                 1.4273                 1.5562
 IR Inten    --     24.9880                 3.8153                10.8471

                     10                     11                     12
                     A'                     A"                     A'
 Frequencies --   1009.1254              1049.3990              1084.9349
 Red. masses --      1.6612                 1.4626                 1.6038
 Frc consts  --      0.9967                 0.9490                 1.1123
 IR Inten    --      8.6887                 1.9114                18.5451

                     13                     14                     15
                     A'                     A"                     A'
 Frequencies --   1408.2829              1468.8612              1477.9672
 Red. masses --      1.2252                 1.0410                 1.0454
 Frc consts  --      1.4317                 1.3233                 1.3455
 IR Inten    --      3.2131                10.7839                10.6233

                     16                     17                     18
                     A'                     A'                     A'
 Frequencies --   1670.9493              1941.1260              3031.0248
 Red. masses --     10.2611                 7.9281                 1.0337
 Frc consts  --     16.8799                17.6006                 5.5955
 IR Inten    --     91.7395                16.7589                 7.0076

                     19                     20                     21
                     A"                     A'                     A'
 Frequencies --   3087.6500              3113.9398              3296.1083
 Red. masses --      1.0999                 1.1032                 1.1205
 Frc consts  --      6.1781                 6.3025                 7.1727
 IR Inten    --      1.9147                 3.9109                20.0235

 - Thermochemistry -
 -------------------
 Temperature   298.150 Kelvin.  Pressure   1.00000 Atm.
 Atom     1 has atomic number  6 and mass  12.00000

 Molecular mass:    64.03130 amu.
 Principal axes and moments of inertia in atomic units:
                           1         2         3
     Eigenvalues --   148.01176 404.24300 541.13009
           X            0.98370  -0.17980   0.00000
           Y            0.17980   0.98370   0.00000
           Z            0.00000   0.00000   1.00000
 This molecule is an asymmetric top.
 Rotational symmetry number  1.
 Rotational temperatures (Kelvin)      0.58518     0.21426     0.16006
 Rotational constants (GHZ):          12.19323     4.46450     3.33513
 Zero-point vibrational energy     168214.0 (Joules/Mol)
                                   40.20411 (Kcal/Mol)
 Warning -- explicit consideration of   5 degrees of freedom as
           vibrations may cause significant error
 Vibrational temperatures:    190.41   233.15   422.61   517.19   608.95
          (Kelvin)            910.89  1029.83  1195.41  1342.75  1451.90
                             1509.85  1560.98  2026.20  2113.36  2126.46
                             2404.12  2792.84  4360.96  4442.43  4480.26
                             4742.36

 Zero-point correction=                           0.064069 (Hartree/Particle)
 Thermal correction to Energy=                    0.069746
 Thermal correction to Enthalpy=                  0.070690
 Thermal correction to Gibbs Free Energy=         0.035747
 Sum of electronic and zero-point Energies=           -192.706424
 Sum of electronic and thermal Energies=              -192.700747
 Sum of electronic and thermal Enthalpies=            -192.699803
 Sum of electronic and thermal Free Energies=         -192.734746

                     E (Thermal)             CV                S
                      KCal/Mol        Cal/Mol-Kelvin    Cal/Mol-Kelvin
 Total                   43.766             18.562             73.544
 Electronic               0.000              0.000              0.000
 Translational            0.889              2.981             38.389
 Rotational               0.889              2.981             24.985
 Vibrational             41.989             12.600             10.169
 Vibration     1          0.612              1.921              2.912
 Vibration     2          0.622              1.889              2.526
 Vibration     3          0.689              1.685              1.452
 Vibration     4          0.734              1.556              1.124
 Vibration     5          0.785              1.420              0.881

 Normal termination of Gaussian 09 at Thu Jan 31 06:27:40 2019.
