 Gaussian 09, Revision D.01,
 Gaussian 09:  EM64L-G09RevD.01 24-Apr-2013

 ------------------------------
 #p b3lyp/6-311++G(3df,2p) freq
 ------------------------------

 ---------
 b3lyp opt
 ---------
 Symbolic Z-matrix:
 Charge =  1 Multiplicity = 3

                         Standard orientation:
 ---------------------------------------------------------------------
 Center     Atomic      Atomic             Coordinates (Angstroms)
 Number     Number       Type             X           Y           Z
 ---------------------------------------------------------------------
      1          6           0        0.636112   -0.000039    0.084560
      2          6           0       -0.766471    0.000062   -0.040856
      3          1           0       -1.384545    0.911887    0.024665
      4          1           0        1.134884   -0.002204    1.055393
      5          1           0        1.206398    0.677985   -0.680765
      6          1           0       -1.383242   -0.913105    0.020602
      7          1           0        1.208660   -0.674700   -0.682123
 ---------------------------------------------------------------------

 SCF Done:  E(UB3LYP) =  -78.7528364060     A.U. after   12 cycles

 The electronic state is 3-A.
 Alpha  occ. eigenvalues --  -10.51318 -10.45671  -1.08589  -0.92162  -0.75842
 Alpha  occ. eigenvalues --   -0.72955  -0.72116  -0.62024  -0.48576
 Alpha virt. eigenvalues --   -0.20252  -0.18976  -0.15886  -0.13492  -0.11729
 Alpha virt. eigenvalues --   -0.10452  -0.08644  -0.07876  -0.06323  -0.04950
 Alpha virt. eigenvalues --   -0.04325  -0.02883  -0.01926  -0.00899  -0.00730

  Beta  occ. eigenvalues --  -10.50800 -10.44085  -1.04684  -0.87008  -0.73210
  Beta  occ. eigenvalues --   -0.70101  -0.67699
  Beta virt. eigenvalues --   -0.49994  -0.32220  -0.19368  -0.15974  -0.14887
  Beta virt. eigenvalues --   -0.13156  -0.11035  -0.09965  -0.08321  -0.07144
  Beta virt. eigenvalues --   -0.04877  -0.04063  -0.03795  -0.01650  -0.00666

 Mulliken charges and spin densities:
               1          2
     1  C   -0.066439   0.305250
     2  C   -0.158744   1.063427
     3  H    0.244479   0.083693
     4  H    0.230993   0.042611
     5  H    0.252661   0.210371
     6  H    0.244450   0.084204
     7  H    0.252599   0.210444
 Sum of Mulliken charges =   1.00000   2.00000

 Dipole moment (field-independent basis, Debye):
    X=              1.4851    Y=              0.0004    Z=             -0.6373  Tot=              1.6161
 Quadrupole moment (field-independent basis, Debye-Ang):
   XX=             -4.6503   YY=             -9.8220   ZZ=            -11.1480
   XY=              0.0022   XZ=             -1.3556   YZ=              0.0008

  Exact polarizability:  37.945   0.008  21.084  -1.693   0.000  19.987
 Approx polarizability:  56.455   0.019  29.942  -3.552   0.000  26.726

                      1                      2                      3
                      A                      A                      A
 Frequencies --    288.1722               363.6593               512.4072
 Red. masses --      1.2261                 1.1303                 1.1222
 Frc consts  --      0.0600                 0.0881                 0.1736
 IR Inten    --    123.8045                39.8672                28.3106

                      4                      5                      6
                      A                      A                      A
 Frequencies --    631.8491               728.7705               879.0826
 Red. masses --      1.0590                 1.1511                 1.3534
 Frc consts  --      0.2491                 0.3602                 0.6162
 IR Inten    --      5.7347               634.4593                76.5637

                      7                      8                      9
                      A                      A                      A
 Frequencies --    964.1921              1168.6961              1312.9725
 Red. masses --      1.2988                 1.3864                 1.6245
 Frc consts  --      0.7114                 1.1157                 1.6500
 IR Inten    --     33.7781                 9.2818                44.0484

                     10                     11                     12
                      A                      A                      A
 Frequencies --   1417.3170              2191.7466              2497.2094
 Red. masses --      1.3420                 1.0315                 1.0903
 Frc consts  --      1.5883                 2.9195                 4.0059
 IR Inten    --      6.6777               101.9843               195.3127

                     13                     14                     15
                      A                      A                      A
 Frequencies --   2932.5020              2934.9597              3083.2780
 Red. masses --      1.0902                 1.0619                 1.0868
 Frc consts  --      5.5238                 5.3895                 6.0871
 IR Inten    --    152.4356               337.7430                21.0331

 - Thermochemistry -
 -------------------
 Temperature   298.150 Kelvin.  Pressure   1.00000 Atm.
 Atom     1 has atomic number  6 and mass  12.00000

 Molecular mass:    29.03913 amu.
 Principal axes and moments of inertia in atomic units:
                           1         2         3
     Eigenvalues --    16.95792  79.08186  80.69617
           X            0.99959   0.00003  -0.02879
           Y           -0.00002   1.00000   0.00005
           Z            0.02879  -0.00005   0.99959
 This molecule is an asymmetric top.
 Rotational symmetry number  1.
 Rotational temperatures (Kelvin)      5.10757     1.09524     1.07333
 Rotational constants (GHZ):         106.42471    22.82118    22.36465
 Zero-point vibrational energy     131031.8 (Joules/Mol)
                                   31.31736 (Kcal/Mol)
 Warning -- explicit consideration of   3 degrees of freedom as
           vibrations may cause significant error
 Vibrational temperatures:    414.62   523.22   737.24   909.09  1048.54
          (Kelvin)           1264.80  1387.26  1681.49  1889.07  2039.20
                             3153.43  3592.92  4219.21  4222.75  4436.14

 Zero-point correction=                           0.049907 (Hartree/Particle)
 Thermal correction to Energy=                    0.054119
 Thermal correction to Enthalpy=                  0.055063
 Thermal correction to Gibbs Free Energy=         0.025711
 Sum of electronic and zero-point Energies=            -78.702929
 Sum of electronic and thermal Energies=               -78.698717
 Sum of electronic and thermal Enthalpies=             -78.697773
 Sum of electronic and thermal Free Energies=          -78.727125

                     E (Thermal)             CV                S
                      KCal/Mol        Cal/Mol-Kelvin    Cal/Mol-Kelvin
 Total                   33.960             13.590             61.777
 Electronic               0.000              0.000              2.183
 Translational            0.889              2.981             36.032
 Rotational               0.889              2.981             19.321
 Vibrational             32.183              7.629              4.241
 Vibration     1          0.685              1.696              1.485
 Vibration     2          0.737              1.547              1.106
 Vibration     3          0.867              1.223              0.628

 Normal termination of Gaussian 09 at Thu Aug  8 07:26:45 2019.
