 Gaussian 09, Revision D.01,
 Gaussian 09:  EM64L-G09RevD.01 24-Apr-2013

 ------------------------------
 #p b3lyp/6-311++G(3df,2p) freq
 ------------------------------

 ---------
 b3lyp opt
 ---------
 Symbolic Z-matrix:
 Charge =  0 Multiplicity = 2

                         Standard orientation:
 ---------------------------------------------------------------------
 Center     Atomic      Atomic             Coordinates (Angstroms)
 Number     Number       Type             X           Y           Z
 ---------------------------------------------------------------------
      1          6           0        0.009346   -0.691687    0.000000
      2          6           0        0.009346    0.792089    0.000000
      3          1           0       -0.052861    1.348760    0.923972
      4          1           0       -1.011756   -1.101521    0.000000
      5          1           0        0.502662   -1.099205    0.884445
      6          1           0       -0.052861    1.348760   -0.923972
      7          1           0        0.502662   -1.099205   -0.884445
 ---------------------------------------------------------------------

 SCF Done:  E(UB3LYP) =  -79.1901158973     A.U. after   11 cycles

 The electronic state is 2-A'.
 Alpha  occ. eigenvalues --  -10.17608 -10.16650  -0.76133  -0.61303  -0.45597
 Alpha  occ. eigenvalues --   -0.41851  -0.39789  -0.36237  -0.20716
 Alpha virt. eigenvalues --   -0.00425   0.01634   0.02536   0.03364   0.05842
 Alpha virt. eigenvalues --    0.07877   0.09021   0.09398   0.09608   0.12576
 Alpha virt. eigenvalues --    0.12779   0.14498   0.14592   0.16801   0.16816

  Beta  occ. eigenvalues --  -10.16729 -10.16216  -0.74495  -0.58939  -0.44991
  Beta  occ. eigenvalues --   -0.40338  -0.39016  -0.35793
  Beta virt. eigenvalues --   -0.06041  -0.00362   0.01768   0.02512   0.03489
  Beta virt. eigenvalues --    0.05800   0.07842   0.09169   0.09626   0.10940
  Beta virt. eigenvalues --    0.12701   0.12919   0.14643   0.14893   0.16891

 Mulliken charges and spin densities:
               1          2
     1  C   -0.295352  -0.099037
     2  C   -0.386941   1.062726
     3  H    0.136736  -0.028727
     4  H    0.138466   0.066008
     5  H    0.135178   0.013879
     6  H    0.136736  -0.028727
     7  H    0.135178   0.013879
 Sum of Mulliken charges =   0.00000   1.00000

 Dipole moment (field-independent basis, Debye):
    X=             -0.1190    Y=             -0.3037    Z=              0.0000  Tot=              0.3262
 Quadrupole moment (field-independent basis, Debye-Ang):
   XX=            -15.5166   YY=            -14.5845   ZZ=            -13.8035
   XY=             -0.1628   XZ=              0.0000   YZ=              0.0000

  Exact polarizability:  26.227   0.508  31.782   0.000   0.000  26.288
 Approx polarizability:  33.857   0.710  37.751   0.000   0.000  34.604

                      1                      2                      3
                     A"                     A'                     A"
 Frequencies --     97.2340               496.1389               813.4696
 Red. masses --      1.0082                 1.2136                 1.0505
 Frc consts  --      0.0056                 0.1760                 0.4096
 IR Inten    --      0.0036                56.6644                 1.6614

                      4                      5                      6
                     A'                     A'                     A"
 Frequencies --    979.1084              1061.2520              1194.3444
 Red. masses --      1.3338                 3.3718                 1.4740
 Frc consts  --      0.7534                 2.2374                 1.2388
 IR Inten    --      0.6629                 0.0692                 2.1237

                      7                      8                      9
                     A'                     A'                     A"
 Frequencies --   1401.1388              1467.4707              1481.7779
 Red. masses --      1.1847                 1.1035                 1.0344
 Frc consts  --      1.3703                 1.4001                 1.3381
 IR Inten    --      1.9190                 2.4951                 5.8370

                     10                     11                     12
                     A'                     A'                     A'
 Frequencies --   1482.9898              2939.9839              3032.6844
 Red. masses --      1.1252                 1.0626                 1.0658
 Frc consts  --      1.4580                 5.4112                 5.7754
 IR Inten    --      3.1189                26.1924                21.8081

                     13                     14                     15
                     A"                     A'                     A"
 Frequencies --   3075.7377              3139.9230              3238.2856
 Red. masses --      1.1019                 1.0508                 1.1185
 Frc consts  --      6.1416                 6.1042                 6.9108
 IR Inten    --     20.2339                14.2392                13.0984

 - Thermochemistry -
 -------------------
 Temperature   298.150 Kelvin.  Pressure   1.00000 Atm.
 Atom     1 has atomic number  6 and mass  12.00000

 Molecular mass:    29.03913 amu.
 Principal axes and moments of inertia in atomic units:
                           1         2         3
     Eigenvalues --    17.30169  79.03131  85.28105
           X           -0.00658   0.00000   0.99998
           Y            0.99998   0.00000   0.00658
           Z            0.00000   1.00000   0.00000
 This molecule is an asymmetric top.
 Rotational symmetry number  1.
 Rotational temperatures (Kelvin)      5.00609     1.09594     1.01563
 Rotational constants (GHZ):         104.31009    22.83577    21.16228
 Zero-point vibrational energy     154925.6 (Joules/Mol)
                                   37.02811 (Kcal/Mol)
 Warning -- explicit consideration of   2 degrees of freedom as
           vibrations may cause significant error
 Vibrational temperatures:    139.90   713.83  1170.40  1408.72  1526.90
          (Kelvin)           1718.39  2015.92  2111.36  2131.95  2133.69
                             4229.98  4363.35  4425.29  4517.64  4659.16

 Zero-point correction=                           0.059008 (Hartree/Particle)
 Thermal correction to Energy=                    0.062992
 Thermal correction to Enthalpy=                  0.063936
 Thermal correction to Gibbs Free Energy=         0.034738
 Sum of electronic and zero-point Energies=            -79.131108
 Sum of electronic and thermal Energies=               -79.127124
 Sum of electronic and thermal Enthalpies=             -79.126180
 Sum of electronic and thermal Free Energies=          -79.155378

                     E (Thermal)             CV                S
                      KCal/Mol        Cal/Mol-Kelvin    Cal/Mol-Kelvin
 Total                   39.528             11.074             61.452
 Electronic               0.000              0.000              1.377
 Translational            0.889              2.981             36.032
 Rotational               0.889              2.981             19.395
 Vibrational             37.751              5.112              4.647
 Vibration     1          0.603              1.951              3.509
 Vibration     2          0.852              1.259              0.668

 Optimization completed.
    -- Stationary point found.
 Normal termination of Gaussian 09 at Thu Aug  8 23:58:39 2019.
