 Gaussian 09, Revision D.01,
 Gaussian 09:  EM64L-G09RevD.01 24-Apr-2013

 ------------------------------
 #p b3lyp/6-311++G(3df,2p) freq
 ------------------------------

 ---------
 b3lyp opt
 ---------
 Symbolic Z-matrix:
 Charge =  1 Multiplicity = 3

                         Standard orientation:
 ---------------------------------------------------------------------
 Center     Atomic      Atomic             Coordinates (Angstroms)
 Number     Number       Type             X           Y           Z
 ---------------------------------------------------------------------
      1          6           0        0.013668   -0.188268    1.290291
      2          6           0        0.013668   -0.188268   -1.290291
      3          6           0        0.013668    0.389710    0.000000
      4          1           0       -0.115066    1.482086    0.000000
      5          1           0        0.444287    0.341761    2.131594
      6          1           0        0.444287    0.341761   -2.131594
      7          1           0       -0.509770   -1.122328   -1.478978
      8          1           0       -0.509770   -1.122328    1.478978
 ---------------------------------------------------------------------

 SCF Done:  E(UB3LYP) =  -116.925295417     A.U. after   11 cycles

 The electronic state is 3-A".
 Alpha  occ. eigenvalues --  -10.51056 -10.46131 -10.46127  -1.08753  -0.96388
 Alpha  occ. eigenvalues --   -0.83098  -0.74456  -0.71076  -0.66775  -0.66302
 Alpha  occ. eigenvalues --   -0.57202  -0.47373
 Alpha virt. eigenvalues --   -0.29792  -0.16850  -0.14311  -0.13278  -0.11430
 Alpha virt. eigenvalues --   -0.09778  -0.09290  -0.08647  -0.06835  -0.06293
 Alpha virt. eigenvalues --   -0.05364  -0.04179  -0.02449  -0.01450  -0.00968

  Beta  occ. eigenvalues --  -10.50474 -10.44965 -10.44963  -1.05200  -0.92711
  Beta  occ. eigenvalues --   -0.80634  -0.72797  -0.69451  -0.65120  -0.64644
  Beta virt. eigenvalues --   -0.44172  -0.32684  -0.23309  -0.16436  -0.13913
  Beta virt. eigenvalues --   -0.12840  -0.10892  -0.09170  -0.09080  -0.07751
  Beta virt. eigenvalues --   -0.06125  -0.05788  -0.04593  -0.03414  -0.02081

 Mulliken charges and spin densities:
               1          2
     1  C   -0.225273   0.786898
     2  C   -0.225273   0.786898
     3  C    0.323907   0.399323
     4  H    0.228664   0.025422
     5  H    0.227996  -0.008265
     6  H    0.227996  -0.008265
     7  H    0.220991   0.008994
     8  H    0.220991   0.008994
 Sum of Mulliken charges =   1.00000   2.00000

 Dipole moment (field-independent basis, Debye):
    X=             -0.1177    Y=              0.2917    Z=              0.0000  Tot=              0.3146
 Quadrupole moment (field-independent basis, Debye-Ang):
   XX=            -17.3292   YY=            -13.1422   ZZ=             -6.9246
   XY=              1.3848   XZ=              0.0000   YZ=              0.0000

  Exact polarizability:  22.253   1.556  28.691   0.000   0.000  53.042
 Approx polarizability:  30.703   2.090  39.599   0.000   0.000  74.021

                      1                      2                      3
                     A"                     A'                     A'
 Frequencies --    294.9189               378.3360               485.0212
 Red. masses --      1.0194                 1.7107                 1.5936
 Frc consts  --      0.0522                 0.1443                 0.2209
 IR Inten    --     11.1264                 0.4090                 6.6783

                      4                      5                      6
                     A"                     A'                     A"
 Frequencies --    718.0587               756.2318               870.3276
 Red. masses --      1.2925                 1.2382                 1.1701
 Frc consts  --      0.3926                 0.4172                 0.5222
 IR Inten    --      0.6662                73.1296                 0.0196

                      7                      8                      9
                     A'                     A'                     A'
 Frequencies --    887.4767               971.3045              1148.7419
 Red. masses --      1.6361                 2.1073                 1.9287
 Frc consts  --      0.7593                 1.1714                 1.4996
 IR Inten    --      9.4322                 1.2841                 8.6876

                     10                     11                     12
                     A"                     A"                     A"
 Frequencies --   1170.4096              1395.7775              1420.0485
 Red. masses --      1.2871                 1.2449                 2.7709
 Frc consts  --      1.0388                 1.4289                 3.2921
 IR Inten    --    101.9821                 4.6020               170.9635

                     13                     14                     15
                     A'                     A'                     A"
 Frequencies --   1428.8178              3004.6075              3092.5376
 Red. masses --      1.1645                 1.0784                 1.0495
 Frc consts  --      1.4007                 5.7358                 5.9138
 IR Inten    --      7.9924                34.0459               153.7470

                     16                     17                     18
                     A'                     A"                     A'
 Frequencies --   3103.5949              3213.0571              3216.8378
 Red. masses --      1.0519                 1.1147                 1.1180
 Frc consts  --      5.9695                 6.7801                 6.8161
 IR Inten    --     19.2689                18.5862                52.4456

 - Thermochemistry -
 -------------------
 Temperature   298.150 Kelvin.  Pressure   1.00000 Atm.
 Atom     1 has atomic number  6 and mass  12.00000

 Molecular mass:    41.03913 amu.
 Principal axes and moments of inertia in atomic units:
                           1         2         3
     Eigenvalues --    30.71635 193.64259 219.34862
           X            0.00000   0.18213   0.98328
           Y            0.00000   0.98328  -0.18213
           Z            1.00000   0.00000   0.00000
 This molecule is an asymmetric top.
 Rotational symmetry number  1.
 Rotational temperatures (Kelvin)      2.81980     0.44729     0.39487
 Rotational constants (GHZ):          58.75506     9.31996     8.22773
 Zero-point vibrational energy     164822.1 (Joules/Mol)
                                   39.39343 (Kcal/Mol)
 Warning -- explicit consideration of   3 degrees of freedom as
           vibrations may cause significant error
 Vibrational temperatures:    424.32   544.34   697.84  1033.12  1088.05
          (Kelvin)           1252.21  1276.88  1397.49  1652.78  1683.96
                             2008.21  2043.13  2055.75  4322.95  4449.47
                             4465.38  4622.87  4628.31

 Zero-point correction=                           0.062777 (Hartree/Particle)
 Thermal correction to Energy=                    0.067019
 Thermal correction to Enthalpy=                  0.067963
 Thermal correction to Gibbs Free Energy=         0.036929
 Sum of electronic and zero-point Energies=           -116.862518
 Sum of electronic and thermal Energies=              -116.858276
 Sum of electronic and thermal Enthalpies=            -116.857332
 Sum of electronic and thermal Free Energies=         -116.888367

                     E (Thermal)             CV                S
                      KCal/Mol        Cal/Mol-Kelvin    Cal/Mol-Kelvin
 Total                   42.055             14.202             65.318
 Electronic               0.000              0.000              2.183
 Translational            0.889              2.981             37.063
 Rotational               0.889              2.981             21.794
 Vibrational             40.278              8.241              4.277
 Vibration     1          0.689              1.683              1.446
 Vibration     2          0.749              1.516              1.046
 Vibration     3          0.841              1.283              0.697

 Optimization completed.
    -- Stationary point found.
 Normal termination of Gaussian 09 at Fri Aug  9 00:08:50 2019.
