 Gaussian 09, Revision D.01,
 Gaussian 09:  EM64L-G09RevD.01 24-Apr-2013

 ------------------------------
 #p b3lyp/6-311++G(3df,2p) freq
 ------------------------------

 ---------
 b3lyp opt
 ---------
 Symbolic Z-matrix:
 Charge =  0 Multiplicity = 2

                         Standard orientation:
 ---------------------------------------------------------------------
 Center     Atomic      Atomic             Coordinates (Angstroms)
 Number     Number       Type             X           Y           Z
 ---------------------------------------------------------------------
      1          6           0        0.000000    1.224358   -0.195487
      2          6           0        0.000000   -1.224358   -0.195487
      3          6           0        0.000000    0.000000    0.441388
      4          1           0        0.000000    0.000000    1.527297
      5          1           0        0.000000    2.150214    0.360720
      6          1           0        0.000000   -2.150214    0.360720
      7          1           0        0.000000   -1.292673   -1.275612
      8          1           0        0.000000    1.292673   -1.275612
 ---------------------------------------------------------------------

 SCF Done:  E(UB3LYP) =  -117.306516172     A.U. after   11 cycles

 The electronic state is 2-A2.
 Alpha  occ. eigenvalues --  -10.18017 -10.17932 -10.17911  -0.80192  -0.68824
 Alpha  occ. eigenvalues --   -0.56313  -0.48564  -0.44402  -0.39234  -0.36656
 Alpha  occ. eigenvalues --   -0.33136  -0.20617
 Alpha virt. eigenvalues --   -0.00243   0.01440   0.01454   0.01566   0.04504
 Alpha virt. eigenvalues --    0.04977   0.06664   0.09349   0.09432   0.09526
 Alpha virt. eigenvalues --    0.10788   0.12563   0.12641   0.13495   0.13715

  Beta  occ. eigenvalues --  -10.18316 -10.17042 -10.17038  -0.79146  -0.66384
  Beta  occ. eigenvalues --   -0.55648  -0.48103  -0.43833  -0.38668  -0.36394
  Beta  occ. eigenvalues --   -0.30042
  Beta virt. eigenvalues --   -0.08990  -0.00183   0.01449   0.01644   0.02552
  Beta virt. eigenvalues --    0.04474   0.04966   0.07771   0.09355   0.09620
  Beta virt. eigenvalues --    0.10528   0.10810   0.12601   0.13516   0.13588

 Mulliken charges and spin densities:
               1          2
     1  C   -0.504205   0.675661
     2  C   -0.504205   0.675661
     3  C    0.282424  -0.275661
     4  H    0.143465   0.006214
     5  H    0.148113  -0.023548
     6  H    0.148113  -0.023548
     7  H    0.143146  -0.017389
     8  H    0.143146  -0.017389
 Sum of Mulliken charges =   0.00000   1.00000

 Dipole moment (field-independent basis, Debye):
    X=              0.0000    Y=              0.0000    Z=              0.0531  Tot=              0.0531
 Quadrupole moment (field-independent basis, Debye-Ang):
   XX=            -22.5453   YY=            -18.2874   ZZ=            -17.9128
   XY=              0.0000   XZ=              0.0000   YZ=              0.0000

  Exact polarizability:  30.326   0.000  58.589   0.000   0.000  36.408
 Approx polarizability:  40.805   0.000  82.854   0.000   0.000  50.014

                      1                      2                      3
                     A1                     B1                     A2
 Frequencies --    429.6904               531.2475               553.6267
 Red. masses --      1.8846                 1.3312                 1.0192
 Frc consts  --      0.2050                 0.2214                 0.1840
 IR Inten    --      0.1131                17.7658                 0.0000

                      4                      5                      6
                     A2                     B1                     B2
 Frequencies --    801.2472               827.0963               939.5389
 Red. masses --      1.3049                 1.4963                 1.1612
 Frc consts  --      0.4936                 0.6031                 0.6039
 IR Inten    --      0.0000                75.2334                 0.0001

                      7                      8                      9
                     B1                     A1                     B2
 Frequencies --   1016.6264              1038.9628              1208.6211
 Red. masses --      1.1635                 1.8942                 1.8595
 Frc consts  --      0.7085                 1.2047                 1.6004
 IR Inten    --     19.7234                 0.0086                 0.8391

                     10                     11                     12
                     A1                     B2                     B2
 Frequencies --   1274.6392              1427.2861              1514.3549
 Red. masses --      2.2298                 1.3033                 1.5907
 Frc consts  --      2.1344                 1.5643                 2.1493
 IR Inten    --      1.2598                 4.7888                 1.7757

                     13                     14                     15
                     A1                     A1                     B2
 Frequencies --   1521.2778              3127.2261              3134.4329
 Red. masses --      1.3372                 1.0859                 1.0525
 Frc consts  --      1.8234                 6.2572                 6.0925
 IR Inten    --      2.8593                11.0992                 6.7493

                     16                     17                     18
                     A1                     B2                     A1
 Frequencies --   3140.3844              3231.1133              3233.7099
 Red. masses --      1.0585                 1.1165                 1.1163
 Frc consts  --      6.1506                 6.8674                 6.8773
 IR Inten    --      4.2758                 4.2062                14.1772

 - Thermochemistry -
 -------------------
 Temperature   298.150 Kelvin.  Pressure   1.00000 Atm.
 Atom     1 has atomic number  6 and mass  12.00000

 Molecular mass:    41.03913 amu.
 Principal axes and moments of inertia in atomic units:
                           1         2         3
     Eigenvalues --    32.66039 173.78457 206.44497
           X            0.00000   0.00000   1.00000
           Y            1.00000   0.00000   0.00000
           Z            0.00000   1.00000   0.00000
 This molecule is an asymmetric top.
 Rotational symmetry number  2.
 Rotational temperatures (Kelvin)      2.65195     0.49840     0.41955
 Rotational constants (GHZ):          55.25779    10.38493     8.74200
 Zero-point vibrational energy     173165.9 (Joules/Mol)
                                   41.38765 (Kcal/Mol)
 Warning -- explicit consideration of   3 degrees of freedom as
           vibrations may cause significant error
 Vibrational temperatures:    618.23   764.35   796.54  1152.81  1190.01
          (Kelvin)           1351.79  1462.70  1494.83  1738.93  1833.92
                             2053.54  2178.82  2188.78  4499.38  4509.74
                             4518.31  4648.85  4652.58

 Zero-point correction=                           0.065955 (Hartree/Particle)
 Thermal correction to Energy=                    0.069765
 Thermal correction to Enthalpy=                  0.070709
 Thermal correction to Gibbs Free Energy=         0.041479
 Sum of electronic and zero-point Energies=           -117.240561
 Sum of electronic and thermal Energies=              -117.236751
 Sum of electronic and thermal Enthalpies=            -117.235807
 Sum of electronic and thermal Free Energies=         -117.265037

                     E (Thermal)             CV                S
                      KCal/Mol        Cal/Mol-Kelvin    Cal/Mol-Kelvin
 Total                   43.778             12.678             61.519
 Electronic               0.000              0.000              1.377
 Translational            0.889              2.981             37.063
 Rotational               0.889              2.981             20.310
 Vibrational             42.001              6.716              2.768
 Vibration     1          0.791              1.406              0.860
 Vibration     2          0.886              1.181              0.584
 Vibration     3          0.909              1.132              0.537

 Optimization completed.
    -- Stationary point found.
 Normal termination of Gaussian 09 at Thu Aug  8 23:59:13 2019.
