 Gaussian 09, Revision D.01,
 Gaussian 09:  EM64L-G09RevD.01 24-Apr-2013

 ------------------------------
 #p b3lyp/6-311++G(3df,2p) freq
 ------------------------------

 ---------
 b3lyp opt
 ---------
 Symbolic Z-matrix:
 Charge =  0 Multiplicity = 2

                         Standard orientation:
 ---------------------------------------------------------------------
 Center     Atomic      Atomic             Coordinates (Angstroms)
 Number     Number       Type             X           Y           Z
 ---------------------------------------------------------------------
      1          6           0        0.000000    0.442252    0.000000
      2          6           0       -0.970674   -0.706955    0.000000
      3          6           0        1.301269    0.353719    0.000000
      4          1           0        2.153401    1.013045    0.000000
      5          1           0       -0.448356    1.441432    0.000000
      6          1           0       -0.451772   -1.663393    0.000000
      7          1           0       -1.618423   -0.662590    0.878364
      8          1           0       -1.618423   -0.662590   -0.878364
 ---------------------------------------------------------------------

 SCF Done:  E(UB3LYP) =  -117.266381946     A.U. after   13 cycles

 The electronic state is 2-A'.
 Alpha  occ. eigenvalues --  -10.18939 -10.18363 -10.17231  -0.79786  -0.69429
 Alpha  occ. eigenvalues --   -0.55127  -0.48465  -0.42133  -0.41095  -0.38439
 Alpha  occ. eigenvalues --   -0.27604  -0.23674
 Alpha virt. eigenvalues --   -0.00393   0.00133   0.01410   0.02164   0.03380
 Alpha virt. eigenvalues --    0.04879   0.07052   0.08082   0.08610   0.09222
 Alpha virt. eigenvalues --    0.10484   0.11947   0.12325   0.13798   0.14128

  Beta  occ. eigenvalues --  -10.18509 -10.17430 -10.17125  -0.78814  -0.68046
  Beta  occ. eigenvalues --   -0.53362  -0.47443  -0.42161  -0.40031  -0.37909
  Beta  occ. eigenvalues --   -0.26732
  Beta virt. eigenvalues --   -0.08411  -0.00143   0.00838   0.01507   0.02319
  Beta virt. eigenvalues --    0.03450   0.04940   0.07331   0.08455   0.08835
  Beta virt. eigenvalues --    0.09238   0.10672   0.12140   0.12611   0.14058

 Mulliken charges and spin densities:
               1          2
     1  C    0.055960  -0.197878
     2  C   -0.376333   0.027344
     3  C   -0.420868   1.063880
     4  H    0.186916   0.020046
     5  H    0.126188   0.086008
     6  H    0.145267   0.004364
     7  H    0.141435  -0.001882
     8  H    0.141435  -0.001882
 Sum of Mulliken charges =   0.00000   1.00000

 Dipole moment (field-independent basis, Debye):
    X=             -0.6509    Y=              0.4352    Z=              0.0000  Tot=              0.7830
 Quadrupole moment (field-independent basis, Debye-Ang):
   XX=            -18.6340   YY=            -18.8759   ZZ=            -21.2824
   XY=              1.1748   XZ=              0.0000   YZ=              0.0000

  Exact polarizability:  51.171   3.293  36.679   0.000   0.000  31.518
 Approx polarizability:  73.467   0.529  47.015   0.000   0.000  43.013

                      1                      2                      3
                     A"                     A'                     A"
 Frequencies --    193.2208               409.1116               611.6347
 Red. masses --      1.2473                 2.2420                 1.1191
 Frc consts  --      0.0274                 0.2211                 0.2467
 IR Inten    --      0.0203                 8.8535                63.7534

                      4                      5                      6
                     A'                     A"                     A'
 Frequencies --    789.6872               814.6895               930.0529
 Red. masses --      1.3246                 1.2892                 1.8381
 Frc consts  --      0.4867                 0.5041                 0.9368
 IR Inten    --     17.8129                 1.6100                 1.8950

                      7                      8                      9
                     A"                     A'                     A'
 Frequencies --   1063.2191              1107.0645              1269.9147
 Red. masses --      1.4850                 2.0368                 1.2099
 Frc consts  --      0.9890                 1.4708                 1.1496
 IR Inten    --      2.6868                 5.0381                 1.2524

                     10                     11                     12
                     A'                     A"                     A'
 Frequencies --   1406.0879              1485.4695              1485.5287
 Red. masses --      1.2282                 1.0439                 1.0644
 Frc consts  --      1.4307                 1.3572                 1.3840
 IR Inten    --      1.6859                 6.8340                10.8936

                     13                     14                     15
                     A'                     A'                     A'
 Frequencies --   1681.6711              3004.6146              3019.8158
 Red. masses --      6.0134                 1.0784                 1.0382
 Frc consts  --     10.0197                 5.7361                 5.5784
 IR Inten    --      4.2024                15.0790                22.4373

                     16                     17                     18
                     A"                     A'                     A'
 Frequencies --   3064.8762              3111.5651              3240.7905
 Red. masses --      1.1000                 1.1005                 1.1045
 Frc consts  --      6.0880                 6.2774                 6.8345
 IR Inten    --     16.4077                15.3379                 0.2271

 - Thermochemistry -
 -------------------
 Temperature   298.150 Kelvin.  Pressure   1.00000 Atm.
 Atom     1 has atomic number  6 and mass  12.00000

 Molecular mass:    41.03913 amu.
 Principal axes and moments of inertia in atomic units:
                           1         2         3
     Eigenvalues --    30.96906 189.16570 209.02789
           X            0.88601  -0.46366   0.00000
           Y            0.46366   0.88601   0.00000
           Z            0.00000   0.00000   1.00000
 This molecule is an asymmetric top.
 Rotational symmetry number  1.
 Rotational temperatures (Kelvin)      2.79679     0.45787     0.41436
 Rotational constants (GHZ):          58.27563     9.54053     8.63397
 Zero-point vibrational energy     171598.4 (Joules/Mol)
                                   41.01300 (Kcal/Mol)
 Warning -- explicit consideration of   3 degrees of freedom as
           vibrations may cause significant error
 Vibrational temperatures:    278.00   588.62   880.00  1136.18  1172.15
          (Kelvin)           1338.14  1529.73  1592.82  1827.12  2023.04
                             2137.26  2137.34  2419.55  4322.96  4344.84
                             4409.67  4476.84  4662.77

 Zero-point correction=                           0.065358 (Hartree/Particle)
 Thermal correction to Energy=                    0.069506
 Thermal correction to Enthalpy=                  0.070450
 Thermal correction to Gibbs Free Energy=         0.039816
 Sum of electronic and zero-point Energies=           -117.201024
 Sum of electronic and thermal Energies=              -117.196876
 Sum of electronic and thermal Enthalpies=            -117.195932
 Sum of electronic and thermal Free Energies=         -117.226566

                     E (Thermal)             CV                S
                      KCal/Mol        Cal/Mol-Kelvin    Cal/Mol-Kelvin
 Total                   43.616             13.075             64.476
 Electronic               0.000              0.000              1.377
 Translational            0.889              2.981             37.063
 Rotational               0.889              2.981             21.731
 Vibrational             41.838              7.114              4.304
 Vibration     1          0.635              1.849              2.197
 Vibration     2          0.773              1.450              0.930
 Vibration     3          0.971              1.007              0.430

 Optimization completed.
    -- Stationary point found.
 Normal termination of Gaussian 09 at Fri Aug  9 00:03:04 2019.
