 Gaussian 09, Revision D.01,
 Gaussian 09:  EM64L-G09RevD.01 24-Apr-2013

 ------------------------------
 #p b3lyp/6-311++G(3df,2p) freq
 ------------------------------

 ---------
 b3lyp opt
 ---------
 Symbolic Z-matrix:
 Charge =  1 Multiplicity = 3

                         Standard orientation:
 ---------------------------------------------------------------------
 Center     Atomic      Atomic             Coordinates (Angstroms)
 Number     Number       Type             X           Y           Z
 ---------------------------------------------------------------------
      1          6           0        0.000000    1.236751   -0.208226
      2          6           0        0.000000   -1.236751   -0.208226
      3          6           0        0.000000    0.000000    0.487907
      4          1           0        0.000000    0.000000    1.578946
      5          1           0        0.641618    2.045557    0.135154
      6          1           0       -0.641618   -2.045557    0.135154
      7          1           0        0.541002   -1.370425   -1.138994
      8          1           0       -0.541002    1.370425   -1.138994
 ---------------------------------------------------------------------

 SCF Done:  E(UB3LYP) =  -116.927020362     A.U. after   11 cycles

 The electronic state is 3-B.
 Alpha  occ. eigenvalues --  -10.50862 -10.46443 -10.46440  -1.08981  -0.95682
 Alpha  occ. eigenvalues --   -0.83402  -0.74181  -0.71378  -0.68383  -0.65106
 Alpha  occ. eigenvalues --   -0.56598  -0.47914
 Alpha virt. eigenvalues --   -0.30366  -0.16298  -0.14427  -0.13546  -0.11466
 Alpha virt. eigenvalues --   -0.10382  -0.08421  -0.08059  -0.07849  -0.06995
 Alpha virt. eigenvalues --   -0.04983  -0.03620  -0.02560  -0.01721  -0.01198

  Beta  occ. eigenvalues --  -10.50294 -10.45273 -10.45270  -1.05405  -0.91937
  Beta  occ. eigenvalues --   -0.81186  -0.72330  -0.69864  -0.66209  -0.63897
  Beta virt. eigenvalues --   -0.43440  -0.33702  -0.23446  -0.15958  -0.13983
  Beta virt. eigenvalues --   -0.12922  -0.10966  -0.09873  -0.07763  -0.07672
  Beta virt. eigenvalues --   -0.07175  -0.06095  -0.04568  -0.03107  -0.02080

 Mulliken charges and spin densities:
               1          2
     1  C   -0.197829   0.770539
     2  C   -0.197829   0.770539
     3  C    0.266104   0.407198
     4  H    0.226380   0.024994
     5  H    0.216013   0.016829
     6  H    0.216013   0.016829
     7  H    0.235574  -0.003463
     8  H    0.235574  -0.003463
 Sum of Mulliken charges =   1.00000   2.00000

 Dipole moment (field-independent basis, Debye):
    X=              0.0000    Y=              0.0000    Z=              0.1317  Tot=              0.1317
 Quadrupole moment (field-independent basis, Debye-Ang):
   XX=            -16.7496   YY=             -7.7073   ZZ=            -13.3116
   XY=              1.1775   XZ=              0.0000   YZ=              0.0000

  Exact polarizability:  22.813   1.274  51.157   0.000   0.000  28.888
 Approx polarizability:  31.541   1.432  72.576   0.000   0.000  39.690

                      1                      2                      3
                      A                      B                      A
 Frequencies --    362.0518               386.6588               478.9382
 Red. masses --      1.8423                 1.1622                 1.1110
 Frc consts  --      0.1423                 0.1024                 0.1501
 IR Inten    --      1.2034                25.8594                 0.0156

                      4                      5                      6
                      B                      A                      B
 Frequencies --    708.7108               761.2746               844.6152
 Red. masses --      1.1096                 1.2970                 1.2865
 Frc consts  --      0.3284                 0.4429                 0.5407
 IR Inten    --     49.1879                10.3546                42.2483

                      7                      8                      9
                      A                      B                      A
 Frequencies --    917.6055               990.7073              1171.7211
 Red. masses --      1.7453                 1.5466                 2.7660
 Frc consts  --      0.8658                 0.8944                 2.2374
 IR Inten    --      6.8416                 0.4471                 1.0020

                     10                     11                     12
                      B                      B                      A
 Frequencies --   1174.7357              1394.2262              1426.3744
 Red. masses --      1.8212                 1.2024                 1.1921
 Frc consts  --      1.4808                 1.3771                 1.4290
 IR Inten    --    112.8532                 9.8513                19.9506

                     13                     14                     15
                      B                      B                      A
 Frequencies --   1436.0461              3084.3054              3091.6787
 Red. masses --      1.8499                 1.0486                 1.0521
 Frc consts  --      2.2477                 5.8773                 5.9254
 IR Inten    --     99.5059               166.9434                13.2392

                     16                     17                     18
                      A                      A                      B
 Frequencies --   3100.1513              3201.3487              3203.4392
 Red. masses --      1.0874                 1.1146                 1.1172
 Frc consts  --      6.1575                 6.7306                 6.7550
 IR Inten    --      7.1861                36.3733                24.7189

 - Thermochemistry -
 -------------------
 Temperature   298.150 Kelvin.  Pressure   1.00000 Atm.
 Atom     1 has atomic number  6 and mass  12.00000

 Molecular mass:    41.03913 amu.
 Principal axes and moments of inertia in atomic units:
                           1         2         3
     Eigenvalues --    37.31406 179.79826 207.17145
           X            0.02421   0.00000   0.99971
           Y            0.99971   0.00000  -0.02421
           Z            0.00000   1.00000   0.00000
 This molecule is an asymmetric top.
 Rotational symmetry number  2.
 Rotational temperatures (Kelvin)      2.32121     0.48173     0.41808
 Rotational constants (GHZ):          48.36625    10.03759     8.71134
 Zero-point vibrational energy     165889.7 (Joules/Mol)
                                   39.64859 (Kcal/Mol)
 Warning -- explicit consideration of   3 degrees of freedom as
           vibrations may cause significant error
 Vibrational temperatures:    520.91   556.32   689.08  1019.68  1095.30
          (Kelvin)           1215.21  1320.23  1425.41  1685.84  1690.18
                             2005.98  2052.23  2066.15  4437.62  4448.23
                             4460.42  4606.02  4609.03

 Zero-point correction=                           0.063184 (Hartree/Particle)
 Thermal correction to Energy=                    0.067340
 Thermal correction to Enthalpy=                  0.068284
 Thermal correction to Gibbs Free Energy=         0.038044
 Sum of electronic and zero-point Energies=           -116.863836
 Sum of electronic and thermal Energies=              -116.859680
 Sum of electronic and thermal Enthalpies=            -116.858736
 Sum of electronic and thermal Free Energies=         -116.888976

                     E (Thermal)             CV                S
                      KCal/Mol        Cal/Mol-Kelvin    Cal/Mol-Kelvin
 Total                   42.257             14.026             63.646
 Electronic               0.000              0.000              2.183
 Translational            0.889              2.981             37.063
 Rotational               0.889              2.981             20.480
 Vibrational             40.479              8.064              3.920
 Vibration     1          0.736              1.550              1.113
 Vibration     2          0.755              1.499              1.013
 Vibration     3          0.835              1.297              0.713

 Optimization completed.
    -- Stationary point found.
 Normal termination of Gaussian 09 at Fri Aug  9 00:08:51 2019.
