 Gaussian 09, Revision D.01,
 Gaussian 09:  EM64L-G09RevD.01 24-Apr-2013

 ------------------------------
 #p b3lyp/6-311++G(3df,2p) freq
 ------------------------------

 ---------
 b3lyp opt
 ---------
 Symbolic Z-matrix:
 Charge =  0 Multiplicity = 4

                         Standard orientation:
 ---------------------------------------------------------------------
 Center     Atomic      Atomic             Coordinates (Angstroms)
 Number     Number       Type             X           Y           Z
 ---------------------------------------------------------------------
      1          6           0        0.131329    0.535939   -0.080761
      2          6           0       -1.148466   -0.217880    0.008562
      3          6           0        1.414576   -0.227890   -0.131062
      4          1           0        1.908420   -0.767085    0.680623
      5          1           0        0.167234    1.509919    0.405715
      6          1           0       -1.238907   -0.946871   -0.800281
      7          1           0       -1.214775   -0.792254    0.947138
      8          1           0       -2.006603    0.455272   -0.013627
 ---------------------------------------------------------------------

 SCF Done:  E(UB3LYP) =  -117.149959373     A.U. after   12 cycles

 The electronic state is 4-A.
 Alpha  occ. eigenvalues --  -10.21481 -10.20268 -10.17564  -0.79923  -0.68855
 Alpha  occ. eigenvalues --   -0.57396  -0.46704  -0.43154  -0.42005  -0.38317
 Alpha  occ. eigenvalues --   -0.31030  -0.22690  -0.18875
 Alpha virt. eigenvalues --   -0.00564   0.01577   0.01649   0.03426   0.04593
 Alpha virt. eigenvalues --    0.07184   0.07660   0.08345   0.08861   0.11135
 Alpha virt. eigenvalues --    0.11908   0.12214   0.12852   0.13597   0.13782

  Beta  occ. eigenvalues --  -10.18811 -10.18625 -10.17509  -0.76622  -0.64511
  Beta  occ. eigenvalues --   -0.52928  -0.44919  -0.41199  -0.39848  -0.36903
  Beta virt. eigenvalues --   -0.13624  -0.05987  -0.02416  -0.00238   0.01841
  Beta virt. eigenvalues --    0.01894   0.03789   0.04678   0.07752   0.08399
  Beta virt. eigenvalues --    0.09217   0.09966   0.11649   0.12158   0.12513

 Mulliken charges and spin densities:
               1          2
     1  C   -0.069847   0.915637
     2  C   -0.346881  -0.051543
     3  C   -0.314246   1.956807
     4  H    0.157755   0.044866
     5  H    0.136370   0.020944
     6  H    0.158203   0.020864
     7  H    0.146591   0.075540
     8  H    0.132053   0.016885
 Sum of Mulliken charges =   0.00000   3.00000

 Dipole moment (field-independent basis, Debye):
    X=             -0.8883    Y=             -0.0458    Z=              0.8918  Tot=              1.2596
 Quadrupole moment (field-independent basis, Debye-Ang):
   XX=            -20.8134   YY=            -20.1477   ZZ=            -20.6704
   XY=             -0.3596   XZ=              1.1539   YZ=              0.1094

  Exact polarizability:  47.148  -0.806  38.569   0.148  -0.909  33.949
 Approx polarizability:  55.353  -1.117  50.494   0.079  -1.265  45.331

                      1                      2                      3
                      A                      A                      A
 Frequencies --    196.2705               331.0937               506.9123
 Red. masses --      1.1351                 1.7585                 1.6870
 Frc consts  --      0.0258                 0.1136                 0.2554
 IR Inten    --      0.3498                 4.9112                18.8603

                      4                      5                      6
                      A                      A                      A
 Frequencies --    598.0513               876.8887               931.9362
 Red. masses --      1.1259                 1.5644                 1.6699
 Frc consts  --      0.2373                 0.7087                 0.8545
 IR Inten    --     15.5336                 4.2372                 0.3046

                      7                      8                      9
                      A                      A                      A
 Frequencies --   1024.8126              1068.2349              1165.7653
 Red. masses --      1.4437                 1.8455                 2.4980
 Frc consts  --      0.8934                 1.2408                 2.0001
 IR Inten    --      1.4376                 1.6486                 1.5181

                     10                     11                     12
                      A                      A                      A
 Frequencies --   1312.1740              1387.0704              1461.2798
 Red. masses --      1.5999                 1.1938                 1.0642
 Frc consts  --      1.6230                 1.3532                 1.3389
 IR Inten    --      7.5693                 7.6226                 7.3970

                     13                     14                     15
                      A                      A                      A
 Frequencies --   1473.1748              2919.0810              3027.3885
 Red. masses --      1.0509                 1.0615                 1.0663
 Frc consts  --      1.3438                 5.3293                 5.7578
 IR Inten    --      4.3546                22.6841                21.9323

                     16                     17                     18
                      A                      A                      A
 Frequencies --   3042.4403              3070.0045              3088.1902
 Red. masses --      1.0854                 1.0861                 1.0978
 Frc consts  --      5.9192                 6.0310                 6.1684
 IR Inten    --     51.0957                 5.9295                33.1300

 - Thermochemistry -
 -------------------
 Temperature   298.150 Kelvin.  Pressure   1.00000 Atm.
 Atom     1 has atomic number  6 and mass  12.00000

 Molecular mass:    41.03913 amu.
 Principal axes and moments of inertia in atomic units:
                           1         2         3
     Eigenvalues --    41.68430 189.74028 214.25770
           X            0.99971   0.00069   0.02393
           Y           -0.00095   0.99994   0.01109
           Z           -0.02392  -0.01111   0.99965
 This molecule is an asymmetric top.
 Rotational symmetry number  1.
 Rotational temperatures (Kelvin)      2.07785     0.45649     0.40425
 Rotational constants (GHZ):          43.29546     9.51164     8.42323
 Zero-point vibrational energy     164371.5 (Joules/Mol)
                                   39.28573 (Kcal/Mol)
 Warning -- explicit consideration of   4 degrees of freedom as
           vibrations may cause significant error
 Vibrational temperatures:    282.39   476.37   729.33   860.46  1261.65
          (Kelvin)           1340.85  1474.47  1536.95  1677.27  1887.92
                             1995.68  2102.45  2119.57  4199.90  4355.73
                             4377.39  4417.05  4443.21

 Zero-point correction=                           0.062606 (Hartree/Particle)
 Thermal correction to Energy=                    0.066985
 Thermal correction to Enthalpy=                  0.067929
 Thermal correction to Gibbs Free Energy=         0.036124
 Sum of electronic and zero-point Energies=           -117.087354
 Sum of electronic and thermal Energies=              -117.082974
 Sum of electronic and thermal Enthalpies=            -117.082030
 Sum of electronic and thermal Free Energies=         -117.113835

                     E (Thermal)             CV                S
                      KCal/Mol        Cal/Mol-Kelvin    Cal/Mol-Kelvin
 Total                   42.034             13.990             66.940
 Electronic               0.000              0.000              2.755
 Translational            0.889              2.981             37.063
 Rotational               0.889              2.981             22.054
 Vibrational             40.256              8.028              5.068
 Vibration     1          0.636              1.845              2.168
 Vibration     2          0.713              1.613              1.255
 Vibration     3          0.862              1.235              0.641
 Vibration     4          0.956              1.036              0.453

 Normal termination of Gaussian 09 at Thu Aug  8 08:17:10 2019.
