 Gaussian 09, Revision D.01,
 Gaussian 09:  EM64L-G09RevD.01 24-Apr-2013

 ------------------------------
 #p b3lyp/6-311++G(3df,2p) freq
 ------------------------------

 ---------
 b3lyp opt
 ---------
 Symbolic Z-matrix:
 Charge =  1 Multiplicity = 3

                         Standard orientation:
 ---------------------------------------------------------------------
 Center     Atomic      Atomic             Coordinates (Angstroms)
 Number     Number       Type             X           Y           Z
 ---------------------------------------------------------------------
      1          6           0        0.000000    0.435298    0.000000
      2          6           0       -1.017002   -0.592145    0.000000
      3          6           0        1.364766    0.187061    0.000000
      4          1           0        2.282030    0.765169    0.000000
      5          1           0       -0.320321    1.481928    0.000000
      6          1           0       -0.645913   -1.610716    0.000000
      7          1           0       -1.701189   -0.408832    0.850569
      8          1           0       -1.701189   -0.408832   -0.850569
 ---------------------------------------------------------------------

 SCF Done:  E(UB3LYP) =  -116.910794892     A.U. after   12 cycles

 The electronic state is 3-A".
 Alpha  occ. eigenvalues --  -10.51731 -10.51272 -10.41423  -1.09314  -0.96396
 Alpha  occ. eigenvalues --   -0.82464  -0.76045  -0.68395  -0.67269  -0.63178
 Alpha  occ. eigenvalues --   -0.56687  -0.52733
 Alpha virt. eigenvalues --   -0.30492  -0.16911  -0.13886  -0.13207  -0.11980
 Alpha virt. eigenvalues --   -0.11259  -0.09377  -0.08844  -0.07709  -0.06514
 Alpha virt. eigenvalues --   -0.04975  -0.04518  -0.04020  -0.01449  -0.01413

  Beta  occ. eigenvalues --  -10.50816 -10.49295 -10.41304  -1.06062  -0.93248
  Beta  occ. eigenvalues --   -0.79593  -0.74308  -0.66932  -0.64661  -0.62394
  Beta virt. eigenvalues --   -0.44190  -0.34477  -0.23986  -0.16483  -0.13533
  Beta virt. eigenvalues --   -0.12580  -0.11669  -0.10567  -0.09041  -0.08186
  Beta virt. eigenvalues --   -0.07282  -0.06055  -0.04380  -0.03871  -0.03633

 Mulliken charges and spin densities:
               1          2
     1  C    0.242964   0.263174
     2  C   -0.287153   0.055597
     3  C   -0.122892   1.514726
     4  H    0.269059   0.009110
     5  H    0.230943   0.045754
     6  H    0.209325   0.002302
     7  H    0.228877   0.054669
     8  H    0.228877   0.054669
 Sum of Mulliken charges =   1.00000   2.00000

 Dipole moment (field-independent basis, Debye):
    X=              0.4870    Y=              1.1870    Z=              0.0000  Tot=              1.2831
 Quadrupole moment (field-independent basis, Debye-Ang):
   XX=             -6.9253   YY=            -13.8017   ZZ=            -16.5258
   XY=              3.1364   XZ=              0.0000   YZ=              0.0000

  Exact polarizability:  47.567   5.349  29.525   0.000   0.000  23.519
 Approx polarizability:  65.207   5.286  39.446   0.000   0.000  33.716

                      1                      2                      3
                     A"                     A'                     A"
 Frequencies --    105.9011               405.1541               598.8286
 Red. masses --      1.2005                 2.2898                 1.1252
 Frc consts  --      0.0079                 0.2215                 0.2377
 IR Inten    --      8.3646                 4.1884                20.5738

                      4                      5                      6
                     A"                     A'                     A'
 Frequencies --    805.4317               814.4278               905.4330
 Red. masses --      1.1861                 1.2737                 1.7022
 Frc consts  --      0.4534                 0.4978                 0.8222
 IR Inten    --      7.3309                26.3520                63.8083

                      7                      8                      9
                     A"                     A'                     A'
 Frequencies --    995.7162              1171.5621              1245.2176
 Red. masses --      1.6886                 2.3393                 1.1258
 Frc consts  --      0.9864                 1.8918                 1.0285
 IR Inten    --      1.1979                 8.6159               117.9230

                     10                     11                     12
                     A'                     A"                     A'
 Frequencies --   1265.0520              1372.4877              1425.7432
 Red. masses --      1.3640                 1.0553                 1.4910
 Frc consts  --      1.2861                 1.1712                 1.7857
 IR Inten    --     57.8839                22.8821                10.8843

                     13                     14                     15
                     A'                     A"                     A'
 Frequencies --   1516.0187              2907.2278              2913.9136
 Red. masses --      2.1806                 1.0818                 1.0478
 Frc consts  --      2.9528                 5.3869                 5.2420
 IR Inten    --      4.6668                39.6000               175.4314

                     16                     17                     18
                     A'                     A'                     A'
 Frequencies --   3059.9819              3168.2063              3200.0018
 Red. masses --      1.0859                 1.0966                 1.0977
 Frc consts  --      5.9906                 6.4850                 6.6229
 IR Inten    --     16.5886                12.3764                62.9657

 - Thermochemistry -
 -------------------
 Temperature   298.150 Kelvin.  Pressure   1.00000 Atm.
 Atom     1 has atomic number  6 and mass  12.00000

 Molecular mass:    41.03913 amu.
 Principal axes and moments of inertia in atomic units:
                           1         2         3
     Eigenvalues --    32.27469 188.54507 210.40469
           X            0.94022  -0.34058   0.00000
           Y            0.34058   0.94022   0.00000
           Z            0.00000   0.00000   1.00000
 This molecule is an asymmetric top.
 Rotational symmetry number  1.
 Rotational temperatures (Kelvin)      2.68365     0.45938     0.41165
 Rotational constants (GHZ):          55.91816     9.57194     8.57748
 Zero-point vibrational energy     166737.3 (Joules/Mol)
                                   39.85118 (Kcal/Mol)
 Warning -- explicit consideration of   3 degrees of freedom as
           vibrations may cause significant error
 Vibrational temperatures:    152.37   582.93   861.58  1158.84  1171.78
          (Kelvin)           1302.71  1432.61  1685.61  1791.59  1820.13
                             1974.70  2051.32  2181.21  4182.85  4192.47
                             4402.63  4558.34  4604.08

 Zero-point correction=                           0.063507 (Hartree/Particle)
 Thermal correction to Energy=                    0.067835
 Thermal correction to Enthalpy=                  0.068779
 Thermal correction to Gibbs Free Energy=         0.037158
 Sum of electronic and zero-point Energies=           -116.847288
 Sum of electronic and thermal Energies=              -116.842960
 Sum of electronic and thermal Enthalpies=            -116.842016
 Sum of electronic and thermal Free Energies=         -116.873636

                     E (Thermal)             CV                S
                      KCal/Mol        Cal/Mol-Kelvin    Cal/Mol-Kelvin
 Total                   42.567             13.395             66.551
 Electronic               0.000              0.000              2.183
 Translational            0.889              2.981             37.063
 Rotational               0.889              2.981             21.776
 Vibrational             40.789              7.434              5.529
 Vibration     1          0.605              1.945              3.343
 Vibration     2          0.770              1.459              0.944
 Vibration     3          0.957              1.034              0.452

 Optimization completed.
    -- Stationary point found.
 Normal termination of Gaussian 09 at Fri Aug  9 00:11:14 2019.
