 Gaussian 09, Revision D.01,
 Gaussian 09:  EM64L-G09RevD.01 24-Apr-2013

 ------------------------------
 #p b3lyp/6-311++G(3df,2p) freq
 ------------------------------

 ---------
 b3lyp opt
 ---------
 Symbolic Z-matrix:
 Charge =  1 Multiplicity = 1

                         Standard orientation:
 ---------------------------------------------------------------------
 Center     Atomic      Atomic             Coordinates (Angstroms)
 Number     Number       Type             X           Y           Z
 ---------------------------------------------------------------------
      1          6           0       -0.108115   -0.027640   -0.000046
      2          6           0        1.294164   -0.017447    0.000257
      3          6           0       -1.371860    0.004215    0.000059
      4          1           0       -1.923577    0.946328    0.000225
      5          1           0       -1.949339   -0.923813   -0.000241
      6          1           0        1.729139   -0.420931    0.917888
      7          1           0        1.529796    1.070928   -0.004624
      8          1           0        1.728843   -0.427278   -0.914866
 ---------------------------------------------------------------------

 SCF Done:  E(RB3LYP) =  -116.995924644     A.U. after   11 cycles

 The electronic state is 1-A.
 Alpha  occ. eigenvalues --  -10.52703 -10.44140 -10.43652  -1.08218  -0.99428
 Alpha  occ. eigenvalues --   -0.78601  -0.72014  -0.71455  -0.69075  -0.66058
 Alpha  occ. eigenvalues --   -0.54763
 Alpha virt. eigenvalues --   -0.35503  -0.24255  -0.17906  -0.13328  -0.12155
 Alpha virt. eigenvalues --   -0.10874  -0.10720  -0.09653  -0.07793  -0.07732
 Alpha virt. eigenvalues --   -0.05858  -0.05530  -0.03510  -0.02883  -0.01527

 Mulliken charges:
               1
     1  C    0.473473
     2  C   -0.372140
     3  C   -0.303192
     4  H    0.259887
     5  H    0.254400
     6  H    0.227387
     7  H    0.232623
     8  H    0.227563
 Sum of Mulliken charges =   1.00000

 Dipole moment (field-independent basis, Debye):
    X=             -0.1838    Y=              0.2552    Z=             -0.0025  Tot=              0.3145
 Quadrupole moment (field-independent basis, Debye-Ang):
   XX=             -4.2717   YY=            -13.7636   ZZ=            -17.4064
   XY=              0.3776   XZ=             -0.0046   YZ=             -0.0002

  Exact polarizability:  49.758   0.515  25.221  -0.006   0.003  23.453
 Approx polarizability:  77.639   1.211  36.783  -0.020  -0.002  32.100

                      1                      2                      3
                      A                      A                      A
 Frequencies --    165.7817               302.2344               348.1825
 Red. masses --      1.0302                 1.4760                 2.8293
 Frc consts  --      0.0167                 0.0794                 0.2021
 IR Inten    --     12.4575                 9.4817                 7.2790

                      4                      5                      6
                      A                      A                      A
 Frequencies --    583.4598               842.8642               921.7134
 Red. masses --      1.3030                 1.3095                 2.8639
 Frc consts  --      0.2613                 0.5481                 1.4335
 IR Inten    --      1.3003                68.4801                33.4312

                      7                      8                      9
                      A                      A                      A
 Frequencies --   1010.5121              1036.6449              1269.3334
 Red. masses --      2.2965                 1.4173                 1.1314
 Frc consts  --      1.3816                 0.8973                 1.0740
 IR Inten    --     14.1537                 3.1342                66.0606

                     10                     11                     12
                      A                      A                      A
 Frequencies --   1310.7245              1342.4931              1450.1789
 Red. masses --      1.1925                 1.0290                 1.1311
 Frc consts  --      1.2071                 1.0927                 1.4015
 IR Inten    --     52.2854                26.9924                 6.6079

                     13                     14                     15
                      A                      A                      A
 Frequencies --   1931.6287              2887.4199              3032.3483
 Red. masses --      8.8867                 1.0621                 1.0587
 Frc consts  --     19.5360                 5.2171                 5.7358
 IR Inten    --    184.9237               158.1328                58.7773

                     16                     17                     18
                      A                      A                      A
 Frequencies --   3063.5212              3103.5434              3125.7062
 Red. masses --      1.0660                 1.1077                 1.1092
 Frc consts  --      5.8948                 6.2862                 6.3849
 IR Inten    --    199.5522                27.2975               124.4739

 - Thermochemistry -
 -------------------
 Temperature   298.150 Kelvin.  Pressure   1.00000 Atm.
 Atom     1 has atomic number  6 and mass  12.00000

 Molecular mass:    41.03913 amu.
 Principal axes and moments of inertia in atomic units:
                           1         2         3
     Eigenvalues --    17.80136 215.79537 221.50750
           X            1.00000   0.00284  -0.00003
           Y           -0.00284   1.00000   0.00000
           Z            0.00003   0.00000   1.00000
 This molecule is an asymmetric top.
 Rotational symmetry number  1.
 Rotational temperatures (Kelvin)      4.86557     0.40137     0.39102
 Rotational constants (GHZ):         101.38222     8.36321     8.14754
 Zero-point vibrational energy     165852.0 (Joules/Mol)
                                   39.63958 (Kcal/Mol)
 Warning -- explicit consideration of   4 degrees of freedom as
           vibrations may cause significant error
 Vibrational temperatures:    238.52   434.85   500.96   839.47  1212.69
          (Kelvin)           1326.14  1453.90  1491.50  1826.29  1885.84
                             1931.55  2086.48  2779.18  4154.35  4362.87
                             4407.72  4465.30  4497.19

 Zero-point correction=                           0.063170 (Hartree/Particle)
 Thermal correction to Energy=                    0.067792
 Thermal correction to Enthalpy=                  0.068736
 Thermal correction to Gibbs Free Energy=         0.038070
 Sum of electronic and zero-point Energies=           -116.932755
 Sum of electronic and thermal Energies=              -116.928132
 Sum of electronic and thermal Enthalpies=            -116.927188
 Sum of electronic and thermal Free Energies=         -116.957855

                     E (Thermal)             CV                S
                      KCal/Mol        Cal/Mol-Kelvin    Cal/Mol-Kelvin
 Total                   42.540             14.461             64.543
 Electronic               0.000              0.000              0.000
 Translational            0.889              2.981             37.063
 Rotational               0.889              2.981             21.370
 Vibrational             40.763              8.499              6.111
 Vibration     1          0.624              1.885              2.483
 Vibration     2          0.694              1.669              1.405
 Vibration     3          0.726              1.579              1.174
 Vibration     4          0.940              1.067              0.479

 Normal termination of Gaussian 09 at Thu Aug  8 08:29:37 2019.
