 Gaussian 09, Revision D.01,
 Gaussian 09:  EM64L-G09RevD.01 24-Apr-2013

 ------------------------------
 #p b3lyp/6-311++G(3df,2p) freq
 ------------------------------

 ---------
 b3lyp opt
 ---------
 Symbolic Z-matrix:
 Charge =  0 Multiplicity = 2

                         Standard orientation:
 ---------------------------------------------------------------------
 Center     Atomic      Atomic             Coordinates (Angstroms)
 Number     Number       Type             X           Y           Z
 ---------------------------------------------------------------------
      1          6           0        0.000000    0.395211    0.000000
      2          6           0       -1.180430   -0.471709    0.000000
      3          6           0        1.303114    0.332049    0.000000
      4          1           0        1.827432   -0.626866    0.000000
      5          1           0        1.931085    1.216124    0.000000
      6          1           0       -1.802387   -0.295550    0.879975
      7          1           0       -0.889846   -1.531469    0.000000
      8          1           0       -1.802387   -0.295550   -0.879975
 ---------------------------------------------------------------------

 SCF Done:  E(UB3LYP) =  -117.273758103     A.U. after   13 cycles

 The electronic state is 2-A'.
 Alpha  occ. eigenvalues --  -10.19565 -10.18462 -10.16556  -0.79795  -0.70895
 Alpha  occ. eigenvalues --   -0.53652  -0.46009  -0.44160  -0.43268  -0.40169
 Alpha  occ. eigenvalues --   -0.27162  -0.21931
 Alpha virt. eigenvalues --   -0.00629   0.00234   0.01559   0.02335   0.03769
 Alpha virt. eigenvalues --    0.04968   0.05759   0.08284   0.08788   0.09364
 Alpha virt. eigenvalues --    0.11035   0.11843   0.12488   0.13696   0.14421

  Beta  occ. eigenvalues --  -10.18442 -10.18076 -10.16681  -0.78034  -0.70493
  Beta  occ. eigenvalues --   -0.51846  -0.44097  -0.43048  -0.42950  -0.39504
  Beta  occ. eigenvalues --   -0.26614
  Beta virt. eigenvalues --   -0.07267  -0.00353   0.01142   0.01592   0.02467
  Beta virt. eigenvalues --    0.03874   0.05034   0.06054   0.08165   0.08911
  Beta virt. eigenvalues --    0.09369   0.11055   0.11902   0.13181   0.13798

 Mulliken charges and spin densities:
               1          2
     1  C    0.149936   1.040298
     2  C   -0.401264  -0.055190
     3  C   -0.475900  -0.188723
     4  H    0.112216   0.090570
     5  H    0.164433   0.032421
     6  H    0.157499   0.003252
     7  H    0.135580   0.074120
     8  H    0.157499   0.003252
 Sum of Mulliken charges =   0.00000   1.00000

 Dipole moment (field-independent basis, Debye):
    X=             -0.4625    Y=             -0.8104    Z=              0.0000  Tot=              0.9331
 Quadrupole moment (field-independent basis, Debye-Ang):
   XX=            -17.6654   YY=            -19.7996   ZZ=            -21.1695
   XY=              0.5606   XZ=              0.0000   YZ=              0.0000

  Exact polarizability:  53.575   3.463  36.997   0.000   0.000  31.570
 Approx polarizability:  75.032   1.412  48.816   0.000   0.000  43.013

                      1                      2                      3
                     A"                     A'                     A"
 Frequencies --    184.3627               315.3424               477.8065
 Red. masses --      1.2973                 2.0864                 1.2400
 Frc consts  --      0.0260                 0.1222                 0.1668
 IR Inten    --      3.2281                 4.2703                 5.5980

                      4                      5                      6
                     A"                     A'                     A'
 Frequencies --    889.7391               898.4377               935.7984
 Red. masses --      1.3252                 1.8176                 1.7239
 Frc consts  --      0.6181                 0.8644                 0.8895
 IR Inten    --     48.1617                 0.8488                 4.4380

                      7                      8                      9
                     A"                     A'                     A'
 Frequencies --   1051.2515              1098.9792              1393.6400
 Red. masses --      1.4259                 1.8416                 1.1712
 Frc consts  --      0.9284                 1.3104                 1.3403
 IR Inten    --      0.0010                 1.8823                 1.1620

                     10                     11                     12
                     A'                     A"                     A'
 Frequencies --   1420.3352              1455.7384              1473.0924
 Red. masses --      1.1495                 1.0401                 1.0465
 Frc consts  --      1.3663                 1.2987                 1.3380
 IR Inten    --      2.9281                 7.9668                13.3091

                     13                     14                     15
                     A'                     A'                     A'
 Frequencies --   1743.7975              2957.1569              3023.0610
 Red. masses --      8.4464                 1.0530                 1.0667
 Frc consts  --     15.1326                 5.4252                 5.7434
 IR Inten    --     22.6243                24.9342                14.8692

                     16                     17                     18
                     A'                     A"                     A'
 Frequencies --   3045.9989              3070.6060              3143.7096
 Red. masses --      1.0767                 1.1000                 1.0982
 Frc consts  --      5.8858                 6.1108                 6.3945
 IR Inten    --     12.3655                 7.6261                 4.1746

 - Thermochemistry -
 -------------------
 Temperature   298.150 Kelvin.  Pressure   1.00000 Atm.
 Atom     1 has atomic number  6 and mass  12.00000

 Molecular mass:    41.03913 amu.
 Principal axes and moments of inertia in atomic units:
                           1         2         3
     Eigenvalues --    23.66235 208.15102 220.66570
           X            0.94862  -0.31641   0.00000
           Y            0.31641   0.94862   0.00000
           Z            0.00000   0.00000   1.00000
 This molecule is an asymmetric top.
 Rotational symmetry number  1.
 Rotational temperatures (Kelvin)      3.66041     0.41611     0.39251
 Rotational constants (GHZ):          76.27060     8.67035     8.17862
 Zero-point vibrational energy     170939.5 (Joules/Mol)
                                   40.85552 (Kcal/Mol)
 Warning -- explicit consideration of   3 degrees of freedom as
           vibrations may cause significant error
 Vibrational temperatures:    265.26   453.71   687.46  1280.13  1292.65
          (Kelvin)           1346.40  1512.51  1581.18  2005.13  2043.54
                             2094.48  2119.45  2508.93  4254.68  4349.51
                             4382.51  4417.91  4523.09

 Zero-point correction=                           0.065107 (Hartree/Particle)
 Thermal correction to Energy=                    0.069408
 Thermal correction to Enthalpy=                  0.070353
 Thermal correction to Gibbs Free Energy=         0.039469
 Sum of electronic and zero-point Energies=           -117.208651
 Sum of electronic and thermal Energies=              -117.204350
 Sum of electronic and thermal Enthalpies=            -117.203405
 Sum of electronic and thermal Free Energies=         -117.234289

                     E (Thermal)             CV                S
                      KCal/Mol        Cal/Mol-Kelvin    Cal/Mol-Kelvin
 Total                   43.554             13.250             65.000
 Electronic               0.000              0.000              1.377
 Translational            0.889              2.981             37.063
 Rotational               0.889              2.981             21.613
 Vibrational             41.777              7.288              4.946
 Vibration     1          0.631              1.861              2.284
 Vibration     2          0.703              1.644              1.334
 Vibration     3          0.834              1.299              0.716

 Optimization completed.
    -- Stationary point found.
 Normal termination of Gaussian 09 at Fri Aug  9 00:03:01 2019.
