 Gaussian 09, Revision D.01,
 Gaussian 09:  EM64L-G09RevD.01 24-Apr-2013

 ------------------------------
 #p b3lyp/6-311++G(3df,2p) freq
 ------------------------------

 ---------
 b3lyp opt
 ---------
 Symbolic Z-matrix:
 Charge =  0 Multiplicity = 4

                         Standard orientation:
 ---------------------------------------------------------------------
 Center     Atomic      Atomic             Coordinates (Angstroms)
 Number     Number       Type             X           Y           Z
 ---------------------------------------------------------------------
      1          6           0        0.044656   -0.551659    0.000317
      2          6           0       -1.242795    0.153628   -0.000079
      3          6           0        1.404344    0.059843    0.000015
      4          1           0        1.783076    0.501754   -0.919784
      5          1           0        1.782835    0.503346    0.919146
      6          1           0       -1.363680    0.793959   -0.886373
      7          1           0       -1.367194    0.789374    0.889001
      8          1           0       -2.072266   -0.559302   -0.003509
 ---------------------------------------------------------------------

 SCF Done:  E(UB3LYP) =  -117.155166560     A.U. after   12 cycles

 The electronic state is 4-A.
 Alpha  occ. eigenvalues --  -10.20803 -10.20122 -10.17882  -0.79593  -0.70499
 Alpha  occ. eigenvalues --   -0.55445  -0.45642  -0.44080  -0.41695  -0.41510
 Alpha  occ. eigenvalues --   -0.30364  -0.20171  -0.19571
 Alpha virt. eigenvalues --   -0.00551   0.01324   0.02407   0.03309   0.05198
 Alpha virt. eigenvalues --    0.05552   0.07494   0.08091   0.09745   0.11077
 Alpha virt. eigenvalues --    0.11777   0.12432   0.12874   0.13507   0.14839

  Beta  occ. eigenvalues --  -10.18629 -10.17993 -10.17813  -0.75592  -0.67099
  Beta  occ. eigenvalues --   -0.50607  -0.43135  -0.42133  -0.40386  -0.38983
  Beta virt. eigenvalues --   -0.13492  -0.04109  -0.03441   0.00735   0.01537
  Beta virt. eigenvalues --    0.02480   0.03511   0.05214   0.06148   0.08269
  Beta virt. eigenvalues --    0.08944   0.10557   0.11150   0.12108   0.12986

 Mulliken charges and spin densities:
               1          2
     1  C   -0.067317   1.898415
     2  C   -0.332880  -0.130239
     3  C   -0.361321   1.006865
     4  H    0.158357   0.023082
     5  H    0.158325   0.023109
     6  H    0.148846   0.074255
     7  H    0.148876   0.074171
     8  H    0.147113   0.030343
 Sum of Mulliken charges =   0.00000   3.00000

 Dipole moment (field-independent basis, Debye):
    X=             -0.5041    Y=              1.0113    Z=             -0.0009  Tot=              1.1299
 Quadrupole moment (field-independent basis, Debye-Ang):
   XX=            -19.2166   YY=            -21.6546   ZZ=            -19.9304
   XY=              0.9611   XZ=              0.0001   YZ=              0.0015

  Exact polarizability:  49.302  -0.148  37.487  -0.003  -0.005  35.418
 Approx polarizability:  57.876  -0.266  49.062  -0.002  -0.007  47.316

                      1                      2                      3
                      A                      A                      A
 Frequencies --     74.7000               329.4019               362.1845
 Red. masses --      1.1295                 2.1829                 1.1992
 Frc consts  --      0.0037                 0.1396                 0.0927
 IR Inten    --      2.4221                 3.3489                 0.1538

                      4                      5                      6
                      A                      A                      A
 Frequencies --    659.5089               848.1170               911.4189
 Red. masses --      1.3845                 2.4694                 1.1908
 Frc consts  --      0.3548                 1.0465                 0.5828
 IR Inten    --     32.7030                 7.5151                 0.2487

                      7                      8                      9
                      A                      A                      A
 Frequencies --   1032.1932              1033.5191              1252.3815
 Red. masses --      2.1567                 1.4563                 5.3284
 Frc consts  --      1.3538                 0.9165                 4.9240
 IR Inten    --      1.1093                 0.0469                10.8041

                     10                     11                     12
                      A                      A                      A
 Frequencies --   1372.6203              1427.5736              1439.0706
 Red. masses --      1.2291                 1.1378                 1.0438
 Frc consts  --      1.3644                 1.3662                 1.2737
 IR Inten    --      6.7347                 6.2695                 8.8588

                     13                     14                     15
                      A                      A                      A
 Frequencies --   1448.0237              2927.2122              2962.7087
 Red. masses --      1.0486                 1.0389                 1.0976
 Frc consts  --      1.2954                 5.2449                 5.6764
 IR Inten    --      6.0788                25.6995                26.4141

                     16                     17                     18
                      A                      A                      A
 Frequencies --   3041.9406              3046.9401              3132.3978
 Red. masses --      1.0876                 1.0470                 1.1146
 Frc consts  --      5.9293                 5.7271                 6.4437
 IR Inten    --      5.3036                29.5449                15.6890

 - Thermochemistry -
 -------------------
 Temperature   298.150 Kelvin.  Pressure   1.00000 Atm.
 Atom     1 has atomic number  6 and mass  12.00000

 Molecular mass:    41.03913 amu.
 Principal axes and moments of inertia in atomic units:
                           1         2         3
     Eigenvalues --    33.02904 214.20704 223.72143
           X            0.99990   0.01425  -0.00001
           Y           -0.01425   0.99990   0.00038
           Z            0.00001  -0.00038   1.00000
 This molecule is an asymmetric top.
 Rotational symmetry number  1.
 Rotational temperatures (Kelvin)      2.62235     0.40435     0.38715
 Rotational constants (GHZ):          54.64104     8.42522     8.06691
 Zero-point vibrational energy     163301.7 (Joules/Mol)
                                   39.03004 (Kcal/Mol)
 Warning -- explicit consideration of   3 degrees of freedom as
           vibrations may cause significant error
 Vibrational temperatures:    107.48   473.94   521.10   948.88  1220.25
          (Kelvin)           1311.33  1485.09  1487.00  1801.90  1974.89
                             2053.96  2070.50  2083.38  4211.60  4262.67
                             4376.67  4383.86  4506.82

 Zero-point correction=                           0.062198 (Hartree/Particle)
 Thermal correction to Energy=                    0.066901
 Thermal correction to Enthalpy=                  0.067845
 Thermal correction to Gibbs Free Energy=         0.034998
 Sum of electronic and zero-point Energies=           -117.092968
 Sum of electronic and thermal Energies=              -117.088266
 Sum of electronic and thermal Enthalpies=            -117.087321
 Sum of electronic and thermal Free Energies=         -117.120168

                     E (Thermal)             CV                S
                      KCal/Mol        Cal/Mol-Kelvin    Cal/Mol-Kelvin
 Total                   41.981             14.316             69.132
 Electronic               0.000              0.000              2.755
 Translational            0.889              2.981             37.063
 Rotational               0.889              2.981             21.986
 Vibrational             40.204              8.355              7.327
 Vibration     1          0.599              1.966              4.026
 Vibration     2          0.712              1.617              1.263
 Vibration     3          0.736              1.550              1.113

 Normal termination of Gaussian 09 at Thu Aug  8 08:17:08 2019.
