 Gaussian 09, Revision D.01,
 Gaussian 09:  EM64L-G09RevD.01 24-Apr-2013

 ------------------------------
 #p b3lyp/6-311++G(3df,2p) freq
 ------------------------------

 ---------
 b3lyp opt
 ---------
 Symbolic Z-matrix:
 Charge =  0 Multiplicity = 4

                         Standard orientation:
 ---------------------------------------------------------------------
 Center     Atomic      Atomic             Coordinates (Angstroms)
 Number     Number       Type             X           Y           Z
 ---------------------------------------------------------------------
      1          6           0        0.000000    1.295105   -0.206424
      2          6           0        0.000000    0.000000    0.454138
      3          6           0        0.000000   -1.295105   -0.206424
      4          1           0       -0.924344   -1.810017   -0.449099
      5          1           0       -0.924344    1.810017   -0.449099
      6          1           0        0.924344   -1.810017   -0.449099
      7          1           0        0.924344    1.810017   -0.449099
      8          1           0        0.000000    0.000000    1.548653
 ---------------------------------------------------------------------

 SCF Done:  E(UB3LYP) =  -117.177729039     A.U. after   11 cycles

 The electronic state is 4-A2.
 Alpha  occ. eigenvalues --  -10.19214 -10.18768 -10.18764  -0.79731  -0.69215
 Alpha  occ. eigenvalues --   -0.57681  -0.45905  -0.44686  -0.42757  -0.42439
 Alpha  occ. eigenvalues --   -0.22832  -0.21573  -0.20544
 Alpha virt. eigenvalues --   -0.00302   0.01609   0.01890   0.02363   0.04737
 Alpha virt. eigenvalues --    0.06780   0.07894   0.08452   0.09988   0.11427
 Alpha virt. eigenvalues --    0.12055   0.12822   0.13383   0.13646   0.13954

  Beta  occ. eigenvalues --  -10.17975 -10.17349 -10.17347  -0.74915  -0.64763
  Beta  occ. eigenvalues --   -0.53928  -0.43176  -0.41544  -0.40678  -0.40438
  Beta virt. eigenvalues --   -0.08411  -0.06527  -0.05951  -0.00010   0.01946
  Beta virt. eigenvalues --    0.02260   0.02411   0.04762   0.07121   0.09102
  Beta virt. eigenvalues --    0.09645   0.10812   0.11724   0.12760   0.13010

 Mulliken charges and spin densities:
               1          2
     1  C   -0.314836   1.000160
     2  C   -0.121911   0.854033
     3  C   -0.314836   1.000160
     4  H    0.150736   0.020075
     5  H    0.150736   0.020075
     6  H    0.150736   0.020075
     7  H    0.150736   0.020075
     8  H    0.148638   0.065347
 Sum of Mulliken charges =   0.00000   3.00000

 Dipole moment (field-independent basis, Debye):
    X=              0.0000    Y=              0.0000    Z=              0.0810  Tot=              0.0810
 Quadrupole moment (field-independent basis, Debye-Ang):
   XX=            -19.3846   YY=            -19.7587   ZZ=            -20.9075
   XY=              0.0000   XZ=              0.0000   YZ=              0.0000

  Exact polarizability:  33.846   0.000  49.487   0.000   0.000  37.096
 Approx polarizability:  45.367   0.000  58.011   0.000   0.000  48.552

                      1                      2                      3
                     B1                     A1                     B2
 Frequencies --    246.8922               365.0863               423.1489
 Red. masses --      1.4600                 1.3434                 1.2793
 Frc consts  --      0.0524                 0.1055                 0.1350
 IR Inten    --     14.5447                33.1091                24.1996

                      4                      5                      6
                     A2                     A1                     B1
 Frequencies --    485.7198               553.6069               699.1030
 Red. masses --      1.0113                 3.2232                 1.0317
 Frc consts  --      0.1406                 0.5820                 0.2971
 IR Inten    --      0.0000                49.0119                14.0179

                      7                      8                      9
                     A2                     A1                     B1
 Frequencies --    898.3255               968.8979               975.9042
 Red. masses --      1.2123                 4.7298                 1.4066
 Frc consts  --      0.5764                 2.6161                 0.7893
 IR Inten    --      0.0000                 0.1873                 0.6994

                     10                     11                     12
                     B2                     B2                     B2
 Frequencies --   1155.4666              1272.5832              1420.5695
 Red. masses --      1.3085                 3.2169                 1.1358
 Frc consts  --      1.0293                 3.0694                 1.3504
 IR Inten    --      0.3047                 1.9381                 0.1728

                     13                     14                     15
                     A1                     A1                     B2
 Frequencies --   1439.3533              3005.3791              3077.9347
 Red. masses --      1.1409                 1.0784                 1.0469
 Frc consts  --      1.3927                 5.7388                 5.8437
 IR Inten    --      0.4820                 8.1133                29.4131

                     16                     17                     18
                     A1                     B1                     A2
 Frequencies --   3082.6053              3161.2399              3161.3027
 Red. masses --      1.0481                 1.1168                 1.1148
 Frc consts  --      5.8677                 6.5754                 6.5643
 IR Inten    --      4.1498                16.7818                 0.0000

 - Thermochemistry -
 -------------------
 Temperature   298.150 Kelvin.  Pressure   1.00000 Atm.
 Atom     1 has atomic number  6 and mass  12.00000

 Molecular mass:    41.03913 amu.
 Principal axes and moments of inertia in atomic units:
                           1         2         3
     Eigenvalues --    36.32000 203.21760 214.93731
           X            0.00000   0.00000   1.00000
           Y            1.00000   0.00000   0.00000
           Z            0.00000   1.00000   0.00000
 This molecule is an asymmetric top.
 Rotational symmetry number  2.
 Rotational temperatures (Kelvin)      2.38474     0.42621     0.40297
 Rotational constants (GHZ):          49.69001     8.88083     8.39659
 Zero-point vibrational energy     157865.9 (Joules/Mol)
                                   37.73086 (Kcal/Mol)
 Warning -- explicit consideration of   5 degrees of freedom as
           vibrations may cause significant error
 Vibrational temperatures:    355.22   525.28   608.82   698.84   796.52
          (Kelvin)           1005.85  1292.49  1394.03  1404.11  1662.46
                             1830.96  2043.88  2070.91  4324.06  4428.46
                             4435.18  4548.31  4548.40

 Zero-point correction=                           0.060128 (Hartree/Particle)
 Thermal correction to Energy=                    0.064801
 Thermal correction to Enthalpy=                  0.065745
 Thermal correction to Gibbs Free Energy=         0.034309
 Sum of electronic and zero-point Energies=           -117.117601
 Sum of electronic and thermal Energies=              -117.112928
 Sum of electronic and thermal Enthalpies=            -117.111984
 Sum of electronic and thermal Free Energies=         -117.143420

                     E (Thermal)             CV                S
                      KCal/Mol        Cal/Mol-Kelvin    Cal/Mol-Kelvin
 Total                   40.663             15.847             66.164
 Electronic               0.000              0.000              2.755
 Translational            0.889              2.981             37.063
 Rotational               0.889              2.981             20.611
 Vibrational             38.886              9.885              5.735
 Vibration     1          0.661              1.768              1.753
 Vibration     2          0.738              1.544              1.100
 Vibration     3          0.785              1.420              0.881
 Vibration     4          0.842              1.282              0.695
 Vibration     5          0.909              1.132              0.537

 Optimization completed.
    -- Stationary point found.
 Normal termination of Gaussian 09 at Fri Aug  9 00:05:40 2019.
