 Gaussian 09, Revision D.01,
 Gaussian 09:  EM64L-G09RevD.01 24-Apr-2013

 ------------------------------
 #p b3lyp/6-311++G(3df,2p) freq
 ------------------------------

 ---------
 b3lyp opt
 ---------
 Symbolic Z-matrix:
 Charge =  1 Multiplicity = 1

                         Standard orientation:
 ---------------------------------------------------------------------
 Center     Atomic      Atomic             Coordinates (Angstroms)
 Number     Number       Type             X           Y           Z
 ---------------------------------------------------------------------
      1          6           0        1.184194   -0.210332    0.000000
      2          6           0        0.000000    0.492650    0.000000
      3          6           0       -1.184118   -0.210530    0.000000
      4          1           0       -2.145191    0.292250    0.000000
      5          1           0        2.145211    0.292520    0.000000
      6          1           0       -1.192983   -1.295421    0.000000
      7          1           0        1.192763   -1.295182    0.000000
      8          1           0       -0.000256    1.575107    0.000000
 ---------------------------------------------------------------------

 SCF Done:  E(RB3LYP) =  -117.009875724     A.U. after   10 cycles

 The electronic state is 1-A'.
 Alpha  occ. eigenvalues --  -10.48681 -10.48678 -10.44100  -1.07706  -0.94648
 Alpha  occ. eigenvalues --   -0.82185  -0.75023  -0.71034  -0.64888  -0.62978
 Alpha  occ. eigenvalues --   -0.57972
 Alpha virt. eigenvalues --   -0.38682  -0.21883  -0.16254  -0.14618  -0.13390
 Alpha virt. eigenvalues --   -0.10220  -0.09871  -0.09430  -0.09023  -0.06032
 Alpha virt. eigenvalues --   -0.05918  -0.05249  -0.03819  -0.02553  -0.01167

 Mulliken charges:
               1
     1  C   -0.203264
     2  C    0.293601
     3  C   -0.203319
     4  H    0.227051
     5  H    0.227104
     6  H    0.221406
     7  H    0.221376
     8  H    0.216046
 Sum of Mulliken charges =   1.00000

 Dipole moment (field-independent basis, Debye):
    X=             -0.0003    Y=             -0.5479    Z=              0.0000  Tot=              0.5479
 Quadrupole moment (field-independent basis, Debye-Ang):
   XX=             -5.9296   YY=            -12.8701   ZZ=            -17.9386
   XY=              0.0012   XZ=              0.0000   YZ=              0.0000

  Exact polarizability:  49.047   0.002  29.377   0.002   0.001  20.514
 Approx polarizability:  86.234   0.004  40.540   0.000   0.000  29.392

                      1                      2                      3
                     A"                     A'                     A"
 Frequencies --    316.3998               446.4230               620.2251
 Red. masses --      1.3287                 1.9628                 1.0100
 Frc consts  --      0.0784                 0.2305                 0.2289
 IR Inten    --      8.6535                 0.2433                 0.0000

                      4                      5                      6
                     A'                     A"                     A'
 Frequencies --    957.3126              1044.6793              1054.6956
 Red. masses --      1.1507                 1.1483                 1.7563
 Frc consts  --      0.6213                 0.7384                 1.1510
 IR Inten    --      2.0299                34.1198                 1.2148

                      7                      8                      9
                     A"                     A"                     A'
 Frequencies --   1160.7119              1163.0660              1302.2419
 Red. masses --      1.4453                 1.3274                 1.2945
 Frc consts  --      1.1472                 1.0580                 1.2934
 IR Inten    --     18.8246                 0.0145                52.6255

                     10                     11                     12
                     A'                     A'                     A'
 Frequencies --   1313.1727              1452.5707              1553.1424
 Red. masses --      2.1767                 1.2272                 1.3748
 Frc consts  --      2.2115                 1.5256                 1.9539
 IR Inten    --      3.9208               103.9318                12.5910

                     13                     14                     15
                     A'                     A'                     A'
 Frequencies --   1613.4056              3131.7291              3132.6470
 Red. masses --      2.8949                 1.0582                 1.0609
 Frc consts  --      4.4399                 6.1146                 6.1339
 IR Inten    --    176.9026                 1.7727                10.1921

                     16                     17                     18
                     A'                     A'                     A'
 Frequencies --   3188.2356              3233.7771              3236.2543
 Red. masses --      1.0964                 1.1210                 1.1193
 Frc consts  --      6.5662                 6.9067                 6.9070
 IR Inten    --      5.0460                 8.9759                21.8808

 - Thermochemistry -
 -------------------
 Temperature   298.150 Kelvin.  Pressure   1.00000 Atm.
 Atom     1 has atomic number  6 and mass  12.00000

 Molecular mass:    41.03913 amu.
 Principal axes and moments of inertia in atomic units:
                           1         2         3
     Eigenvalues --    35.80101 163.54540 199.34641
           X            1.00000  -0.00009   0.00000
           Y            0.00009   1.00000   0.00000
           Z            0.00000   0.00000   1.00000
 This molecule is an asymmetric top.
 Rotational symmetry number  1.
 Rotational temperatures (Kelvin)      2.41931     0.52960     0.43449
 Rotational constants (GHZ):          50.41034    11.03511     9.05329
 Zero-point vibrational energy     178965.5 (Joules/Mol)
                                   42.77377 (Kcal/Mol)
 Warning -- explicit consideration of   3 degrees of freedom as
           vibrations may cause significant error
 Vibrational temperatures:    455.23   642.30   892.36  1377.36  1503.06
          (Kelvin)           1517.47  1670.00  1673.39  1873.63  1889.36
                             2089.92  2234.62  2321.33  4505.85  4507.17
                             4587.15  4652.68  4656.24

 Zero-point correction=                           0.068164 (Hartree/Particle)
 Thermal correction to Energy=                    0.071991
 Thermal correction to Enthalpy=                  0.072935
 Thermal correction to Gibbs Free Energy=         0.043599
 Sum of electronic and zero-point Energies=           -116.941711
 Sum of electronic and thermal Energies=              -116.937885
 Sum of electronic and thermal Enthalpies=            -116.936941
 Sum of electronic and thermal Free Energies=         -116.966277

                     E (Thermal)             CV                S
                      KCal/Mol        Cal/Mol-Kelvin    Cal/Mol-Kelvin
 Total                   45.175             11.992             61.743
 Electronic               0.000              0.000              0.000
 Translational            0.889              2.981             37.063
 Rotational               0.889              2.981             21.684
 Vibrational             43.398              6.031              2.996
 Vibration     1          0.703              1.642              1.329
 Vibration     2          0.806              1.369              0.807
 Vibration     3          0.980              0.989              0.416

 Optimization completed.
    -- Stationary point found.
 Normal termination of Gaussian 09 at Fri Aug  9 00:05:28 2019.
