 Gaussian 09, Revision D.01,
 Gaussian 09:  EM64L-G09RevD.01 24-Apr-2013

 ------------------------------
 #p b3lyp/6-311++G(3df,2p) freq
 ------------------------------

 ---------
 b3lyp opt
 ---------
 Symbolic Z-matrix:
 Charge =  1 Multiplicity = 3

                         Standard orientation:
 ---------------------------------------------------------------------
 Center     Atomic      Atomic             Coordinates (Angstroms)
 Number     Number       Type             X           Y           Z
 ---------------------------------------------------------------------
      1          6           0       -0.072893   -0.367613   -0.001097
      2          6           0        1.265022    0.096963   -0.000713
      3          6           0       -1.381771    0.093034    0.000176
      4          1           0       -1.607863    1.160845    0.000185
      5          1           0       -2.214461   -0.604975    0.000693
      6          1           0        1.789678   -0.325285    0.875425
      7          1           0        1.364331    1.187870   -0.014799
      8          1           0        1.806162   -0.352757   -0.851701
 ---------------------------------------------------------------------

 SCF Done:  E(UB3LYP) =  -116.919097248     A.U. after   12 cycles

 The electronic state is 3-A.
 Alpha  occ. eigenvalues --  -10.51989 -10.50175 -10.42010  -1.08806  -0.98173
 Alpha  occ. eigenvalues --   -0.81019  -0.73279  -0.70763  -0.67747  -0.65828
 Alpha  occ. eigenvalues --   -0.56745  -0.49882
 Alpha virt. eigenvalues --   -0.30192  -0.17142  -0.13657  -0.12550  -0.11183
 Alpha virt. eigenvalues --   -0.10238  -0.09853  -0.09328  -0.08100  -0.06368
 Alpha virt. eigenvalues --   -0.05533  -0.04434  -0.02563  -0.02089  -0.01015

  Beta  occ. eigenvalues --  -10.49994 -10.49271 -10.41965  -1.04566  -0.96128
  Beta  occ. eigenvalues --   -0.78016  -0.70843  -0.68804  -0.65268  -0.64519
  Beta virt. eigenvalues --   -0.44081  -0.33388  -0.23619  -0.16724  -0.13342
  Beta virt. eigenvalues --   -0.12260  -0.10820  -0.09662  -0.09538  -0.08727
  Beta virt. eigenvalues --   -0.07556  -0.05891  -0.05242  -0.03383  -0.02068

 Mulliken charges and spin densities:
               1          2
     1  C    0.384459   1.287726
     2  C   -0.311454  -0.025563
     3  C   -0.228691   0.517274
     4  H    0.218353   0.040686
     5  H    0.251802   0.010229
     6  H    0.237367   0.051017
     7  H    0.211842   0.068378
     8  H    0.236322   0.050253
 Sum of Mulliken charges =   1.00000   2.00000

 Dipole moment (field-independent basis, Debye):
    X=             -0.8753    Y=              0.4451    Z=              0.0111  Tot=              0.9820
 Quadrupole moment (field-independent basis, Debye-Ang):
   XX=             -4.7158   YY=            -15.4305   ZZ=            -16.3412
   XY=             -0.4448   XZ=              0.0157   YZ=             -0.0005

  Exact polarizability:  50.625  -1.057  27.526   0.041  -0.002  23.405
 Approx polarizability:  67.402  -2.392  38.060   0.104   0.002  33.436

                      1                      2                      3
                      A                      A                      A
 Frequencies --     83.0212               311.2701               446.8368
 Red. masses --      1.2594                 2.1833                 1.2147
 Frc consts  --      0.0051                 0.1246                 0.1429
 IR Inten    --     15.7379                 5.0079                 0.1510

                      4                      5                      6
                      A                      A                      A
 Frequencies --    844.0509               877.2050               926.2082
 Red. masses --      1.3863                 2.0242                 1.4307
 Frc consts  --      0.5819                 0.9177                 0.7231
 IR Inten    --      3.0975                43.1850                 2.3813

                      7                      8                      9
                      A                      A                      A
 Frequencies --   1003.7920              1118.5109              1286.6879
 Red. masses --      1.4581                 1.9530                 1.1173
 Frc consts  --      0.8656                 1.4396                 1.0899
 IR Inten    --     29.2346                 1.7581               122.9803

                     10                     11                     12
                      A                      A                      A
 Frequencies --   1345.7288              1390.9753              1443.4840
 Red. masses --      1.0447                 1.1130                 1.1529
 Frc consts  --      1.1147                 1.2688                 1.4154
 IR Inten    --     16.0666                12.0789                12.0908

                     13                     14                     15
                      A                      A                      A
 Frequencies --   1554.3892              2922.6694              2945.1554
 Red. masses --      7.4124                 1.0384                 1.0848
 Frc consts  --     10.5518                 5.2261                 5.5437
 IR Inten    --     61.0023               162.6321                43.5476

                     16                     17                     18
                      A                      A                      A
 Frequencies --   3037.2430              3062.1785              3183.9075
 Red. masses --      1.0984                 1.0547                 1.1144
 Frc consts  --      5.9699                 5.8270                 6.6558
 IR Inten    --     17.8205                28.2988                30.5584

 - Thermochemistry -
 -------------------
 Temperature   298.150 Kelvin.  Pressure   1.00000 Atm.
 Atom     1 has atomic number  6 and mass  12.00000

 Molecular mass:    41.03913 amu.
 Principal axes and moments of inertia in atomic units:
                           1         2         3
     Eigenvalues --    23.91080 212.80261 225.97397
           X            1.00000  -0.00180   0.00012
           Y            0.00180   1.00000  -0.00050
           Z           -0.00012   0.00050   1.00000
 This molecule is an asymmetric top.
 Rotational symmetry number  1.
 Rotational temperatures (Kelvin)      3.62237     0.40701     0.38329
 Rotational constants (GHZ):          75.47807     8.48082     7.98650
 Zero-point vibrational energy     166181.1 (Joules/Mol)
                                   39.71824 (Kcal/Mol)
 Warning -- explicit consideration of   3 degrees of freedom as
           vibrations may cause significant error
 Vibrational temperatures:    119.45   447.85   642.90  1214.40  1262.10
          (Kelvin)           1332.61  1444.23  1609.29  1851.25  1936.20
                             2001.30  2076.85  2236.42  4205.06  4237.42
                             4369.91  4405.79  4580.93

 Zero-point correction=                           0.063295 (Hartree/Particle)
 Thermal correction to Energy=                    0.067841
 Thermal correction to Enthalpy=                  0.068785
 Thermal correction to Gibbs Free Energy=         0.036670
 Sum of electronic and zero-point Energies=           -116.855802
 Sum of electronic and thermal Energies=              -116.851256
 Sum of electronic and thermal Enthalpies=            -116.850312
 Sum of electronic and thermal Free Energies=         -116.882427

                     E (Thermal)             CV                S
                      KCal/Mol        Cal/Mol-Kelvin    Cal/Mol-Kelvin
 Total                   42.571             13.703             67.592
 Electronic               0.000              0.000              2.183
 Translational            0.889              2.981             37.063
 Rotational               0.889              2.981             21.669
 Vibrational             40.793              7.742              6.676
 Vibration     1          0.600              1.961              3.818
 Vibration     2          0.700              1.652              1.356
 Vibration     3          0.806              1.368              0.805

 Normal termination of Gaussian 09 at Thu Aug  8 08:54:30 2019.
