 Gaussian 09, Revision D.01,
 Gaussian 09:  EM64L-G09RevD.01 24-Apr-2013

 ------------------------------
 #p b3lyp/6-311++G(3df,2p) freq
 ------------------------------

 ---------
 b3lyp opt
 ---------
 Symbolic Z-matrix:
 Charge =  0 Multiplicity = 1

                         Standard orientation:
 ---------------------------------------------------------------------
 Center     Atomic      Atomic             Coordinates (Angstroms)
 Number     Number       Type             X           Y           Z
 ---------------------------------------------------------------------
      1          6           0        0.000000    0.000000    0.763829
      2          6           0        0.000000    0.000000   -0.763829
      3          1           0        0.000000   -1.015974   -1.161507
      4          1           0        0.879859    0.507987   -1.161507
      5          1           0        0.000000    1.015974    1.161507
      6          1           0       -0.879859    0.507987   -1.161507
      7          1           0       -0.879859   -0.507987    1.161507
      8          1           0        0.879859   -0.507987    1.161507
 ---------------------------------------------------------------------

 SCF Done:  E(RB3LYP) =  -79.8615715439     A.U. after    7 cycles

 The electronic state is 1-A1G.
 Alpha  occ. eigenvalues --  -10.15667 -10.15647  -0.75473  -0.61831  -0.43710
 Alpha  occ. eigenvalues --   -0.43710  -0.37109  -0.34605  -0.34605
 Alpha virt. eigenvalues --   -0.00578   0.01573   0.02752   0.02752   0.05808
 Alpha virt. eigenvalues --    0.05808   0.07841   0.08756   0.08756   0.12142
 Alpha virt. eigenvalues --    0.12407   0.13798   0.13798   0.13947   0.17212

 Mulliken charges:
               1
     1  C   -0.389780
     2  C   -0.389780
     3  H    0.129927
     4  H    0.129927
     5  H    0.129927
     6  H    0.129927
     7  H    0.129927
     8  H    0.129927
 Sum of Mulliken charges =   0.00000

 Dipole moment (field-independent basis, Debye):
    X=              0.0000    Y=              0.0000    Z=              0.0000  Tot=              0.0000
 Quadrupole moment (field-independent basis, Debye-Ang):
   XX=            -15.0462   YY=            -15.0462   ZZ=            -15.7142
   XY=              0.0000   XZ=              0.0000   YZ=              0.0000

  Exact polarizability:  27.288   0.000  27.287   0.000   0.000  31.096
 Approx polarizability:  36.581   0.000  36.581   0.000   0.000  37.052

                      1                      2                      3
                     A1U                    EU                     EU
 Frequencies --    303.2284               824.8119               824.8120
 Red. masses --      1.0078                 1.0581                 1.0581
 Frc consts  --      0.0546                 0.4241                 0.4241
 IR Inten    --      0.0000                 3.5788                 3.5801

                      4                      5                      6
                     A1G                    EG                     EG
 Frequencies --    994.5549              1219.8577              1219.8595
 Red. masses --      3.3899                 1.4678                 1.4678
 Frc consts  --      1.9756                 1.2869                 1.2869
 IR Inten    --      0.0000                 0.0000                 0.0000

                      7                      8                      9
                     A2U                    A1G                    EG
 Frequencies --   1412.0309              1421.8080              1504.5168
 Red. masses --      1.1986                 1.2387                 1.0187
 Frc consts  --      1.4080                 1.4754                 1.3586
 IR Inten    --      1.0655                 0.0000                 0.0000

                     10                     11                     12
                     EG                     EU                     EU
 Frequencies --   1504.5174              1507.3768              1507.3781
 Red. masses --      1.0187                 1.0621                 1.0621
 Frc consts  --      1.3586                 1.4218                 1.4218
 IR Inten    --      0.0000                 9.1467                 9.1499

                     13                     14                     15
                     A2U                    A1G                    EG
 Frequencies --   3023.4737              3023.6615              3067.1166
 Red. masses --      1.0339                 1.0357                 1.1010
 Frc consts  --      5.5684                 5.5789                 6.1022
 IR Inten    --     60.0649                 0.0000                 0.0000

                     16                     17                     18
                     EG                     EU                     EU
 Frequencies --   3067.1171              3092.3750              3092.3765
 Red. masses --      1.1010                 1.1024                 1.1024
 Frc consts  --      6.1022                 6.2109                 6.2109
 IR Inten    --      0.0000                65.3303                65.3214

 - Thermochemistry -
 -------------------
 Temperature   298.150 Kelvin.  Pressure   1.00000 Atm.
 Atom     1 has atomic number  6 and mass  12.00000

 Molecular mass:    30.04695 amu.
 Principal axes and moments of inertia in atomic units:
                           1         2         3
     Eigenvalues --    22.28943  90.28084  90.28084
           X            0.00000   0.75458  -0.65621
           Y            0.00000   0.65621   0.75458
           Z            1.00000   0.00000   0.00000
 This molecule is a prolate symmetric top.
 Rotational symmetry number  6.
 Rotational temperatures (Kelvin)      3.88587     0.95938     0.95938
 Rotational constants (GHZ):          80.96848    19.99030    19.99030
 Zero-point vibrational energy     195056.3 (Joules/Mol)
                                   46.61958 (Kcal/Mol)
 Warning -- explicit consideration of   1 degrees of freedom as
           vibrations may cause significant error
 Vibrational temperatures:    436.28  1186.72  1186.72  1430.94  1755.10
          (Kelvin)           1755.10  2031.60  2045.66  2164.66  2164.66
                             2168.78  2168.78  4350.10  4350.37  4412.89
                             4412.89  4449.23  4449.23

 Zero-point correction=                           0.074293 (Hartree/Particle)
 Thermal correction to Energy=                    0.077786
 Thermal correction to Enthalpy=                  0.078731
 Thermal correction to Gibbs Free Energy=         0.052867
 Sum of electronic and zero-point Energies=            -79.787279
 Sum of electronic and thermal Energies=               -79.783785
 Sum of electronic and thermal Enthalpies=             -79.782841
 Sum of electronic and thermal Free Energies=          -79.808705

                     E (Thermal)             CV                S
                      KCal/Mol        Cal/Mol-Kelvin    Cal/Mol-Kelvin
 Total                   48.812             10.113             54.435
 Electronic               0.000              0.000              0.000
 Translational            0.889              2.981             36.134
 Rotational               0.889              2.981             16.275
 Vibrational             47.034              4.151              2.026
 Vibration     1          0.695              1.668              1.399

 Optimization completed.
    -- Stationary point found.
 Normal termination of Gaussian 09 at Fri Aug  9 00:09:37 2019.
