 Gaussian 09, Revision D.01,
 Gaussian 09:  EM64L-G09RevD.01 24-Apr-2013

 ------------------------------
 #p b3lyp/6-311++G(3df,2p) freq
 ------------------------------

 ---------
 b3lyp opt
 ---------
 Symbolic Z-matrix:
 Charge =  1 Multiplicity = 2

                         Standard orientation:
 ---------------------------------------------------------------------
 Center     Atomic      Atomic             Coordinates (Angstroms)
 Number     Number       Type             X           Y           Z
 ---------------------------------------------------------------------
      1          6           0        0.000000    0.789951    0.000000
      2          6           0        0.000000   -0.789951    0.000000
      3          1           0       -0.339216   -1.259131    0.916339
      4          1           0        1.136957   -0.678646    0.000000
      5          1           0        0.339216    1.259131   -0.916339
      6          1           0       -0.339216   -1.259131   -0.916339
      7          1           0       -1.136957    0.678646    0.000000
      8          1           0        0.339216    1.259131    0.916339
 ---------------------------------------------------------------------

 SCF Done:  E(UB3LYP) =  -79.4403777629     A.U. after   10 cycles

 The electronic state is 2-AG.
 Alpha  occ. eigenvalues --  -10.48737 -10.48721  -1.07954  -0.90908  -0.76093
 Alpha  occ. eigenvalues --   -0.73422  -0.69162  -0.64940  -0.59942
 Alpha virt. eigenvalues --   -0.20738  -0.16170  -0.14850  -0.14163  -0.13482
 Alpha virt. eigenvalues --   -0.10521  -0.10485  -0.09104  -0.07190  -0.07090
 Alpha virt. eigenvalues --   -0.06126  -0.03546  -0.03339  -0.01473  -0.00788

  Beta  occ. eigenvalues --  -10.48118 -10.48103  -1.05071  -0.88322  -0.72864
  Beta  occ. eigenvalues --   -0.72172  -0.68101  -0.64589
  Beta virt. eigenvalues --   -0.47262  -0.19783  -0.15127  -0.14303  -0.13359
  Beta virt. eigenvalues --   -0.13281  -0.10315  -0.08914  -0.08414  -0.07074
  Beta virt. eigenvalues --   -0.06704  -0.06023  -0.03011  -0.02973  -0.00825

 Mulliken charges and spin densities:
               1          2
     1  C   -0.255715   0.342698
     2  C   -0.255715   0.342698
     3  H    0.239432  -0.008786
     4  H    0.276851   0.174874
     5  H    0.239432  -0.008786
     6  H    0.239432  -0.008786
     7  H    0.276851   0.174874
     8  H    0.239432  -0.008786
 Sum of Mulliken charges =   1.00000   1.00000

 Dipole moment (field-independent basis, Debye):
    X=              0.0000    Y=              0.0000    Z=              0.0000  Tot=              0.0000
 Quadrupole moment (field-independent basis, Debye-Ang):
   XX=             -9.9056   YY=             -7.9315   ZZ=            -10.9251
   XY=             -0.3624   XZ=              0.0000   YZ=              0.0000

  Exact polarizability:  22.866  -2.171  30.040   0.000   0.000  20.925
 Approx polarizability:  33.498  -4.656  39.743   0.000   0.000  27.629

                      1                      2                      3
                     AU                     AG                     BU
 Frequencies --    215.2659               434.2852               617.0186
 Red. masses --      1.0133                 5.2405                 1.0459
 Frc consts  --      0.0277                 0.5823                 0.2346
 IR Inten    --     16.4052                 0.0000                17.5000

                      4                      5                      6
                     BG                     AU                     AG
 Frequencies --    748.1534               829.8932              1070.2196
 Red. masses --      1.0311                 1.0351                 1.2670
 Frc consts  --      0.3401                 0.4200                 0.8550
 IR Inten    --      0.0000                 4.2869                 0.0000

                      7                      8                      9
                     AG                     AU                     BG
 Frequencies --   1137.0997              1140.2178              1210.7678
 Red. masses --      1.1421                 1.0701                 1.3586
 Frc consts  --      0.8700                 0.8197                 1.1735
 IR Inten    --      0.0000                41.1382                 0.0000

                     10                     11                     12
                     BU                     BU                     AG
 Frequencies --   1235.0365              1468.7391              1490.2007
 Red. masses --      1.2002                 1.0808                 1.0582
 Frc consts  --      1.0786                 1.3737                 1.3846
 IR Inten    --     43.4633                19.7052                 0.0000

                     13                     14                     15
                     BU                     AG                     AG
 Frequencies --   2574.4805              2631.6284              3128.5837
 Red. masses --      1.0709                 1.0743                 1.0629
 Frc consts  --      4.1820                 4.3837                 6.1298
 IR Inten    --    431.2872                 0.0000                 0.0000

                     16                     17                     18
                     BU                     BG                     AU
 Frequencies --   3133.3480              3215.8112              3225.9364
 Red. masses --      1.0560                 1.1209                 1.1129
 Frc consts  --      6.1084                 6.8299                 6.8234
 IR Inten    --     21.0461                 0.0000                35.1117

 - Thermochemistry -
 -------------------
 Temperature   298.150 Kelvin.  Pressure   1.00000 Atm.
 Atom     1 has atomic number  6 and mass  12.00000

 Molecular mass:    30.04695 amu.
 Principal axes and moments of inertia in atomic units:
                           1         2         3
     Eigenvalues --    23.04406  90.58215  91.71415
           X            0.00866   0.00000   0.99996
           Y            0.99996   0.00000  -0.00866
           Z            0.00000   1.00000   0.00000
 This molecule is an asymmetric top.
 Rotational symmetry number  2.
 Rotational temperatures (Kelvin)      3.75862     0.95619     0.94439
 Rotational constants (GHZ):          78.31698    19.92381    19.67789
 Zero-point vibrational energy     176489.2 (Joules/Mol)
                                   42.18192 (Kcal/Mol)
 Warning -- explicit consideration of   3 degrees of freedom as
           vibrations may cause significant error
 Vibrational temperatures:    309.72   624.84   887.75  1076.42  1194.03
          (Kelvin)           1539.81  1636.03  1640.52  1742.02  1776.94
                             2113.19  2144.06  3704.10  3786.32  4501.33
                             4508.18  4626.83  4641.40

 Zero-point correction=                           0.067221 (Hartree/Particle)
 Thermal correction to Energy=                    0.071296
 Thermal correction to Enthalpy=                  0.072241
 Thermal correction to Gibbs Free Energy=         0.043732
 Sum of electronic and zero-point Energies=            -79.373157
 Sum of electronic and thermal Energies=               -79.369081
 Sum of electronic and thermal Enthalpies=             -79.368137
 Sum of electronic and thermal Free Energies=          -79.396646

                     E (Thermal)             CV                S
                      KCal/Mol        Cal/Mol-Kelvin    Cal/Mol-Kelvin
 Total                   44.739             12.862             60.002
 Electronic               0.000              0.000              1.377
 Translational            0.889              2.981             36.134
 Rotational               0.889              2.981             18.510
 Vibrational             42.962              6.900              3.981
 Vibration     1          0.645              1.818              1.999
 Vibration     2          0.795              1.396              0.845
 Vibration     3          0.977              0.996              0.421

 Optimization completed.
    -- Stationary point found.
 Normal termination of Gaussian 09 at Fri Aug  9 00:12:26 2019.
