 Gaussian 09, Revision D.01,
 Gaussian 09:  EM64L-G09RevD.01 24-Apr-2013

 ------------------------------
 #p b3lyp/6-311++G(3df,2p) freq
 ------------------------------

 ---------
 b3lyp opt
 ---------
 Symbolic Z-matrix:
 Charge =  1 Multiplicity = 2

                         Standard orientation:
 ---------------------------------------------------------------------
 Center     Atomic      Atomic             Coordinates (Angstroms)
 Number     Number       Type             X           Y           Z
 ---------------------------------------------------------------------
      1          6           0        1.208363    0.198544   -0.002729
      2          6           0       -1.315743    0.209541   -0.000322
      3          6           0       -0.074137   -0.461452    0.002260
      4          1           0        1.799821   -0.170157    0.857031
      5          1           0        1.812101   -0.192634   -0.842446
      6          1           0       -0.091326   -1.548367    0.009116
      7          1           0        1.175938    1.283157   -0.015727
      8          1           0       -1.360937    1.292538    0.016276
      9          1           0       -2.246486   -0.344332   -0.019505
 ---------------------------------------------------------------------

 SCF Done:  E(UB3LYP) =  -117.603086191     A.U. after   12 cycles

 The electronic state is 2-A.
 Alpha  occ. eigenvalues --  -10.49559 -10.48365 -10.40421  -1.07809  -0.95720
 Alpha  occ. eigenvalues --   -0.82758  -0.74117  -0.69494  -0.66241  -0.63472
 Alpha  occ. eigenvalues --   -0.61587  -0.55162
 Alpha virt. eigenvalues --   -0.29894  -0.16823  -0.14202  -0.13487  -0.11572
 Alpha virt. eigenvalues --   -0.10527  -0.09549  -0.09061  -0.08390  -0.06373
 Alpha virt. eigenvalues --   -0.06178  -0.05782  -0.03238  -0.01985  -0.01295

  Beta  occ. eigenvalues --  -10.49109 -10.47500 -10.40375  -1.05682  -0.94114
  Beta  occ. eigenvalues --   -0.81674  -0.73402  -0.68909  -0.63911  -0.62974
  Beta  occ. eigenvalues --   -0.61248
  Beta virt. eigenvalues --   -0.43553  -0.24603  -0.16653  -0.14054  -0.13310
  Beta virt. eigenvalues --   -0.11305  -0.10283  -0.09275  -0.08452  -0.08210
  Beta virt. eigenvalues --   -0.05996  -0.05948  -0.05595  -0.03007  -0.01658

 Mulliken charges and spin densities:
               1          2
     1  C   -0.296296   0.016161
     2  C   -0.264303   0.579213
     3  C    0.223313   0.336701
     4  H    0.221350   0.054534
     5  H    0.220114   0.051004
     6  H    0.236265  -0.007713
     7  H    0.201208  -0.000325
     8  H    0.232091  -0.014562
     9  H    0.226258  -0.015015
 Sum of Mulliken charges =   1.00000   1.00000

 Dipole moment (field-independent basis, Debye):
    X=             -0.7844    Y=             -0.3341    Z=              0.0117  Tot=              0.8527
 Quadrupole moment (field-independent basis, Debye-Ang):
   XX=             -7.4726   YY=            -14.0443   ZZ=            -17.3273
   XY=             -0.5428   XZ=              0.0293   YZ=              0.0107

  Exact polarizability:  49.806  -1.671  30.459   0.074   0.020  24.186
 Approx polarizability:  65.798  -2.887  41.525   0.145   0.035  34.883

                      1                      2                      3
                      A                      A                      A
 Frequencies --     19.7770               152.6633               417.7929
 Red. masses --      1.0418                 1.2058                 2.0054
 Frc consts  --      0.0002                 0.0166                 0.2062
 IR Inten    --      4.4159                 6.5839                 0.9158

                      4                      5                      6
                      A                      A                      A
 Frequencies --    742.9350               899.4800               901.9333
 Red. masses --      1.0808                 1.5625                 1.4932
 Frc consts  --      0.3515                 0.7448                 0.7157
 IR Inten    --     11.7228                38.5564                30.2426

                      7                      8                      9
                      A                      A                      A
 Frequencies --    961.0833              1064.0302              1220.6631
 Red. masses --      1.3313                 1.6709                 1.5190
 Frc consts  --      0.7245                 1.1146                 1.3335
 IR Inten    --      0.9328                13.1555                30.0066

                     10                     11                     12
                      A                      A                      A
 Frequencies --   1276.7826              1284.0279              1379.9193
 Red. masses --      1.3996                 1.4662                 1.0547
 Frc consts  --      1.3442                 1.4243                 1.1832
 IR Inten    --     90.1999                64.0757                20.9170

                     13                     14                     15
                      A                      A                      A
 Frequencies --   1421.7672              1496.5179              1565.4147
 Red. masses --      1.2092                 1.1920                 2.2706
 Frc consts  --      1.4401                 1.5729                 3.2783
 IR Inten    --      4.8333                22.7923                11.2137

                     16                     17                     18
                      A                      A                      A
 Frequencies --   2911.2874              2923.0266              3132.8412
 Red. masses --      1.0737                 1.0561                 1.0546
 Frc consts  --      5.3615                 5.3167                 6.0983
 IR Inten    --     66.7118               128.8150                18.3827

                     19                     20                     21
                      A                      A                      A
 Frequencies --   3144.7908              3160.3035              3246.2462
 Red. masses --      1.0957                 1.0927                 1.1223
 Frc consts  --      6.3844                 6.4302                 6.9683
 IR Inten    --      1.7517                12.2543                14.3647

 - Thermochemistry -
 -------------------
 Temperature   298.150 Kelvin.  Pressure   1.00000 Atm.
 Atom     1 has atomic number  6 and mass  12.00000

 Molecular mass:    42.04695 amu.
 Principal axes and moments of inertia in atomic units:
                           1         2         3
     Eigenvalues --    39.12026 195.40755 224.12434
           X            1.00000   0.00040   0.00035
           Y           -0.00040   1.00000   0.00123
           Z           -0.00035  -0.00123   1.00000
 This molecule is an asymmetric top.
 Rotational symmetry number  1.
 Rotational temperatures (Kelvin)      2.21404     0.44325     0.38645
 Rotational constants (GHZ):          46.13316     9.23578     8.05241
 Zero-point vibrational energy     199317.5 (Joules/Mol)
                                   47.63802 (Kcal/Mol)
 Warning -- explicit consideration of   3 degrees of freedom as
           vibrations may cause significant error
 Vibrational temperatures:     28.45   219.65   601.11  1068.92  1294.15
          (Kelvin)           1297.68  1382.78  1530.90  1756.26  1837.00
                             1847.43  1985.39  2045.60  2153.15  2252.28
                             4188.69  4205.58  4507.45  4524.65  4546.97
                             4670.62

 Zero-point correction=                           0.075916 (Hartree/Particle)
 Thermal correction to Energy=                    0.080919
 Thermal correction to Enthalpy=                  0.081863
 Thermal correction to Gibbs Free Energy=         0.047822
 Sum of electronic and zero-point Energies=           -117.527170
 Sum of electronic and thermal Energies=              -117.522168
 Sum of electronic and thermal Enthalpies=            -117.521223
 Sum of electronic and thermal Free Energies=         -117.555265

                     E (Thermal)             CV                S
                      KCal/Mol        Cal/Mol-Kelvin    Cal/Mol-Kelvin
 Total                   50.777             14.616             71.646
 Electronic               0.000              0.000              1.377
 Translational            0.889              2.981             37.136
 Rotational               0.889              2.981             22.065
 Vibrational             49.000              8.654             11.068
 Vibration     1          0.593              1.986              6.656
 Vibration     2          0.619              1.900              2.639
 Vibration     3          0.781              1.432              0.900

 Normal termination of Gaussian 09 at Thu Aug  8 09:46:05 2019.
