 Gaussian 09, Revision D.01,
 Gaussian 09:  EM64L-G09RevD.01 24-Apr-2013

 ------------------------------
 #p b3lyp/6-311++G(3df,2p) freq
 ------------------------------

 ---------
 b3lyp opt
 ---------
 Symbolic Z-matrix:
 Charge =  0 Multiplicity = 1

                         Standard orientation:
 ---------------------------------------------------------------------
 Center     Atomic      Atomic             Coordinates (Angstroms)
 Number     Number       Type             X           Y           Z
 ---------------------------------------------------------------------
      1          6           0       -1.230968    0.162224   -0.000063
      2          6           0        1.278061    0.219897   -0.000070
      3          6           0        0.133936   -0.452670    0.000006
      4          1           0       -1.180523    1.251083   -0.005449
      5          1           0       -1.805535   -0.157563   -0.873262
      6          1           0        0.166570   -1.538749    0.000137
      7          1           0       -1.801419   -0.148951    0.879007
      8          1           0        1.300456    1.303474    0.000394
      9          1           0        2.234277   -0.285999   -0.000067
 ---------------------------------------------------------------------

 SCF Done:  E(RB3LYP) =  -117.953736851     A.U. after   10 cycles

 The electronic state is 1-A.
 Alpha  occ. eigenvalues --  -10.17589 -10.16628 -10.15995  -0.79093  -0.68967
 Alpha  occ. eigenvalues --   -0.55778  -0.47157  -0.42648  -0.41708  -0.37670
 Alpha  occ. eigenvalues --   -0.34986  -0.26361
 Alpha virt. eigenvalues --   -0.00472   0.00063   0.01558   0.01727   0.03515
 Alpha virt. eigenvalues --    0.04478   0.05569   0.07828   0.08713   0.09150
 Alpha virt. eigenvalues --    0.09776   0.11124   0.12270   0.13684   0.13758

 Mulliken charges:
               1
     1  C   -0.401540
     2  C   -0.501955
     3  C    0.073910
     4  H    0.137087
     5  H    0.135063
     6  H    0.144642
     7  H    0.135227
     8  H    0.139902
     9  H    0.137664
 Sum of Mulliken charges =   0.00000

 Dipole moment (field-independent basis, Debye):
    X=             -0.4181    Y=             -0.0680    Z=              0.0009  Tot=              0.4236
 Quadrupole moment (field-independent basis, Debye-Ang):
   XX=            -19.5037   YY=            -19.2112   ZZ=            -22.0999
   XY=              0.1633   XZ=              0.0004   YZ=              0.0005

  Exact polarizability:  50.971   3.613  37.953  -0.007   0.000  32.183
 Approx polarizability:  68.673   9.382  53.965  -0.015  -0.003  44.501

                      1                      2                      3
                      A                      A                      A
 Frequencies --    206.0577               425.4898               593.2078
 Red. masses --      1.1598                 1.9484                 1.1901
 Frc consts  --      0.0290                 0.2078                 0.2468
 IR Inten    --      0.4888                 1.0559                12.7322

                      4                      5                      6
                      A                      A                      A
 Frequencies --    923.2817               949.3117               950.5127
 Red. masses --      2.5135                 1.1470                 1.3218
 Frc consts  --      1.2624                 0.6090                 0.7036
 IR Inten    --      3.2949                 3.4363                46.7464

                      7                      8                      9
                      A                      A                      A
 Frequencies --   1028.7960              1073.6582              1191.9709
 Red. masses --      1.0547                 1.5570                 1.8006
 Frc consts  --      0.6577                 1.0575                 1.5073
 IR Inten    --     11.0533                 3.2167                 0.3155

                     10                     11                     12
                      A                      A                      A
 Frequencies --   1329.7646              1409.9764              1452.2887
 Red. masses --      1.2478                 1.2152                 1.2026
 Frc consts  --      1.3000                 1.4234                 1.4944
 IR Inten    --      0.0368                 1.9629                 0.9540

                     13                     14                     15
                      A                      A                      A
 Frequencies --   1480.9513              1495.8318              1706.9716
 Red. masses --      1.0448                 1.0586                 4.3610
 Frc consts  --      1.3501                 1.3955                 7.4867
 IR Inten    --      6.8766                15.3986                16.6646

                     16                     17                     18
                      A                      A                      A
 Frequencies --   3011.1593              3052.7264              3087.9234
 Red. masses --      1.0365                 1.0989                 1.0985
 Frc consts  --      5.5372                 6.0337                 6.1715
 IR Inten    --     24.5572                17.7688                10.2587

                     19                     20                     21
                      A                      A                      A
 Frequencies --   3119.4814              3126.7486              3206.7612
 Red. masses --      1.0748                 1.0759                 1.1149
 Frc consts  --      6.1621                 6.1972                 6.7550
 IR Inten    --     29.2431                 2.6170                16.6688

 - Thermochemistry -
 -------------------
 Temperature   298.150 Kelvin.  Pressure   1.00000 Atm.
 Atom     1 has atomic number  6 and mass  12.00000

 Molecular mass:    42.04695 amu.
 Principal axes and moments of inertia in atomic units:
                           1         2         3
     Eigenvalues --    38.22303 193.70863 220.88076
           X            1.00000  -0.00308   0.00000
           Y            0.00308   1.00000   0.00002
           Z            0.00000  -0.00002   1.00000
 This molecule is an asymmetric top.
 Rotational symmetry number  1.
 Rotational temperatures (Kelvin)      2.26601     0.44713     0.39213
 Rotational constants (GHZ):          47.21607     9.31678     8.17066
 Zero-point vibrational energy     208287.0 (Joules/Mol)
                                   49.78179 (Kcal/Mol)
 Warning -- explicit consideration of   3 degrees of freedom as
           vibrations may cause significant error
 Vibrational temperatures:    296.47   612.18   853.49  1328.39  1365.85
          (Kelvin)           1367.57  1480.21  1544.75  1714.98  1913.23
                             2028.64  2089.52  2130.76  2152.17  2455.95
                             4332.38  4392.19  4442.83  4488.23  4498.69
                             4613.81

 Zero-point correction=                           0.079332 (Hartree/Particle)
 Thermal correction to Energy=                    0.083417
 Thermal correction to Enthalpy=                  0.084362
 Thermal correction to Gibbs Free Energy=         0.054331
 Sum of electronic and zero-point Energies=           -117.874405
 Sum of electronic and thermal Energies=              -117.870319
 Sum of electronic and thermal Enthalpies=            -117.869375
 Sum of electronic and thermal Free Energies=         -117.899406

                     E (Thermal)             CV                S
                      KCal/Mol        Cal/Mol-Kelvin    Cal/Mol-Kelvin
 Total                   52.345             12.971             63.205
 Electronic               0.000              0.000              0.000
 Translational            0.889              2.981             37.136
 Rotational               0.889              2.981             22.019
 Vibrational             50.568              7.010              4.050
 Vibration     1          0.641              1.831              2.078
 Vibration     2          0.787              1.415              0.874
 Vibration     3          0.951              1.046              0.461

 Normal termination of Gaussian 09 at Thu Aug  8 09:21:40 2019.
