 Gaussian 09, Revision D.01,
 Gaussian 09:  EM64L-G09RevD.01 24-Apr-2013

 ------------------------------
 #p b3lyp/6-311++G(3df,2p) freq
 ------------------------------

 ---------
 b3lyp opt
 ---------
 Symbolic Z-matrix:
 Charge =  0 Multiplicity = 3

                         Standard orientation:
 ---------------------------------------------------------------------
 Center     Atomic      Atomic             Coordinates (Angstroms)
 Number     Number       Type             X           Y           Z
 ---------------------------------------------------------------------
      1          6           0       -1.238924   -0.216342   -0.000621
      2          6           0        1.338689   -0.189664    0.000200
      3          6           0        0.069635    0.507650   -0.001855
      4          1           0       -1.348233   -0.849853    0.888298
      5          1           0       -2.080527    0.475305   -0.025236
      6          1           0        0.058724    1.594018    0.009726
      7          1           0       -1.327273   -0.890027   -0.861088
      8          1           0        1.836446   -0.474528    0.922901
      9          1           0        1.844457   -0.464783   -0.920945
 ---------------------------------------------------------------------

 SCF Done:  E(UB3LYP) =  -117.850811443     A.U. after   12 cycles

 The electronic state is 3-A.
 Alpha  occ. eigenvalues --  -10.18238 -10.18200 -10.16776  -0.79114  -0.69292
 Alpha  occ. eigenvalues --   -0.57548  -0.45619  -0.44843  -0.40779  -0.40441
 Alpha  occ. eigenvalues --   -0.36971  -0.21680  -0.19534
 Alpha virt. eigenvalues --   -0.00457   0.01494   0.01711   0.02506   0.04771
 Alpha virt. eigenvalues --    0.05368   0.07293   0.07768   0.09261   0.10648
 Alpha virt. eigenvalues --    0.11464   0.12347   0.12603   0.12905   0.13673

  Beta  occ. eigenvalues --  -10.16937 -10.16902 -10.16742  -0.76123  -0.66836
  Beta  occ. eigenvalues --   -0.54518  -0.44400  -0.42490  -0.39328  -0.39036
  Beta  occ. eigenvalues --   -0.36030
  Beta virt. eigenvalues --   -0.07189  -0.05578  -0.00255   0.01676   0.01920
  Beta virt. eigenvalues --    0.02544   0.04785   0.05383   0.07570   0.08578
  Beta virt. eigenvalues --    0.10034   0.10889   0.11625   0.12655   0.12822

 Mulliken charges and spin densities:
               1          2
     1  C   -0.345061  -0.064994
     2  C   -0.340969   0.990650
     3  C   -0.184470   0.928721
     4  H    0.148713   0.049209
     5  H    0.126993   0.007208
     6  H    0.147153   0.010580
     7  H    0.149225   0.045333
     8  H    0.148771   0.017020
     9  H    0.149646   0.016273
 Sum of Mulliken charges =   0.00000   2.00000

 Dipole moment (field-independent basis, Debye):
    X=             -0.2561    Y=             -0.0611    Z=              0.0108  Tot=              0.2635
 Quadrupole moment (field-independent basis, Debye-Ang):
   XX=            -20.4527   YY=            -20.8782   ZZ=            -20.6789
   XY=             -0.5422   XZ=             -0.0048   YZ=              0.0108

  Exact polarizability:  48.222  -0.833  39.125  -0.040  -0.044  34.971
 Approx polarizability:  56.907  -1.564  51.733  -0.061  -0.051  47.571

                      1                      2                      3
                      A                      A                      A
 Frequencies --     47.4163               271.0761               337.9653
 Red. masses --      1.0296                 1.4751                 1.5841
 Frc consts  --      0.0014                 0.0639                 0.1066
 IR Inten    --      2.5795                16.2745                11.2238

                      4                      5                      6
                      A                      A                      A
 Frequencies --    513.3714               597.2502               915.8010
 Red. masses --      1.8634                 1.0209                 2.3632
 Frc consts  --      0.2894                 0.2146                 1.1678
 IR Inten    --     41.7684                 9.0028                 0.5180

                      7                      8                      9
                      A                      A                      A
 Frequencies --    919.5749              1001.0608              1060.3407
 Red. masses --      1.2451                 1.3912                 1.8049
 Frc consts  --      0.6204                 0.8214                 1.1956
 IR Inten    --      1.1584                 0.0228                 2.8658

                     10                     11                     12
                      A                      A                      A
 Frequencies --   1158.6107              1331.7731              1397.3399
 Red. masses --      1.8400                 1.8074                 1.1932
 Frc consts  --      1.4553                 1.8887                 1.3727
 IR Inten    --      0.3090                 2.6293                 1.7955

                     13                     14                     15
                      A                      A                      A
 Frequencies --   1443.4549              1469.2656              1484.3804
 Red. masses --      1.1733                 1.0481                 1.0499
 Frc consts  --      1.4403                 1.3331                 1.3630
 IR Inten    --      0.9037                 6.1953                 3.6341

                     16                     17                     18
                      A                      A                      A
 Frequencies --   2970.8854              2997.1937              3074.3787
 Red. masses --      1.0409                 1.0959                 1.0486
 Frc consts  --      5.4128                 5.8002                 5.8396
 IR Inten    --     30.1136                26.4820                18.6492

                     19                     20                     21
                      A                      A                      A
 Frequencies --   3084.4202              3109.7044              3148.1701
 Red. masses --      1.0915                 1.0868                 1.1148
 Frc consts  --      6.1181                 6.1919                 6.5100
 IR Inten    --     14.7924                26.3934                11.5862

 - Thermochemistry -
 -------------------
 Temperature   298.150 Kelvin.  Pressure   1.00000 Atm.
 Atom     1 has atomic number  6 and mass  12.00000

 Molecular mass:    42.04695 amu.
 Principal axes and moments of inertia in atomic units:
                           1         2         3
     Eigenvalues --    43.17865 207.18368 227.10409
           X            0.99998  -0.00610  -0.00012
           Y            0.00610   0.99998   0.00087
           Z            0.00011  -0.00087   1.00000
 This molecule is an asymmetric top.
 Rotational symmetry number  1.
 Rotational temperatures (Kelvin)      2.00594     0.41805     0.38138
 Rotational constants (GHZ):          41.79707     8.71083     7.94676
 Zero-point vibrational energy     193396.9 (Joules/Mol)
                                   46.22296 (Kcal/Mol)
 Warning -- explicit consideration of   5 degrees of freedom as
           vibrations may cause significant error
 Vibrational temperatures:     68.22   390.02   486.26   738.63   859.31
          (Kelvin)           1317.63  1323.06  1440.30  1525.59  1666.98
                             1916.12  2010.46  2076.81  2113.94  2135.69
                             4274.44  4312.29  4423.34  4437.79  4474.17
                             4529.51

 Zero-point correction=                           0.073661 (Hartree/Particle)
 Thermal correction to Energy=                    0.078763
 Thermal correction to Enthalpy=                  0.079707
 Thermal correction to Gibbs Free Energy=         0.046008
 Sum of electronic and zero-point Energies=           -117.777150
 Sum of electronic and thermal Energies=              -117.772048
 Sum of electronic and thermal Enthalpies=            -117.771104
 Sum of electronic and thermal Free Energies=         -117.804803

                     E (Thermal)             CV                S
                      KCal/Mol        Cal/Mol-Kelvin    Cal/Mol-Kelvin
 Total                   49.425             15.897             70.925
 Electronic               0.000              0.000              2.183
 Translational            0.889              2.981             37.136
 Rotational               0.889              2.981             22.234
 Vibrational             47.647              9.935              9.372
 Vibration     1          0.595              1.979              4.922
 Vibration     2          0.675              1.727              1.589
 Vibration     3          0.718              1.600              1.222
 Vibration     4          0.868              1.220              0.626
 Vibration     5          0.955              1.038              0.454

 Normal termination of Gaussian 09 at Thu Aug  8 09:33:59 2019.
