 Gaussian 09, Revision D.01,
 Gaussian 09:  EM64L-G09RevD.01 24-Apr-2013

 ------------------------------
 #p b3lyp/6-311++G(3df,2p) freq
 ------------------------------

 ---------
 b3lyp opt
 ---------
 Symbolic Z-matrix:
 Charge =  1 Multiplicity = 4

                         Standard orientation:
 ---------------------------------------------------------------------
 Center     Atomic      Atomic             Coordinates (Angstroms)
 Number     Number       Type             X           Y           Z
 ---------------------------------------------------------------------
      1          6           0       -1.201328   -0.254847    0.007370
      2          6           0        1.425730   -0.191465    0.012138
      3          6           0       -0.032512    0.560410   -0.083173
      4          1           0       -2.017651    0.533476   -0.039164
      5          1           0       -1.418381   -0.881102   -0.866489
      6          1           0        0.260125    1.508611    0.399883
      7          1           0       -1.338562   -0.804311    0.944966
      8          1           0        1.741257   -0.363325   -1.016173
      9          1           0        1.621875   -0.677932    0.958967
 ---------------------------------------------------------------------

 SCF Done:  E(UB3LYP) =  -117.422216492     A.U. after   13 cycles

 The electronic state is 4-A.
 Alpha  occ. eigenvalues --  -10.49132 -10.48111 -10.43094  -1.06817  -0.95865
 Alpha  occ. eigenvalues --   -0.84161  -0.72308  -0.70823  -0.69033  -0.66832
 Alpha  occ. eigenvalues --   -0.59846  -0.49056  -0.48167
 Alpha virt. eigenvalues --   -0.17206  -0.14902  -0.14289  -0.12864  -0.12298
 Alpha virt. eigenvalues --   -0.10004  -0.09319  -0.08485  -0.07299  -0.06500
 Alpha virt. eigenvalues --   -0.05824  -0.04515  -0.03956  -0.02517  -0.01357

  Beta  occ. eigenvalues --  -10.47160 -10.45950 -10.42897  -1.02266  -0.90497
  Beta  occ. eigenvalues --   -0.78894  -0.69352  -0.67700  -0.65436  -0.64511
  Beta virt. eigenvalues --   -0.48024  -0.31516  -0.31013  -0.16490  -0.13703
  Beta virt. eigenvalues --   -0.13122  -0.12061  -0.10879  -0.08817  -0.08528
  Beta virt. eigenvalues --   -0.08121  -0.06335  -0.05199  -0.05000  -0.03399

 Mulliken charges and spin densities:
               1          2
     1  C   -0.176214   0.028839
     2  C   -0.189031   1.370127
     3  C   -0.094539   1.208574
     4  H    0.234538   0.148598
     5  H    0.232024   0.055629
     6  H    0.257215   0.084985
     7  H    0.222478   0.063600
     8  H    0.257044   0.031512
     9  H    0.256485   0.008135
 Sum of Mulliken charges =   1.00000   3.00000

 Dipole moment (field-independent basis, Debye):
    X=             -0.1637    Y=              0.0577    Z=              0.3013  Tot=              0.3477
 Quadrupole moment (field-independent basis, Debye-Ang):
   XX=             -7.9475   YY=            -15.0039   ZZ=            -15.8562
   XY=             -1.0686   XZ=             -0.0999   YZ=              0.5996

  Exact polarizability:  58.130  -0.030  31.854  -0.427   0.263  28.539
 Approx polarizability:  85.165  -0.801  45.131  -1.035   0.719  39.331

                      1                      2                      3
                      A                      A                      A
 Frequencies --    168.5350               224.6660               314.3259
 Red. masses --      1.1184                 2.9806                 1.3242
 Frc consts  --      0.0187                 0.0886                 0.0771
 IR Inten    --     10.0096                14.9220                36.3476

                      4                      5                      6
                      A                      A                      A
 Frequencies --    357.7089               518.8357               524.9219
 Red. masses --      1.1965                 1.1693                 3.1692
 Frc consts  --      0.0902                 0.1855                 0.5145
 IR Inten    --     11.4062                17.8469               129.5790

                      7                      8                      9
                      A                      A                      A
 Frequencies --    708.5988               750.7977               972.8117
 Red. masses --      1.1530                 1.3109                 1.3259
 Frc consts  --      0.3411                 0.4354                 0.7393
 IR Inten    --     12.4380                23.0595                13.5515

                     10                     11                     12
                      A                      A                      A
 Frequencies --   1005.7621              1151.3208              1177.4747
 Red. masses --      1.2002                 1.8499                 1.4346
 Frc consts  --      0.7153                 1.4447                 1.1719
 IR Inten    --    158.1943                43.0600               121.1306

                     13                     14                     15
                      A                      A                      A
 Frequencies --   1183.1353              1255.5495              1430.5858
 Red. masses --      1.1313                 1.1725                 1.1569
 Frc consts  --      0.9330                 1.0890                 1.3951
 IR Inten    --     37.4285                 4.6968                17.3201

                     16                     17                     18
                      A                      A                      A
 Frequencies --   2622.9523              2938.6234              2983.3973
 Red. masses --      1.0648                 1.0826                 1.0527
 Frc consts  --      4.3162                 5.5081                 5.5203
 IR Inten    --    492.6682               130.2253                46.2552

                     19                     20                     21
                      A                      A                      A
 Frequencies --   3033.6646              3044.3335              3255.3697
 Red. masses --      1.0372                 1.0944                 1.1320
 Frc consts  --      5.6238                 5.9758                 7.0680
 IR Inten    --     86.8805                19.2547                82.0672

 - Thermochemistry -
 -------------------
 Temperature   298.150 Kelvin.  Pressure   1.00000 Atm.
 Atom     1 has atomic number  6 and mass  12.00000

 Molecular mass:    42.04695 amu.
 Principal axes and moments of inertia in atomic units:
                           1         2         3
     Eigenvalues --    48.05509 211.61080 232.14435
           X            1.00000  -0.00145  -0.00156
           Y            0.00153   0.99867   0.05163
           Z            0.00148  -0.05163   0.99867
 This molecule is an asymmetric top.
 Rotational symmetry number  1.
 Rotational temperatures (Kelvin)      1.80239     0.40931     0.37310
 Rotational constants (GHZ):          37.55567     8.52859     7.77422
 Zero-point vibrational energy     177187.1 (Joules/Mol)
                                   42.34873 (Kcal/Mol)
 Warning -- explicit consideration of   6 degrees of freedom as
           vibrations may cause significant error
 Vibrational temperatures:    242.48   323.24   452.24   514.66   746.49
          (Kelvin)            755.24  1019.51  1080.23  1399.66  1447.07
                             1656.49  1694.12  1702.27  1806.45  2058.29
                             3773.84  4228.02  4292.44  4364.76  4380.11
                             4683.75

 Zero-point correction=                           0.067487 (Hartree/Particle)
 Thermal correction to Energy=                    0.072983
 Thermal correction to Enthalpy=                  0.073927
 Thermal correction to Gibbs Free Energy=         0.040069
 Sum of electronic and zero-point Energies=           -117.354729
 Sum of electronic and thermal Energies=              -117.349233
 Sum of electronic and thermal Enthalpies=            -117.348289
 Sum of electronic and thermal Free Energies=         -117.382148

                     E (Thermal)             CV                S
                      KCal/Mol        Cal/Mol-Kelvin    Cal/Mol-Kelvin
 Total                   45.798             18.526             71.262
 Electronic               0.000              0.000              2.755
 Translational            0.889              2.981             37.136
 Rotational               0.889              2.981             22.383
 Vibrational             44.020             12.564              8.988
 Vibration     1          0.625              1.881              2.452
 Vibration     2          0.649              1.803              1.921
 Vibration     3          0.702              1.646              1.339
 Vibration     4          0.733              1.559              1.132
 Vibration     5          0.874              1.208              0.613
 Vibration     6          0.880              1.195              0.599

 Normal termination of Gaussian 09 at Thu Aug  8 09:52:37 2019.
