 Gaussian 09, Revision D.01,
 Gaussian 09:  EM64L-G09RevD.01 24-Apr-2013

 ------------------------------
 #p b3lyp/6-311++G(3df,2p) freq
 ------------------------------

 ---------
 b3lyp opt
 ---------
 Symbolic Z-matrix:
 Charge =  0 Multiplicity = 1

                         Standard orientation:
 ---------------------------------------------------------------------
 Center     Atomic      Atomic             Coordinates (Angstroms)
 Number     Number       Type             X           Y           Z
 ---------------------------------------------------------------------
      1          6           0        0.000000    0.868624    0.000000
      2          6           0       -0.752250   -0.434312    0.000000
      3          6           0        0.752250   -0.434312    0.000000
      4          1           0       -1.261314   -0.728220    0.907245
      5          1           0        1.261314   -0.728220   -0.907245
      6          1           0        0.000000    1.456440   -0.907245
      7          1           0        0.000000    1.456440    0.907245
      8          1           0       -1.261314   -0.728220   -0.907245
      9          1           0        1.261314   -0.728220    0.907245
 ---------------------------------------------------------------------

 SCF Done:  E(RB3LYP) =  -117.939473931     A.U. after    8 cycles

 The electronic state is 1-A1'.
 Alpha  occ. eigenvalues --  -10.16903 -10.16866 -10.16866  -0.85240  -0.59967
 Alpha  occ. eigenvalues --   -0.59967  -0.49668  -0.46945  -0.36614  -0.36614
 Alpha  occ. eigenvalues --   -0.29925  -0.29925
 Alpha virt. eigenvalues --   -0.00130   0.01414   0.01596   0.01596   0.05813
 Alpha virt. eigenvalues --    0.05813   0.06633   0.08166   0.08166   0.10221
 Alpha virt. eigenvalues --    0.12608   0.12608   0.12989   0.13718   0.14156

 Mulliken charges:
               1
     1  C   -0.260461
     2  C   -0.260461
     3  C   -0.260461
     4  H    0.130230
     5  H    0.130230
     6  H    0.130230
     7  H    0.130230
     8  H    0.130230
     9  H    0.130230
 Sum of Mulliken charges =   0.00000

 Dipole moment (field-independent basis, Debye):
    X=              0.0000    Y=              0.0000    Z=              0.0000  Tot=              0.0000
 Quadrupole moment (field-independent basis, Debye-Ang):
   XX=            -20.9044   YY=            -20.9044   ZZ=            -18.6767
   XY=              0.0000   XZ=              0.0000   YZ=              0.0000

  Exact polarizability:  38.018   0.000  38.018   0.000   0.000  33.333
 Approx polarizability:  51.335   0.000  51.335   0.000   0.000  45.899

                      1                      2                      3
                     E"                     E"                     A2"
 Frequencies --    743.3098               743.3227               862.4851
 Red. masses --      1.0215                 1.0215                 1.0448
 Frc consts  --      0.3325                 0.3325                 0.4579
 IR Inten    --      0.0000                 0.0000                 0.5524

                      4                      5                      6
                     E'                     E'                     E'
 Frequencies --    878.7739               878.7750              1053.6249
 Red. masses --      3.8938                 3.8939                 1.2492
 Frc consts  --      1.7716                 1.7717                 0.8171
 IR Inten    --     18.7535                18.7517                 9.2826

                      7                      8                      9
                     E'                     A2'                    A1"
 Frequencies --   1053.6252              1096.3478              1153.3253
 Red. masses --      1.2492                 1.4272                 1.0078
 Frc consts  --      0.8171                 1.0107                 0.7898
 IR Inten    --      9.2806                 0.0000                 0.0000

                     10                     11                     12
                     A1'                    E"                     E"
 Frequencies --   1211.7938              1212.7297              1212.7301
 Red. masses --      2.7890                 1.4498                 1.4498
 Frc consts  --      2.4130                 1.2563                 1.2563
 IR Inten    --      0.0000                 0.0000                 0.0000

                     13                     14                     15
                     E'                     E'                     A1'
 Frequencies --   1477.9288              1477.9288              1520.0764
 Red. masses --      1.0870                 1.0870                 1.3025
 Frc consts  --      1.3989                 1.3989                 1.7732
 IR Inten    --      0.9070                 0.9066                 0.0000

                     16                     17                     18
                     E'                     E'                     A1'
 Frequencies --   3121.6669              3121.6704              3129.2585
 Red. masses --      1.0504                 1.0504                 1.0621
 Frc consts  --      6.0306                 6.0306                 6.1280
 IR Inten    --     25.1894                25.1881                 0.0000

                     19                     20                     21
                     E"                     E"                     A2"
 Frequencies --   3194.4613              3194.4666              3216.1651
 Red. masses --      1.1193                 1.1193                 1.1153
 Frc consts  --      6.7299                 6.7299                 6.7972
 IR Inten    --      0.0000                 0.0000                31.6195

 - Thermochemistry -
 -------------------
 Temperature   298.150 Kelvin.  Pressure   1.00000 Atm.
 Atom     1 has atomic number  6 and mass  12.00000

 Molecular mass:    42.04695 amu.
 Principal axes and moments of inertia in atomic units:
                           1         2         3
     Eigenvalues --    89.17586  89.17586 142.80388
           X            0.44721   0.89443   0.00000
           Y            0.89443  -0.44721   0.00000
           Z            0.00000   0.00000   1.00000
 This molecule is an oblate symmetric top.
 Rotational symmetry number  6.
 Rotational temperatures (Kelvin)      0.97127     0.97127     0.60652
 Rotational constants (GHZ):          20.23800    20.23800    12.63790
 Zero-point vibrational energy     212662.9 (Joules/Mol)
                                   50.82766 (Kcal/Mol)
 Vibrational temperatures:   1069.46  1069.47  1240.92  1264.36  1264.36
          (Kelvin)           1515.93  1515.93  1577.40  1659.38  1743.50
                             1744.85  1744.85  2126.41  2126.41  2187.05
                             4491.38  4491.38  4502.30  4596.11  4596.12
                             4627.34

 Zero-point correction=                           0.080999 (Hartree/Particle)
 Thermal correction to Energy=                    0.084372
 Thermal correction to Enthalpy=                  0.085316
 Thermal correction to Gibbs Free Energy=         0.058408
 Sum of electronic and zero-point Energies=           -117.858475
 Sum of electronic and thermal Energies=              -117.855102
 Sum of electronic and thermal Enthalpies=            -117.854158
 Sum of electronic and thermal Free Energies=         -117.881066

                     E (Thermal)             CV                S
                      KCal/Mol        Cal/Mol-Kelvin    Cal/Mol-Kelvin
 Total                   52.944             11.059             56.633
 Electronic               0.000              0.000              0.000
 Translational            0.889              2.981             37.136
 Rotational               0.889              2.981             18.096
 Vibrational             51.167              5.098              1.402

 Optimization completed.
    -- Stationary point found.
 Normal termination of Gaussian 09 at Fri Aug  9 00:12:34 2019.
