 Gaussian 09, Revision D.01,
 Gaussian 09:  EM64L-G09RevD.01 24-Apr-2013

 ------------------------------
 #p b3lyp/6-311++G(3df,2p) freq
 ------------------------------

 ---------
 b3lyp opt
 ---------
 Symbolic Z-matrix:
 Charge =  1 Multiplicity = 4

                         Standard orientation:
 ---------------------------------------------------------------------
 Center     Atomic      Atomic             Coordinates (Angstroms)
 Number     Number       Type             X           Y           Z
 ---------------------------------------------------------------------
      1          6           0        0.000000    1.286974   -0.254249
      2          6           0        0.000000    0.000000    0.392636
      3          6           0        0.000000   -1.286974   -0.254249
      4          1           0        0.695534    0.000000    1.341433
      5          1           0       -0.927025   -1.812863   -0.496924
      6          1           0       -0.927025    1.812863   -0.496924
      7          1           0        0.927025    1.812863   -0.496924
      8          1           0       -0.695534    0.000000    1.341433
      9          1           0        0.927025   -1.812863   -0.496924
 ---------------------------------------------------------------------

 SCF Done:  E(UB3LYP) =  -117.425629603     A.U. after   11 cycles

 The electronic state is 4-A2.
 Alpha  occ. eigenvalues --  -10.50255 -10.42779 -10.42776  -1.08885  -0.94175
 Alpha  occ. eigenvalues --   -0.86763  -0.73138  -0.72326  -0.68753  -0.65977
 Alpha  occ. eigenvalues --   -0.58355  -0.47437  -0.45200
 Alpha virt. eigenvalues --   -0.18892  -0.18562  -0.15010  -0.12971  -0.10171
 Alpha virt. eigenvalues --   -0.08828  -0.08794  -0.08509  -0.07758  -0.05623
 Alpha virt. eigenvalues --   -0.04119  -0.03918  -0.03128  -0.03087  -0.01686

  Beta  occ. eigenvalues --  -10.49901 -10.41136 -10.41134  -1.04905  -0.89220
  Beta  occ. eigenvalues --   -0.81641  -0.69400  -0.68722  -0.66503  -0.62737
  Beta virt. eigenvalues --   -0.47430  -0.31347  -0.28364  -0.18020  -0.15981
  Beta virt. eigenvalues --   -0.13925  -0.12090  -0.09448  -0.08584  -0.08455
  Beta virt. eigenvalues --   -0.06853  -0.06565  -0.04779  -0.03603  -0.03388

 Mulliken charges and spin densities:
               1          2
     1  C   -0.218391   1.089740
     2  C    0.022437   0.159354
     3  C   -0.218391   1.089740
     4  H    0.234146   0.242578
     5  H    0.236513   0.044003
     6  H    0.236513   0.044003
     7  H    0.236513   0.044003
     8  H    0.234146   0.242578
     9  H    0.236513   0.044003
 Sum of Mulliken charges =   1.00000   3.00000

 Dipole moment (field-independent basis, Debye):
    X=              0.0000    Y=              0.0000    Z=              1.5824  Tot=              1.5824
 Quadrupole moment (field-independent basis, Debye-Ang):
   XX=            -14.3875   YY=            -10.1946   ZZ=            -14.7264
   XY=              0.0000   XZ=              0.0000   YZ=              0.0000

  Exact polarizability:  30.271   0.000  55.753   0.000   0.000  33.958
 Approx polarizability:  44.045   0.000  78.276   0.000   0.000  49.341

                      1                      2                      3
                     A2                     B2                     A1
 Frequencies --    305.8148               309.6801               334.4161
 Red. masses --      1.0176                 1.2860                 1.0929
 Frc consts  --      0.0561                 0.0727                 0.0720
 IR Inten    --      0.0000                38.7987                67.5276

                      4                      5                      6
                     B1                     A1                     A2
 Frequencies --    404.6021               499.2155               520.1142
 Red. masses --      1.0769                 7.0519                 1.1583
 Frc consts  --      0.1039                 1.0355                 0.1846
 IR Inten    --      0.0504                21.5844                 0.0000

                      7                      8                      9
                     B1                     A2                     A1
 Frequencies --    526.5011               783.3999               859.2023
 Red. masses --      1.1908                 1.0675                 1.0619
 Frc consts  --      0.1945                 0.3860                 0.4619
 IR Inten    --     52.8509                 0.0000               220.7016

                     10                     11                     12
                     B1                     B2                     A1
 Frequencies --    915.3534               993.3916              1011.5604
 Red. masses --      1.8804                 1.2248                 3.3462
 Frc consts  --      0.9283                 0.7121                 2.0174
 IR Inten    --      0.0216               210.7000                 0.1683

                     13                     14                     15
                     B2                     B2                     A1
 Frequencies --   1243.6680              1275.7712              1335.3188
 Red. masses --      1.4152                 2.5273                 1.1975
 Frc consts  --      1.2897                 2.4235                 1.2581
 IR Inten    --    304.9493                 1.1527                10.1154

                     16                     17                     18
                     B1                     A1                     B2
 Frequencies --   2104.5210              2406.2367              2982.3010
 Red. masses --      1.0354                 1.0912                 1.0431
 Frc consts  --      2.7018                 3.7226                 5.4663
 IR Inten    --     78.2953                52.2240               632.5452

                     19                     20                     21
                     A1                     A2                     B1
 Frequencies --   3036.4576              3076.5597              3086.5429
 Red. masses --      1.0544                 1.1034                 1.1096
 Frc consts  --      5.7281                 6.1536                 6.2282
 IR Inten    --     59.8025                 0.0000               133.5116

 - Thermochemistry -
 -------------------
 Temperature   298.150 Kelvin.  Pressure   1.00000 Atm.
 Atom     1 has atomic number  6 and mass  12.00000

 Molecular mass:    42.04695 amu.
 Principal axes and moments of inertia in atomic units:
                           1         2         3
     Eigenvalues --    44.46713 205.12025 217.87987
           X            0.00000   0.00000   1.00000
           Y            1.00000   0.00000   0.00000
           Z            0.00000   1.00000   0.00000
 This molecule is an asymmetric top.
 Rotational symmetry number  2.
 Rotational temperatures (Kelvin)      1.94782     0.42226     0.39753
 Rotational constants (GHZ):          40.58596     8.79845     8.28319
 Zero-point vibrational energy     167540.8 (Joules/Mol)
                                   40.04320 (Kcal/Mol)
 Warning -- explicit consideration of   7 degrees of freedom as
           vibrations may cause significant error
 Vibrational temperatures:    440.00   445.56   481.15   582.13   718.26
          (Kelvin)            748.33   757.52  1127.14  1236.20  1316.99
                             1429.27  1455.41  1789.36  1835.55  1921.22
                             3027.93  3462.03  4290.86  4368.78  4426.48
                             4440.84

 Zero-point correction=                           0.063813 (Hartree/Particle)
 Thermal correction to Energy=                    0.069097
 Thermal correction to Enthalpy=                  0.070041
 Thermal correction to Gibbs Free Energy=         0.037582
 Sum of electronic and zero-point Energies=           -117.361817
 Sum of electronic and thermal Energies=              -117.356533
 Sum of electronic and thermal Enthalpies=            -117.355589
 Sum of electronic and thermal Free Energies=         -117.388047

                     E (Thermal)             CV                S
                      KCal/Mol        Cal/Mol-Kelvin    Cal/Mol-Kelvin
 Total                   43.359             18.941             68.315
 Electronic               0.000              0.000              2.755
 Translational            0.889              2.981             37.136
 Rotational               0.889              2.981             20.835
 Vibrational             41.581             12.980              7.590
 Vibration     1          0.696              1.663              1.385
 Vibration     2          0.699              1.655              1.364
 Vibration     3          0.716              1.607              1.239
 Vibration     4          0.770              1.460              0.946
 Vibration     5          0.855              1.252              0.660
 Vibration     6          0.875              1.205              0.610
 Vibration     7          0.881              1.191              0.595

 Optimization completed.
    -- Stationary point found.
 Normal termination of Gaussian 09 at Fri Aug  9 00:15:41 2019.
