 Gaussian 09, Revision D.01,
 Gaussian 09:  EM64L-G09RevD.01 24-Apr-2013

 ------------------------------
 #p b3lyp/6-311++G(3df,2p) freq
 ------------------------------

 ---------
 b3lyp opt
 ---------
 Symbolic Z-matrix:
 Charge =  1 Multiplicity = 4

                         Standard orientation:
 ---------------------------------------------------------------------
 Center     Atomic      Atomic             Coordinates (Angstroms)
 Number     Number       Type             X           Y           Z
 ---------------------------------------------------------------------
      1          6           0        1.293106    0.218550   -0.118034
      2          6           0        0.047277   -0.413395    0.213532
      3          6           0       -1.307341    0.256475   -0.141110
      4          1           0       -0.286649   -1.156045   -0.615299
      5          1           0       -1.395846    1.056981    0.627105
      6          1           0        1.568203    1.201644    0.269372
      7          1           0        2.097812   -0.340504   -0.600028
      8          1           0        0.004649   -0.943560    1.177101
      9          1           0       -2.186421   -0.188299   -0.584586
 ---------------------------------------------------------------------

 SCF Done:  E(UB3LYP) =  -117.421196694     A.U. after   13 cycles

 The electronic state is 4-A.
 Alpha  occ. eigenvalues --  -10.49520 -10.47643 -10.42141  -1.08724  -0.94859
 Alpha  occ. eigenvalues --   -0.84721  -0.75714  -0.71387  -0.68334  -0.66716
 Alpha  occ. eigenvalues --   -0.58966  -0.49281  -0.45455
 Alpha virt. eigenvalues --   -0.19762  -0.15084  -0.14164  -0.13257  -0.11635
 Alpha virt. eigenvalues --   -0.10637  -0.08746  -0.08233  -0.07021  -0.06275
 Alpha virt. eigenvalues --   -0.05346  -0.04286  -0.03017  -0.02658  -0.01361

  Beta  occ. eigenvalues --  -10.49084 -10.45609 -10.40564  -1.04426  -0.89581
  Beta  occ. eigenvalues --   -0.79788  -0.71928  -0.68605  -0.65924  -0.63344
  Beta virt. eigenvalues --   -0.47569  -0.31934  -0.29028  -0.18255  -0.13778
  Beta virt. eigenvalues --   -0.13292  -0.12497  -0.10930  -0.09351  -0.08240
  Beta virt. eigenvalues --   -0.07060  -0.06311  -0.04783  -0.04358  -0.03522

 Mulliken charges and spin densities:
               1          2
     1  C   -0.231685   1.078610
     2  C    0.027200   0.151364
     3  C   -0.246992   1.271590
     4  H    0.262301   0.226571
     5  H    0.262687   0.123599
     6  H    0.230738   0.047408
     7  H    0.227743   0.032818
     8  H    0.222748   0.083687
     9  H    0.245260  -0.015646
 Sum of Mulliken charges =   1.00000   3.00000

 Dipole moment (field-independent basis, Debye):
    X=             -0.9170    Y=             -0.7107    Z=              0.2988  Tot=              1.1980
 Quadrupole moment (field-independent basis, Debye-Ang):
   XX=             -8.5170   YY=            -14.1786   ZZ=            -16.8544
   XY=              0.1088   XZ=             -0.1966   YZ=              2.0709

  Exact polarizability:  54.946  -0.677  32.763  -1.704   1.047  28.330
 Approx polarizability:  76.549  -2.020  48.091  -3.532   3.137  39.786

                      1                      2                      3
                      A                      A                      A
 Frequencies --    181.3757               287.4463               348.9401
 Red. masses --      1.1801                 1.4356                 1.2735
 Frc consts  --      0.0229                 0.0699                 0.0914
 IR Inten    --      6.2540                 4.2583                25.8702

                      4                      5                      6
                      A                      A                      A
 Frequencies --    404.7305               472.2289               523.9756
 Red. masses --      1.4915                 1.3633                 2.0591
 Frc consts  --      0.1439                 0.1791                 0.3331
 IR Inten    --     72.1122                59.2817                 9.9628

                      7                      8                      9
                      A                      A                      A
 Frequencies --    675.9272               735.3214               837.5313
 Red. masses --      1.6010                 1.2023                 1.1507
 Frc consts  --      0.4310                 0.3830                 0.4756
 IR Inten    --      7.0693                 5.1559                81.9658

                     10                     11                     12
                      A                      A                      A
 Frequencies --    881.0780              1052.1942              1148.0895
 Red. masses --      1.4154                 1.2918                 1.6555
 Frc consts  --      0.6474                 0.8426                 1.2857
 IR Inten    --    220.7108                 4.5472                 1.6867

                     13                     14                     15
                      A                      A                      A
 Frequencies --   1228.7521              1295.5207              1312.0164
 Red. masses --      1.1098                 1.2657                 1.3931
 Frc consts  --      0.9873                 1.2516                 1.4129
 IR Inten    --     15.9364                16.9108               102.5739

                     16                     17                     18
                      A                      A                      A
 Frequencies --   2411.6811              2819.4620              2958.5135
 Red. masses --      1.0829                 1.0576                 1.0795
 Frc consts  --      3.7108                 4.9535                 5.5669
 IR Inten    --    176.1594               449.3174                 9.5819

                     19                     20                     21
                      A                      A                      A
 Frequencies --   3027.5015              3093.2065              3225.9122
 Red. masses --      1.0513                 1.1060                 1.1012
 Frc consts  --      5.6776                 6.2350                 6.7517
 IR Inten    --    245.5697                56.2320                33.1899

 - Thermochemistry -
 -------------------
 Temperature   298.150 Kelvin.  Pressure   1.00000 Atm.
 Atom     1 has atomic number  6 and mass  12.00000

 Molecular mass:    42.04695 amu.
 Principal axes and moments of inertia in atomic units:
                           1         2         3
     Eigenvalues --    43.88429 207.54717 224.75829
           X            0.99994   0.01028  -0.00326
           Y           -0.00949   0.98212   0.18800
           Z            0.00514  -0.18795   0.98216
 This molecule is an asymmetric top.
 Rotational symmetry number  1.
 Rotational temperatures (Kelvin)      1.97369     0.41732     0.38536
 Rotational constants (GHZ):          41.12500     8.69557     8.02970
 Zero-point vibrational energy     172988.4 (Joules/Mol)
                                   41.34522 (Kcal/Mol)
 Warning -- explicit consideration of   6 degrees of freedom as
           vibrations may cause significant error
 Vibrational temperatures:    260.96   413.57   502.05   582.32   679.43
          (Kelvin)            753.88   972.51  1057.96  1205.02  1267.67
                             1513.87  1651.84  1767.90  1863.96  1887.70
                             3469.87  4056.57  4256.64  4355.89  4450.43
                             4641.36

 Zero-point correction=                           0.065888 (Hartree/Particle)
 Thermal correction to Energy=                    0.071303
 Thermal correction to Enthalpy=                  0.072247
 Thermal correction to Gibbs Free Energy=         0.038734
 Sum of electronic and zero-point Energies=           -117.355309
 Sum of electronic and thermal Energies=              -117.349894
 Sum of electronic and thermal Enthalpies=            -117.348950
 Sum of electronic and thermal Free Energies=         -117.382463

                     E (Thermal)             CV                S
                      KCal/Mol        Cal/Mol-Kelvin    Cal/Mol-Kelvin
 Total                   44.743             18.874             70.534
 Electronic               0.000              0.000              2.755
 Translational            0.889              2.981             37.136
 Rotational               0.889              2.981             22.242
 Vibrational             42.966             12.912              8.402
 Vibration     1          0.630              1.865              2.314
 Vibration     2          0.685              1.697              1.489
 Vibration     3          0.726              1.577              1.171
 Vibration     4          0.770              1.460              0.945
 Vibration     5          0.829              1.312              0.731
 Vibration     6          0.879              1.197              0.601

 Normal termination of Gaussian 09 at Thu Aug  8 09:52:39 2019.
