 Gaussian 09, Revision D.01,
 Gaussian 09:  EM64L-G09RevD.01 24-Apr-2013

 ------------------------------
 #p b3lyp/6-311++G(3df,2p) freq
 ------------------------------

 ---------
 b3lyp opt
 ---------
 Symbolic Z-matrix:
 Charge =  1 Multiplicity = 2

                         Standard orientation:
 ---------------------------------------------------------------------
 Center     Atomic      Atomic             Coordinates (Angstroms)
 Number     Number       Type             X           Y           Z
 ---------------------------------------------------------------------
      1          6           0        0.940459   -0.356702    0.000000
      2          6           0        0.000000    0.780789    0.000000
      3          6           0       -0.940962   -0.356248    0.000000
      4          1           0        0.000247    1.355474    0.922644
      5          1           0       -1.302145   -0.779958   -0.928197
      6          1           0        1.303409   -0.779032   -0.928147
      7          1           0        1.303409   -0.779032    0.928147
      8          1           0        0.000247    1.355474   -0.922644
      9          1           0       -1.302145   -0.779958    0.928197
 ---------------------------------------------------------------------

 SCF Done:  E(UB3LYP) =  -117.581399854     A.U. after   12 cycles

 The electronic state is 2-A'.
 Alpha  occ. eigenvalues --  -10.49169 -10.49165 -10.43947  -1.11421  -0.90860
 Alpha  occ. eigenvalues --   -0.85772  -0.76211  -0.71402  -0.66627  -0.64091
 Alpha  occ. eigenvalues --   -0.61769  -0.53847
 Alpha virt. eigenvalues --   -0.26829  -0.17644  -0.15008  -0.14127  -0.13530
 Alpha virt. eigenvalues --   -0.10237  -0.08375  -0.07877  -0.07780  -0.06612
 Alpha virt. eigenvalues --   -0.04856  -0.04125  -0.03480  -0.03015  -0.02476

  Beta  occ. eigenvalues --  -10.48402 -10.48398 -10.43979  -1.09760  -0.88575
  Beta  occ. eigenvalues --   -0.84372  -0.75718  -0.70344  -0.66127  -0.62741
  Beta  occ. eigenvalues --   -0.61348
  Beta virt. eigenvalues --   -0.41694  -0.21934  -0.17313  -0.14909  -0.13890
  Beta virt. eigenvalues --   -0.12666  -0.10069  -0.08309  -0.07842  -0.07452
  Beta virt. eigenvalues --   -0.05982  -0.04817  -0.03639  -0.03350  -0.02690

 Mulliken charges and spin densities:
               1          2
     1  C   -0.225667   0.546435
     2  C    0.092876  -0.096485
     3  C   -0.225941   0.545824
     4  H    0.205221   0.026610
     5  H    0.237171  -0.012251
     6  H    0.236974  -0.012246
     7  H    0.236974  -0.012246
     8  H    0.205221   0.026610
     9  H    0.237171  -0.012251
 Sum of Mulliken charges =   1.00000   1.00000

 Dipole moment (field-independent basis, Debye):
    X=              0.0009    Y=             -0.6998    Z=              0.0000  Tot=              0.6998
 Quadrupole moment (field-independent basis, Debye-Ang):
   XX=            -12.3051   YY=            -14.4562   ZZ=            -14.1611
   XY=              0.0011   XZ=              0.0000   YZ=              0.0000

  Exact polarizability:  37.133  -0.002  29.591   0.000   0.000  27.592
 Approx polarizability:  55.228  -0.008  40.189   0.000   0.000  37.800

                      1                      2                      3
                     A'                     A"                     A"
 Frequencies --    453.2714               485.4986               525.4852
 Red. masses --      4.2450                 1.0602                 1.0250
 Frc consts  --      0.5139                 0.1472                 0.1668
 IR Inten    --      0.0137                 1.8384                 0.0000

                      4                      5                      6
                     A'                     A"                     A"
 Frequencies --    656.4225               854.4632               875.6810
 Red. masses --      4.6718                 1.0394                 1.0753
 Frc consts  --      1.1860                 0.4471                 0.4858
 IR Inten    --      7.0505                 2.6900                 0.0001

                      7                      8                      9
                     A'                     A'                     A'
 Frequencies --    984.8606              1009.9831              1157.7197
 Red. masses --      1.2317                 1.2802                 1.2587
 Frc consts  --      0.7039                 0.7694                 0.9940
 IR Inten    --     26.3738                18.8674                 8.2042

                     10                     11                     12
                     A'                     A"                     A"
 Frequencies --   1163.0593              1174.2971              1226.8540
 Red. masses --      2.9537                 1.5057                 1.1823
 Frc consts  --      2.3541                 1.2233                 1.0485
 IR Inten    --      0.1504                 1.3657                 0.0000

                     13                     14                     15
                     A'                     A'                     A'
 Frequencies --   1466.6185              1469.9589              1516.5503
 Red. masses --      1.0963                 1.1037                 1.2421
 Frc consts  --      1.3893                 1.4051                 1.6831
 IR Inten    --      4.4127                 9.4208                 1.4676

                     16                     17                     18
                     A'                     A'                     A'
 Frequencies --   3071.1359              3132.3858              3144.2812
 Red. masses --      1.0521                 1.0475                 1.0531
 Frc consts  --      5.8468                 6.0554                 6.1345
 IR Inten    --     15.7904                22.9201                 5.7319

                     19                     20                     21
                     A"                     A"                     A"
 Frequencies --   3158.8497              3252.8085              3259.8049
 Red. masses --      1.1172                 1.1250                 1.1228
 Frc consts  --      6.5681                 7.0134                 7.0297
 IR Inten    --     14.4169                 0.0036                37.4928

 - Thermochemistry -
 -------------------
 Temperature   298.150 Kelvin.  Pressure   1.00000 Atm.
 Atom     1 has atomic number  6 and mass  12.00000

 Molecular mass:    42.04695 amu.
 Principal axes and moments of inertia in atomic units:
                           1         2         3
     Eigenvalues --    77.50341 118.80703 159.25106
           X            1.00000   0.00016   0.00000
           Y           -0.00016   1.00000   0.00000
           Z            0.00000   0.00000   1.00000
 This molecule is an asymmetric top.
 Rotational symmetry number  1.
 Rotational temperatures (Kelvin)      1.11755     0.72903     0.54388
 Rotational constants (GHZ):          23.28596    15.19053    11.33268
 Zero-point vibrational energy     203604.3 (Joules/Mol)
                                   48.66261 (Kcal/Mol)
 Warning -- explicit consideration of   3 degrees of freedom as
           vibrations may cause significant error
 Vibrational temperatures:    652.16   698.52   756.06   944.44  1229.38
          (Kelvin)           1259.91  1416.99  1453.14  1665.70  1673.38
                             1689.55  1765.17  2110.13  2114.94  2181.97
                             4418.67  4506.80  4523.91  4544.87  4680.06
                             4690.13

 Zero-point correction=                           0.077549 (Hartree/Particle)
 Thermal correction to Energy=                    0.081501
 Thermal correction to Enthalpy=                  0.082445
 Thermal correction to Gibbs Free Energy=         0.052230
 Sum of electronic and zero-point Energies=           -117.503851
 Sum of electronic and thermal Energies=              -117.499899
 Sum of electronic and thermal Enthalpies=            -117.498954
 Sum of electronic and thermal Free Energies=         -117.529169

                     E (Thermal)             CV                S
                      KCal/Mol        Cal/Mol-Kelvin    Cal/Mol-Kelvin
 Total                   51.143             13.679             63.593
 Electronic               0.000              0.000              1.377
 Translational            0.889              2.981             37.136
 Rotational               0.889              2.981             21.910
 Vibrational             49.365              7.717              3.169
 Vibration     1          0.812              1.354              0.786
 Vibration     2          0.842              1.282              0.695
 Vibration     3          0.880              1.194              0.597

 Optimization completed.
    -- Stationary point found.
 Normal termination of Gaussian 09 at Fri Aug  9 00:16:27 2019.
