 Gaussian 09, Revision E.01,
 Gaussian 09:  EM64L-G09RevE.01 30-Nov-2015

 ---------------------------------------------
 #p b3lyp/6-311++G(3df,2p) freq symmetry=Loose
 ---------------------------------------------

 ---------
 b3lyp opt
 ---------
 Symbolic Z-matrix:
 Charge =  1 Multiplicity = 1

                         Standard orientation:
 ---------------------------------------------------------------------
 Center     Atomic      Atomic             Coordinates (Angstroms)
 Number     Number       Type             X           Y           Z
 ---------------------------------------------------------------------
      1          6           0        0.000000    0.000000    0.162455
      2          1           0        0.000000    0.000000   -0.974731
 ---------------------------------------------------------------------

 SCF Done:  E(RB3LYP) =  -38.0908546208     A.U. after    7 cycles

 The electronic state is 1-SG.
 Alpha  occ. eigenvalues --  -10.79610  -1.05142  -0.72256
 Alpha virt. eigenvalues --   -0.54587  -0.54587  -0.23100  -0.13662  -0.11604
 Alpha virt. eigenvalues --   -0.11604  -0.10147  -0.04928   0.02818   0.02818
 Alpha virt. eigenvalues --    0.05522   0.05523   0.13139   0.23301   0.23301

 Mulliken charges:
               1
     1  C    0.719604
     2  H    0.280396
 Sum of Mulliken charges =   1.00000

 Dipole moment (field-independent basis, Debye):
    X=              0.0000    Y=              0.0000    Z=             -1.4532  Tot=              1.4532
 Quadrupole moment (field-independent basis, Debye-Ang):
   XX=             -3.9216   YY=             -3.9216   ZZ=             -4.4117
   XY=              0.0000   XZ=              0.0000   YZ=              0.0000

  Exact polarizability:   7.497   0.000   7.497  -0.000  -0.000   8.545
 Approx polarizability:  10.936  -0.000  10.936  -0.000  -0.000   9.936

                      1
                     SG
 Frequencies --   2798.9974
 Red. masses --      1.0848
 Frc consts  --      5.0074
 IR Inten    --      1.2750

 - Thermochemistry -
 -------------------
 Temperature   298.150 Kelvin.  Pressure   1.00000 Atm.
 Atom     1 has atomic number  6 and mass  12.00000

 Molecular mass:    13.00783 amu.
 Principal axes and moments of inertia in atomic units:
                           1         2         3
     Eigenvalues --     0.00000   4.29361   4.29361
           X            0.00000  -0.00000   1.00000
           Y            0.00000   1.00000   0.00000
           Z            1.00000   0.00000   0.00000
 This molecule is a prolate symmetric top.
 Rotational symmetry number  1.
 Rotational temperature (Kelvin)     20.17273
 Rotational constant (GHZ):         420.332030
 Zero-point vibrational energy      16741.7 (Joules/Mol)
                                    4.00137 (Kcal/Mol)
 Vibrational temperatures:   4027.13
          (Kelvin)

 Zero-point correction=                           0.006377 (Hartree/Particle)
 Thermal correction to Energy=                    0.008737
 Thermal correction to Enthalpy=                  0.009681
 Thermal correction to Gibbs Free Energy=        -0.009789
 Sum of electronic and zero-point Energies=            -38.084478
 Sum of electronic and thermal Energies=               -38.082118
 Sum of electronic and thermal Enthalpies=             -38.081173
 Sum of electronic and thermal Free Energies=          -38.100643

                     E (Thermal)             CV                S
                      KCal/Mol        Cal/Mol-Kelvin    Cal/Mol-Kelvin
 Total                    5.483              4.969             40.978
 Electronic               0.000              0.000              0.000
 Translational            0.889              2.981             33.638
 Rotational               0.592              1.987              7.339
 Vibrational              4.001              0.000              0.000

 Optimization completed.
    -- Stationary point found.
 Normal termination of Gaussian 09 at Sun Jun 19 04:48:57 2016.
