 Gaussian 09, Revision E.01,
 Gaussian 09:  EM64L-G09RevE.01 30-Nov-2015

 ---------------------------------------------
 #p b3lyp/6-311++G(3df,2p) freq symmetry=Loose
 ---------------------------------------------

 ---------
 b3lyp opt
 ---------
 Symbolic Z-matrix:
 Charge =  0 Multiplicity = 2

                         Standard orientation:
 ---------------------------------------------------------------------
 Center     Atomic      Atomic             Coordinates (Angstroms)
 Number     Number       Type             X           Y           Z
 ---------------------------------------------------------------------
      1          6           0        0.000000    0.000000    0.160387
      2          1           0        0.000000    0.000000   -0.962321
 ---------------------------------------------------------------------

 SCF Done:  E(UB3LYP) =  -38.4959050796     A.U. after    9 cycles

 Unable to determine electronic state:  an orbital has unidentified symmetry.
 Alpha  occ. eigenvalues --  -10.28064  -0.65394  -0.32818  -0.26325
 Alpha virt. eigenvalues --   -0.15249  -0.00197   0.06887   0.07001   0.07706
 Alpha virt. eigenvalues --    0.11317   0.14295   0.31302   0.31463   0.32953
 Alpha virt. eigenvalues --    0.33285   0.37525   0.51646   0.53598   0.54595

  Beta  occ. eigenvalues --  -10.26586  -0.61170  -0.30786
  Beta virt. eigenvalues --   -0.13695  -0.09340   0.00023   0.07136   0.07913
  Beta virt. eigenvalues --    0.08830   0.11680   0.14916   0.31486   0.32997
  Beta virt. eigenvalues --    0.34801   0.34938   0.38391   0.54420   0.55272

 Mulliken charges and spin densities:
               1          2
     1  C   -0.145326   1.015003
     2  H    0.145326  -0.015003
 Sum of Mulliken charges =  -0.00000   1.00000

 Dipole moment (field-independent basis, Debye):
    X=              0.0000    Y=              0.0000    Z=             -1.4659  Tot=              1.4659
 Quadrupole moment (field-independent basis, Debye-Ang):
   XX=             -5.7907   YY=             -7.8901   ZZ=             -7.7982
   XY=              0.0000   XZ=              0.0000   YZ=              0.0000

  Exact polarizability:  12.174  -0.000  14.504   0.000  -0.000  16.491
 Approx polarizability:  17.113  -0.000  14.990  -0.000  -0.000  19.041

                      1
                     SG
 Frequencies --   2827.1903
 Red. masses --      1.0848
 Frc consts  --      5.1088
 IR Inten    --    141.3451

 - Thermochemistry -
 -------------------
 Temperature   298.150 Kelvin.  Pressure   1.00000 Atm.
 Atom     1 has atomic number  6 and mass  12.00000

 Molecular mass:    13.00783 amu.
 Principal axes and moments of inertia in atomic units:
                           1         2         3
     Eigenvalues --     0.00000   4.18498   4.18498
           X            0.00000  -0.00000   1.00000
           Y            0.00000   1.00000   0.00000
           Z            1.00000   0.00000   0.00000
 This molecule is a prolate symmetric top.
 Rotational symmetry number  1.
 Rotational temperature (Kelvin)     20.69637
 Rotational constant (GHZ):         431.242802
 Zero-point vibrational energy      16910.4 (Joules/Mol)
                                    4.04167 (Kcal/Mol)
 Vibrational temperatures:   4067.69
          (Kelvin)

 Zero-point correction=                           0.006441 (Hartree/Particle)
 Thermal correction to Energy=                    0.008801
 Thermal correction to Enthalpy=                  0.009745
 Thermal correction to Gibbs Free Energy=        -0.010355
 Sum of electronic and zero-point Energies=            -38.489464
 Sum of electronic and thermal Energies=               -38.487104
 Sum of electronic and thermal Enthalpies=             -38.486160
 Sum of electronic and thermal Free Energies=          -38.506260

                     E (Thermal)             CV                S
                      KCal/Mol        Cal/Mol-Kelvin    Cal/Mol-Kelvin
 Total                    5.523              4.968             42.304
 Electronic               0.000              0.000              1.377
 Translational            0.889              2.981             33.638
 Rotational               0.592              1.987              7.288
 Vibrational              4.042              0.000              0.000

 Optimization completed.
    -- Stationary point found.
 Normal termination of Gaussian 09 at Sun Jun 19 04:46:46 2016.
