 Gaussian 09, Revision E.01,
 Gaussian 09:  EM64L-G09RevE.01 30-Nov-2015

 ---------------------------------------------
 #p b3lyp/6-311++G(3df,2p) freq symmetry=Loose
 ---------------------------------------------

 ---------
 b3lyp opt
 ---------
 Symbolic Z-matrix:
 Charge =  0 Multiplicity = 2

                         Standard orientation:
 ---------------------------------------------------------------------
 Center     Atomic      Atomic             Coordinates (Angstroms)
 Number     Number       Type             X           Y           Z
 ---------------------------------------------------------------------
      1          1           0        0.000000    0.000000   -1.534847
      2          6           0        0.000000    0.000000   -0.471788
      3          6           0        0.000000    0.000000    0.727595
 ---------------------------------------------------------------------

 SCF Done:  E(UB3LYP) =  -76.6359987892     A.U. after   11 cycles

 The electronic state is 2-SG.
 Alpha  occ. eigenvalues --  -10.24266 -10.19910  -0.78214  -0.56214  -0.40840
 Alpha  occ. eigenvalues --   -0.32226  -0.32226
 Alpha virt. eigenvalues --    0.00264   0.00264   0.00449   0.03742   0.06522
 Alpha virt. eigenvalues --    0.06522   0.07959   0.11781   0.12822   0.12822
 Alpha virt. eigenvalues --    0.16014   0.22691   0.30313   0.30313   0.35213

  Beta  occ. eigenvalues --  -10.22115 -10.19856  -0.76210  -0.55248  -0.30862
  Beta  occ. eigenvalues --   -0.30862
  Beta virt. eigenvalues --   -0.20042   0.00584   0.02089   0.02089   0.04530
  Beta virt. eigenvalues --    0.06528   0.06528   0.08358   0.12078   0.13549
  Beta virt. eigenvalues --    0.13549   0.16524   0.22853   0.30370   0.30370

 Mulliken charges and spin densities:
               1          2
     1  H    0.283650   0.023483
     2  C    0.075990  -0.362130
     3  C   -0.359640   1.338647
 Sum of Mulliken charges =   0.00000   1.00000

 Dipole moment (field-independent basis, Debye):
    X=              0.0000    Y=              0.0000    Z=             -0.7778  Tot=              0.7778
 Quadrupole moment (field-independent basis, Debye-Ang):
   XX=            -12.9269   YY=            -12.9269   ZZ=             -8.3064
   XY=              0.0000   XZ=              0.0000   YZ=              0.0000

  Exact polarizability:  23.886   0.004  23.985   0.026  -0.000  27.068
 Approx polarizability:  23.199  -0.000  23.199  -0.000  -0.000  50.180

                      1                      2                      3
                     PI                     PI                     SG
 Frequencies --    291.7360               295.1157              2089.8433
 Red. masses --      1.3346                 1.3346                 5.6548
 Frc consts  --      0.0669                 0.0685                14.5511
 IR Inten    --      5.5683                 5.6885                 4.7306

                      4
                     SG
 Frequencies --   3450.6255
 Red. masses --      1.1600
 Frc consts  --      8.1374
 IR Inten    --     57.7438

 - Thermochemistry -
 -------------------
 Temperature   298.150 Kelvin.  Pressure   1.00000 Atm.
 Atom     1 has atomic number  1 and mass   1.00783

 Molecular mass:    25.00783 amu.
 Principal axes and moments of inertia in atomic units:
                           1         2         3
     Eigenvalues --     0.00000  40.37160  40.37160
           X            0.00000  -0.00000   1.00000
           Y            0.00000   1.00000   0.00000
           Z            1.00000   0.00000   0.00000
 This molecule is a prolate symmetric top.
 Rotational symmetry number  1.
 Rotational temperature (Kelvin)      2.14541
 Rotational constant (GHZ):          44.703238
 Zero-point vibrational energy      36649.5 (Joules/Mol)
                                    8.75944 (Kcal/Mol)
 Warning -- explicit consideration of   2 degrees of freedom as
           vibrations may cause significant error
 Vibrational temperatures:    419.74   424.61  3006.81  4964.67
          (Kelvin)

 Zero-point correction=                           0.013959 (Hartree/Particle)
 Thermal correction to Energy=                    0.017177
 Thermal correction to Enthalpy=                  0.018121
 Thermal correction to Gibbs Free Energy=        -0.006427
 Sum of electronic and zero-point Energies=            -76.622040
 Sum of electronic and thermal Energies=               -76.618822
 Sum of electronic and thermal Enthalpies=             -76.617878
 Sum of electronic and thermal Free Energies=          -76.642426

                     E (Thermal)             CV                S
                      KCal/Mol        Cal/Mol-Kelvin    Cal/Mol-Kelvin
 Total                   10.779              8.348             51.666
 Electronic               0.000              0.000              1.377
 Translational            0.889              2.981             35.587
 Rotational               0.592              1.987             11.793
 Vibrational              9.297              3.380              2.909
 Vibration     1          0.687              1.689              1.464
 Vibration     2          0.689              1.683              1.444

 Normal termination of Gaussian 09 at Sun Jun 19 04:43:37 2016.
