 Gaussian 09, Revision E.01,
 Gaussian 09:  EM64L-G09RevE.01 30-Nov-2015

 ---------------------------------------------
 #p b3lyp/6-311++G(3df,2p) freq symmetry=Loose
 ---------------------------------------------

 ---------
 b3lyp opt
 ---------
 Symbolic Z-matrix:
 Charge =  0 Multiplicity = 2

                         Standard orientation:
 ---------------------------------------------------------------------
 Center     Atomic      Atomic             Coordinates (Angstroms)
 Number     Number       Type             X           Y           Z
 ---------------------------------------------------------------------
      1          1           0        0.000000   -0.000000    1.023106
      2          6           0        0.000000    0.634100   -0.085259
      3          6           0       -0.000000   -0.634100   -0.085259
 ---------------------------------------------------------------------

 SCF Done:  E(UB3LYP) =  -76.5996787030     A.U. after   11 cycles

 The electronic state is 2-A1.
 Alpha  occ. eigenvalues --  -10.26037 -10.25899  -0.86761  -0.45165  -0.43818
 Alpha  occ. eigenvalues --   -0.34954  -0.33732
 Alpha virt. eigenvalues --   -0.03322  -0.01026  -0.00381   0.04937   0.05338
 Alpha virt. eigenvalues --    0.06144   0.06735   0.11685   0.11847   0.12326
 Alpha virt. eigenvalues --    0.12329   0.16275   0.26266   0.32563   0.35093

  Beta  occ. eigenvalues --  -10.25111 -10.24995  -0.84289  -0.44412  -0.37150
  Beta  occ. eigenvalues --   -0.32827
  Beta virt. eigenvalues --   -0.21080  -0.01739   0.00151   0.00414   0.05243
  Beta virt. eigenvalues --    0.05592   0.06201   0.07181   0.11957   0.11961
  Beta virt. eigenvalues --    0.12647   0.12818   0.16489   0.26362   0.33035

 Mulliken charges and spin densities:
               1          2
     1  H    0.203551  -0.008520
     2  C   -0.101776   0.504260
     3  C   -0.101776   0.504260
 Sum of Mulliken charges =   0.00000   1.00000

 Dipole moment (field-independent basis, Debye):
    X=              0.0000    Y=             -0.0000    Z=              0.8665  Tot=              0.8665
 Quadrupole moment (field-independent basis, Debye-Ang):
   XX=            -13.4388   YY=            -13.3434   ZZ=            -10.7501
   XY=             -0.0000   XZ=              0.0000   YZ=              0.0000

  Exact polarizability:  28.956  -0.000  41.266  -0.000  -0.000  20.758
 Approx polarizability:  27.916   0.000  80.701   0.000   0.000  30.837

                      1                      2                      3
                     B2                     A1                     A1
 Frequencies --    341.5803              1809.9825              2369.1891
 Red. masses --      1.1628                11.5616                 1.0499
 Frc consts  --      0.0799                22.3160                 3.4722
 IR Inten    --      3.0184                 1.0230                 7.3939

 - Thermochemistry -
 -------------------
 Temperature   298.150 Kelvin.  Pressure   1.00000 Atm.
 Atom     1 has atomic number  1 and mass   1.00783

 Molecular mass:    25.00783 amu.
 Principal axes and moments of inertia in atomic units:
                           1         2         3
     Eigenvalues --     4.24311  34.46073  38.70384
           X            0.00000   0.00000   1.00000
           Y            1.00000   0.00000  -0.00000
           Z            0.00000   1.00000   0.00000
 This molecule is an asymmetric top.
 Rotational symmetry number  2.
 Rotational temperatures (Kelvin)     20.41284     2.51341     2.23786
 Rotational constants (GHZ):         425.33501    52.37095    46.62952
 Zero-point vibrational energy      27040.1 (Joules/Mol)
                                    6.46274 (Kcal/Mol)
 Warning -- explicit consideration of   1 degrees of freedom as
           vibrations may cause significant error
 Vibrational temperatures:    491.46  2604.16  3408.73
          (Kelvin)

 Zero-point correction=                           0.010299 (Hartree/Particle)
 Thermal correction to Energy=                    0.013504
 Thermal correction to Enthalpy=                  0.014448
 Thermal correction to Gibbs Free Energy=        -0.010821
 Sum of electronic and zero-point Energies=            -76.589380
 Sum of electronic and thermal Energies=               -76.586175
 Sum of electronic and thermal Enthalpies=             -76.585231
 Sum of electronic and thermal Free Energies=          -76.610500

                     E (Thermal)             CV                S
                      KCal/Mol        Cal/Mol-Kelvin    Cal/Mol-Kelvin
 Total                    8.474              7.581             53.184
 Electronic               0.000              0.000              1.377
 Translational            0.889              2.981             35.587
 Rotational               0.889              2.981             15.011
 Vibrational              6.696              1.620              1.208
 Vibration     1          0.721              1.592              1.205

 Optimization completed.
    -- Stationary point found.
 Normal termination of Gaussian 09 at Sun Jun 19 04:43:35 2016.
