 Gaussian 09, Revision E.01,
 Gaussian 09:  EM64L-G09RevE.01 30-Nov-2015

 ---------------------------------------------
 #p b3lyp/6-311++G(3df,2p) freq symmetry=Loose
 ---------------------------------------------

 ---------
 b3lyp opt
 ---------
 Symbolic Z-matrix:
 Charge =  2 Multiplicity = 4

                         Standard orientation:
 ---------------------------------------------------------------------
 Center     Atomic      Atomic             Coordinates (Angstroms)
 Number     Number       Type             X           Y           Z
 ---------------------------------------------------------------------
      1          1           0       -0.000000    0.000000    2.302606
      2          6           0       -0.000000    0.000000    1.191941
      3          6           0        0.000000   -0.000000   -0.122084
      4          6           0        0.000000    0.000000   -1.453625
 ---------------------------------------------------------------------

 SCF Done:  E(UB3LYP) =  -113.576385096     A.U. after   13 cycles

 Unable to determine electronic state:  an orbital has unidentified symmetry.
 Alpha  occ. eigenvalues --  -10.97685 -10.91721 -10.90118  -1.45917  -1.35070
 Alpha  occ. eigenvalues --   -1.12081  -1.02469  -0.98989  -0.97992  -0.84718
 Alpha virt. eigenvalues --   -0.77225  -0.55947  -0.55158  -0.44073  -0.37580
 Alpha virt. eigenvalues --   -0.30246  -0.28709  -0.28267  -0.26490  -0.23030
 Alpha virt. eigenvalues --   -0.22526  -0.22441  -0.21644  -0.21444  -0.15923

  Beta  occ. eigenvalues --  -10.93782 -10.90413 -10.89268  -1.40533  -1.29272
  Beta  occ. eigenvalues --   -1.10301  -0.92676
  Beta virt. eigenvalues --   -0.84511  -0.76304  -0.69218  -0.68257  -0.48347
  Beta virt. eigenvalues --   -0.47648  -0.41125  -0.36857  -0.29013  -0.27895
  Beta virt. eigenvalues --   -0.27518  -0.22960  -0.21951  -0.21608  -0.21260

 Mulliken charges and spin densities:
               1          2
     1  H    0.497652  -0.018651
     2  C    0.455984   0.767485
     3  C    0.520402   0.496532
     4  C    0.525963   1.754634
 Sum of Mulliken charges =   2.00000   3.00000

 Dipole moment (field-independent basis, Debye):
    X=             -0.0000    Y=              0.0000    Z=              0.6994  Tot=              0.6994
 Quadrupole moment (field-independent basis, Debye-Ang):
   XX=            -10.8957   YY=            -13.8910   ZZ=             10.1782
   XY=             -0.0000   XZ=             -0.0000   YZ=              0.0000

  Exact polarizability:  13.050  -0.000  13.133  -0.000  -0.001  38.354
 Approx polarizability:  18.164   0.000  16.193  -0.000   0.000  77.259

                      1                      2                      3
                     ?A                     ?A                     ?A
 Frequencies --    285.4189               295.3407               420.4827
 Red. masses --      6.8729                 4.3844                 1.2529
 Frc consts  --      0.3299                 0.2253                 0.1305
 IR Inten    --      0.7705                 9.3851                73.7034

                      4                      5                      6
                     ?A                     SG                     SG
 Frequencies --    855.9410              1164.1174              1512.1102
 Red. masses --      1.3975                 7.7733                 8.3879
 Frc consts  --      0.6032                 6.2065                11.2997
 IR Inten    --      4.2877                 0.0052               357.5077

                      7
                     SG
 Frequencies --   2981.6765
 Red. masses --      1.1283
 Frc consts  --      5.9101
 IR Inten    --    463.9429

 - Thermochemistry -
 -------------------
 Temperature   298.150 Kelvin.  Pressure   1.00000 Atm.
 Atom     1 has atomic number  1 and mass   1.00783

 Molecular mass:    37.00783 amu.
 Principal axes and moments of inertia in atomic units:
                           1         2         3
     Eigenvalues --     0.00000 170.64800 170.64800
           X           -0.00000   0.70712  -0.70710
           Y            0.00000   0.70710   0.70712
           Z            1.00000   0.00000  -0.00000
 This molecule is a prolate symmetric top.
 Rotational symmetry number  1.
 Rotational temperature (Kelvin)      0.50756
 Rotational constant (GHZ):          10.575812
 Zero-point vibrational energy      44950.2 (Joules/Mol)
                                   10.74336 (Kcal/Mol)
 Warning -- explicit consideration of   3 degrees of freedom as
           vibrations may cause significant error
 Vibrational temperatures:    410.65   424.93   604.98  1231.51  1674.90
          (Kelvin)           2175.59  4289.96

 Zero-point correction=                           0.017121 (Hartree/Particle)
 Thermal correction to Energy=                    0.020724
 Thermal correction to Enthalpy=                  0.021668
 Thermal correction to Gibbs Free Energy=        -0.005998
 Sum of electronic and zero-point Energies=           -113.559264
 Sum of electronic and thermal Energies=              -113.555662
 Sum of electronic and thermal Enthalpies=            -113.554717
 Sum of electronic and thermal Free Energies=         -113.582383

                     E (Thermal)             CV                S
                      KCal/Mol        Cal/Mol-Kelvin    Cal/Mol-Kelvin
 Total                   13.004             10.641             58.227
 Electronic               0.000              0.000              2.755
 Translational            0.889              2.981             36.755
 Rotational               0.592              1.987             14.657
 Vibrational             11.523              5.673              4.060
 Vibration     1          0.683              1.701              1.501
 Vibration     2          0.690              1.682              1.443
 Vibration     3          0.783              1.426              0.890

 Normal termination of Gaussian 09 at Mon Jun 20 13:28:00 2016.
