 Gaussian 09, Revision E.01,
 Gaussian 09:  EM64L-G09RevE.01 30-Nov-2015

 ---------------------------------------------
 #p b3lyp/6-311++G(3df,2p) freq symmetry=Loose
 ---------------------------------------------

 ---------
 b3lyp opt
 ---------
 Symbolic Z-matrix:
 Charge =  1 Multiplicity = 1

                         Standard orientation:
 ---------------------------------------------------------------------
 Center     Atomic      Atomic             Coordinates (Angstroms)
 Number     Number       Type             X           Y           Z
 ---------------------------------------------------------------------
      1          6           0       -0.000000    0.000000   -1.424252
      2          6           0        0.000000   -0.000000   -0.086835
      3          6           0       -0.000000    0.000000    1.140849
      4          1           0       -0.000000    0.000000    2.221427
 ---------------------------------------------------------------------

 SCF Done:  E(RB3LYP) =  -114.377374595     A.U. after   11 cycles

 The electronic state is 1-SG.
 Alpha  occ. eigenvalues --  -10.61034 -10.59250 -10.50334  -1.13107  -1.01873
 Alpha  occ. eigenvalues --   -0.85936  -0.65628  -0.65628  -0.61267
 Alpha virt. eigenvalues --   -0.44468  -0.44468  -0.20656  -0.20656  -0.17895
 Alpha virt. eigenvalues --   -0.16435  -0.10573  -0.10573  -0.10114  -0.05897
 Alpha virt. eigenvalues --   -0.05806  -0.05806  -0.02443   0.00409   0.00409

 Mulliken charges:
               1
     1  C   -0.263449
     2  C    0.582727
     3  C    0.268234
     4  H    0.412487
 Sum of Mulliken charges =   1.00000

 Dipole moment (field-independent basis, Debye):
    X=              0.0000    Y=             -0.0000    Z=              2.9963  Tot=              2.9963
 Quadrupole moment (field-independent basis, Debye-Ang):
   XX=            -14.6210   YY=            -14.6210   ZZ=             -4.6862
   XY=              0.0000   XZ=             -0.0000   YZ=              0.0000

  Exact polarizability:  18.203  -0.000  18.203   0.001  -0.002  44.493
 Approx polarizability:  25.882  -0.000  25.882   0.000  -0.000 118.927

                      1                      2                      3
                     PI                     PI                     PI
 Frequencies --    148.9482               148.9584               838.6738
 Red. masses --      5.1065                 5.1065                 1.3354
 Frc consts  --      0.0667                 0.0668                 0.5534
 IR Inten    --      1.2656                 1.2652                16.4672

                      4                      5                      6
                     PI                     SG                     SG
 Frequencies --    838.6741              1205.0527              2180.6441
 Red. masses --      1.3354                 8.4338                 6.1646
 Frc consts  --      0.5534                 7.2158                17.2712
 IR Inten    --     16.4675                71.3531               903.3496

                      7
                     SG
 Frequencies --   3301.5388
 Red. masses --      1.1718
 Frc consts  --      7.5257
 IR Inten    --    105.2739

 - Thermochemistry -
 -------------------
 Temperature   298.150 Kelvin.  Pressure   1.00000 Atm.
 Atom     1 has atomic number  6 and mass  12.00000

 Molecular mass:    37.00783 amu.
 Principal axes and moments of inertia in atomic units:
                           1         2         3
     Eigenvalues --     0.00000 160.31558 160.31558
           X            0.00000   0.85061   0.52580
           Y           -0.00000  -0.52580   0.85061
           Z            1.00000  -0.00000   0.00000
 This molecule is a prolate symmetric top.
 Rotational symmetry number  1.
 Rotational temperature (Kelvin)      0.54027
 Rotational constant (GHZ):          11.257429
 Zero-point vibrational energy      51813.2 (Joules/Mol)
                                   12.38365 (Kcal/Mol)
 Warning -- explicit consideration of   2 degrees of freedom as
           vibrations may cause significant error
 Vibrational temperatures:    214.30   214.32  1206.66  1206.66  1733.80
          (Kelvin)           3137.46  4750.17

 Zero-point correction=                           0.019735 (Hartree/Particle)
 Thermal correction to Energy=                    0.023538
 Thermal correction to Enthalpy=                  0.024482
 Thermal correction to Gibbs Free Energy=        -0.002627
 Sum of electronic and zero-point Energies=           -114.357640
 Sum of electronic and thermal Energies=              -114.353837
 Sum of electronic and thermal Enthalpies=            -114.352892
 Sum of electronic and thermal Free Energies=         -114.380002

                     E (Thermal)             CV                S
                      KCal/Mol        Cal/Mol-Kelvin    Cal/Mol-Kelvin
 Total                   14.770             10.161             57.056
 Electronic               0.000              0.000              0.000
 Translational            0.889              2.981             36.755
 Rotational               0.592              1.987             14.533
 Vibrational             13.289              5.193              5.768
 Vibration     1          0.618              1.904              2.686
 Vibration     2          0.618              1.904              2.685

 Optimization completed.
    -- Stationary point found.
 Normal termination of Gaussian 09 at Mon Jun 20 13:27:48 2016.
