 Gaussian 09, Revision E.01,
 Gaussian 09:  EM64L-G09RevE.01 30-Nov-2015

 ---------------------------------------------
 #p b3lyp/6-311++G(3df,2p) freq symmetry=Loose
 ---------------------------------------------

 ---------
 b3lyp opt
 ---------
 Symbolic Z-matrix:
 Charge =  3 Multiplicity = 1

                         Standard orientation:
 ---------------------------------------------------------------------
 Center     Atomic      Atomic             Coordinates (Angstroms)
 Number     Number       Type             X           Y           Z
 ---------------------------------------------------------------------
      1          1           0       -0.001069    2.012225   -0.000000
      2          6           0       -0.000000    0.783717    0.000000
      3          6           0       -0.655718   -0.560270   -0.000000
      4          6           0        0.655896   -0.558818    0.000000
 ---------------------------------------------------------------------

 SCF Done:  E(RB3LYP) =  -112.526699876     A.U. after   12 cycles

 The electronic state is 1-A'.
 Alpha  occ. eigenvalues --  -11.39678 -11.39587 -11.33179  -1.94277  -1.53448
 Alpha  occ. eigenvalues --   -1.45022  -1.38232  -1.35488
 Alpha virt. eigenvalues --   -1.21493  -1.13975  -1.00993  -0.97398  -0.80088
 Alpha virt. eigenvalues --   -0.79611  -0.60446  -0.57199  -0.57090  -0.50783
 Alpha virt. eigenvalues --   -0.49402  -0.46447  -0.43153  -0.41901  -0.41801

 Mulliken charges:
               1
     1  H    0.527253
     2  C    0.368128
     3  C    1.052046
     4  C    1.052573
 Sum of Mulliken charges =   3.00000

 Dipole moment (field-independent basis, Debye):
    X=             -0.0049    Y=              1.1630    Z=             -0.0000  Tot=              1.1630
 Quadrupole moment (field-independent basis, Debye-Ang):
   XX=             -2.4921   YY=              5.6463   ZZ=            -11.0173
   XY=              0.0062   XZ=              0.0000   YZ=              0.0000

  Exact polarizability:  19.590   0.001  24.848   0.000   0.000  12.894
 Approx polarizability:  62.908   0.045  49.460   0.000   0.000  17.262

                      1                      2                      3
                     A'                     A"                     A'
 Frequencies --    578.1339               758.3739               787.2037
 Red. masses --     11.1043                 1.3156                 1.2096
 Frc consts  --      2.1867                 0.4458                 0.4416
 IR Inten    --     95.4901               115.7515               138.1501

                      4                      5                      6
                     A'                     A'                     A'
 Frequencies --    905.2364              1584.5796              1858.9907
 Red. masses --      7.3262                10.9782                 1.1031
 Frc consts  --      3.5372                16.2409                 2.2460
 IR Inten    --     43.5654                32.9381              1558.9885

 - Thermochemistry -
 -------------------
 Temperature   298.150 Kelvin.  Pressure   1.00000 Atm.
 Atom     1 has atomic number  1 and mass   1.00783

 Molecular mass:    37.00783 amu.
 Principal axes and moments of inertia in atomic units:
                           1         2         3
     Eigenvalues --    36.86046  67.34223 104.20269
           X            0.00095   1.00000   0.00000
           Y            1.00000  -0.00095   0.00000
           Z           -0.00000  -0.00000   1.00000
 This molecule is an asymmetric top.
 Rotational symmetry number  1.
 Rotational temperatures (Kelvin)      2.34978     1.28617     0.83121
 Rotational constants (GHZ):          48.96143    26.79955    17.31953
 Zero-point vibrational energy      38714.3 (Joules/Mol)
                                    9.25293 (Kcal/Mol)
 Warning -- explicit consideration of   1 degrees of freedom as
           vibrations may cause significant error
 Vibrational temperatures:    831.80  1091.13  1132.61  1302.43  2279.85
          (Kelvin)           2674.67

 Zero-point correction=                           0.014745 (Hartree/Particle)
 Thermal correction to Energy=                    0.017981
 Thermal correction to Enthalpy=                  0.018926
 Thermal correction to Gibbs Free Energy=        -0.008651
 Sum of electronic and zero-point Energies=           -112.511954
 Sum of electronic and thermal Energies=              -112.508718
 Sum of electronic and thermal Enthalpies=            -112.507774
 Sum of electronic and thermal Free Energies=         -112.535351

                     E (Thermal)             CV                S
                      KCal/Mol        Cal/Mol-Kelvin    Cal/Mol-Kelvin
 Total                   11.283              9.003             58.040
 Electronic               0.000              0.000              0.000
 Translational            0.889              2.981             36.755
 Rotational               0.889              2.981             20.186
 Vibrational              9.506              3.041              1.098
 Vibration     1          0.935              1.079              0.489

 Normal termination of Gaussian 09 at Mon Jun 20 13:29:10 2016.
