 Gaussian 09, Revision E.01,
 Gaussian 09:  EM64L-G09RevE.01 30-Nov-2015

 ---------------------------------------------
 #p b3lyp/6-311++G(3df,2p) freq symmetry=Loose
 ---------------------------------------------

 ---------
 b3lyp opt
 ---------
 Symbolic Z-matrix:
 Charge =  0 Multiplicity = 2

                         Standard orientation:
 ---------------------------------------------------------------------
 Center     Atomic      Atomic             Coordinates (Angstroms)
 Number     Number       Type             X           Y           Z
 ---------------------------------------------------------------------
      1          1           0        0.000000    0.000000    1.772330
      2          6           0        0.000000    0.000000    0.692718
      3          6           0        0.000000    0.680459   -0.494053
      4          6           0       -0.000000   -0.680459   -0.494053
 ---------------------------------------------------------------------

 SCF Done:  E(UB3LYP) =  -114.720663572     A.U. after   12 cycles

 The electronic state is 2-B2.
 Alpha  occ. eigenvalues --  -10.27891 -10.23702 -10.23635  -0.96523  -0.63125
 Alpha  occ. eigenvalues --   -0.51895  -0.44994  -0.41239  -0.30151  -0.27666
 Alpha virt. eigenvalues --   -0.06624  -0.02957  -0.00619   0.03582   0.04077
 Alpha virt. eigenvalues --    0.05029   0.07902   0.08771   0.08994   0.10839
 Alpha virt. eigenvalues --    0.11146   0.11818   0.12142   0.16787   0.16871

  Beta  occ. eigenvalues --  -10.27362 -10.22918 -10.22846  -0.95673  -0.62014
  Beta  occ. eigenvalues --   -0.48965  -0.41548  -0.40627  -0.27236
  Beta virt. eigenvalues --   -0.15672  -0.05738  -0.01593  -0.00490   0.03709
  Beta virt. eigenvalues --    0.04418   0.05055   0.07991   0.08847   0.09525
  Beta virt. eigenvalues --    0.10984   0.11324   0.12112   0.12823   0.16970

 Mulliken charges and spin densities:
               1          2
     1  H    0.240628  -0.002727
     2  C    0.157810   0.310381
     3  C   -0.199219   0.346173
     4  C   -0.199219   0.346173
 Sum of Mulliken charges =   0.00000   1.00000

 Dipole moment (field-independent basis, Debye):
    X=              0.0000    Y=             -0.0000    Z=              2.3387  Tot=              2.3387
 Quadrupole moment (field-independent basis, Debye-Ang):
   XX=            -17.0842   YY=            -21.3656   ZZ=            -15.1100
   XY=             -0.0000   XZ=             -0.0000   YZ=              0.0000

  Exact polarizability:  22.259  -0.000  48.802   0.000  -0.000  32.316
 Approx polarizability:  32.004   0.000  73.602   0.000   0.000  51.393

                      1                      2                      3
                     B2                     B1                     B2
 Frequencies --    582.8783               873.4626               921.3552
 Red. masses --      7.3857                 1.3139                 1.2533
 Frc consts  --      1.4784                 0.5906                 0.6268
 IR Inten    --    544.1932                 4.2427                31.2764

                      4                      5                      6
                     A1                     A1                     A1
 Frequencies --   1235.2168              1616.4823              3222.6408
 Red. masses --      8.7430                 8.3920                 1.1104
 Frc consts  --      7.8595                12.9199                 6.7942
 IR Inten    --     27.1775                 0.3828                 0.2393

 - Thermochemistry -
 -------------------
 Temperature   298.150 Kelvin.  Pressure   1.00000 Atm.
 Atom     1 has atomic number  1 and mass   1.00783

 Molecular mass:    37.00783 amu.
 Principal axes and moments of inertia in atomic units:
                           1         2         3
     Eigenvalues --    39.68377  52.48965  92.17342
           X            0.00000   0.00000   1.00000
           Y            0.00000   1.00000   0.00000
           Z            1.00000   0.00000   0.00000
 This molecule is an asymmetric top.
 Rotational symmetry number  2.
 Rotational temperatures (Kelvin)      2.18260     1.65011     0.93968
 Rotational constants (GHZ):          45.47807    34.38280    19.57985
 Zero-point vibrational energy      50554.4 (Joules/Mol)
                                   12.08279 (Kcal/Mol)
 Warning -- explicit consideration of   1 degrees of freedom as
           vibrations may cause significant error
 Vibrational temperatures:    838.63  1256.72  1325.62  1777.20  2325.75
          (Kelvin)           4636.66

 Zero-point correction=                           0.019255 (Hartree/Particle)
 Thermal correction to Energy=                    0.022384
 Thermal correction to Enthalpy=                  0.023329
 Thermal correction to Gibbs Free Energy=        -0.003969
 Sum of electronic and zero-point Energies=           -114.701408
 Sum of electronic and thermal Energies=              -114.698279
 Sum of electronic and thermal Enthalpies=            -114.697335
 Sum of electronic and thermal Free Energies=         -114.724632

                     E (Thermal)             CV                S
                      KCal/Mol        Cal/Mol-Kelvin    Cal/Mol-Kelvin
 Total                   14.046              8.271             57.452
 Electronic               0.000              0.000              1.377
 Translational            0.889              2.981             36.755
 Rotational               0.889              2.981             18.513
 Vibrational             12.269              2.310              0.806
 Vibration     1          0.940              1.068              0.480

 Optimization completed.
    -- Stationary point found.
 Normal termination of Gaussian 09 at Sun Jun 19 04:44:36 2016.
