 Gaussian 09, Revision E.01,
 Gaussian 09:  EM64L-G09RevE.01 30-Nov-2015

 ---------------------------------------------
 #p b3lyp/6-311++G(3df,2p) freq symmetry=Loose
 ---------------------------------------------

 ---------
 b3lyp opt
 ---------
 Symbolic Z-matrix:
 Charge =  1 Multiplicity = 3

                         Standard orientation:
 ---------------------------------------------------------------------
 Center     Atomic      Atomic             Coordinates (Angstroms)
 Number     Number       Type             X           Y           Z
 ---------------------------------------------------------------------
      1          6           0       -0.000000   -0.000000   -1.387550
      2          6           0        0.000000    0.000000   -0.117676
      3          6           0       -0.000000   -0.000000    1.136358
      4          1           0        0.000000   -0.000000    2.213206
 ---------------------------------------------------------------------

 SCF Done:  E(UB3LYP) =  -114.320961967     A.U. after   16 cycles

 Unable to determine electronic state:  an orbital has unidentified symmetry.
 Alpha  occ. eigenvalues --  -10.61603 -10.55908 -10.50848  -1.12430  -1.02245
 Alpha  occ. eigenvalues --   -0.83482  -0.72165  -0.67199  -0.65170  -0.53753
 Alpha virt. eigenvalues --   -0.45153  -0.21209  -0.20087  -0.16635  -0.15275
 Alpha virt. eigenvalues --   -0.10493  -0.10295  -0.10053  -0.06440  -0.06060
 Alpha virt. eigenvalues --   -0.05820  -0.02172   0.00465   0.00556   0.01871

  Beta  occ. eigenvalues --  -10.58152 -10.55114 -10.50965  -1.10396  -0.98205
  Beta  occ. eigenvalues --   -0.82510  -0.64189  -0.62516
  Beta virt. eigenvalues --   -0.47759  -0.41736  -0.38721  -0.18252  -0.16904
  Beta virt. eigenvalues --   -0.16258  -0.14816  -0.09642  -0.09427  -0.08913
  Beta virt. eigenvalues --   -0.05810  -0.05607  -0.05258  -0.01696   0.00505

 Mulliken charges and spin densities:
               1          2
     1  C    0.099334   1.644212
     2  C    0.348409  -0.138405
     3  C    0.144663   0.505074
     4  H    0.407594  -0.010881
 Sum of Mulliken charges =   1.00000   2.00000

 Dipole moment (field-independent basis, Debye):
    X=              0.0000    Y=              0.0000    Z=              0.6920  Tot=              0.6920
 Quadrupole moment (field-independent basis, Debye-Ang):
   XX=            -14.1826   YY=            -15.7606   ZZ=             -0.3601
   XY=             -0.0000   XZ=              0.0000   YZ=             -0.0000

  Exact polarizability:  16.378   0.001  16.787  -0.023   0.003  43.486
 Approx polarizability:  21.896   0.000  21.002   0.000  -0.000 104.297

                      1                      2                      3
                     ?A                     ?A                     ?A
 Frequencies --    278.3938               330.8509               409.3348
 Red. masses --      4.8455                 3.0408                 1.6303
 Frc consts  --      0.2213                 0.1961                 0.1609
 IR Inten    --     16.3219                14.0108                54.0972

                      4                      5                      6
                     ?A                     SG                     SG
 Frequencies --    893.7725              1314.7867              1922.8732
 Red. masses --      1.3589                 7.5805                 8.3847
 Frc consts  --      0.6396                 7.7207                18.2658
 IR Inten    --      5.9226                 1.0196               323.3220

                      7
                     SG
 Frequencies --   3314.1844
 Red. masses --      1.1325
 Frc consts  --      7.3292
 IR Inten    --    167.7131

 - Thermochemistry -
 -------------------
 Temperature   298.150 Kelvin.  Pressure   1.00000 Atm.
 Atom     1 has atomic number  6 and mass  12.00000

 Molecular mass:    37.00783 amu.
 Principal axes and moments of inertia in atomic units:
                           1         2         3
     Eigenvalues --     0.00000 155.59751 155.59751
           X           -0.00000   0.32324   0.94632
           Y           -0.00000   0.94632  -0.32324
           Z            1.00000   0.00000   0.00000
 This molecule is a prolate symmetric top.
 Rotational symmetry number  1.
 Rotational temperature (Kelvin)      0.55665
 Rotational constant (GHZ):          11.598779
 Zero-point vibrational energy      50627.1 (Joules/Mol)
                                   12.10018 (Kcal/Mol)
 Warning -- explicit consideration of   3 degrees of freedom as
           vibrations may cause significant error
 Vibrational temperatures:    400.55   476.02   588.94  1285.94  1891.68
          (Kelvin)           2766.58  4768.37

 Zero-point correction=                           0.019283 (Hartree/Particle)
 Thermal correction to Energy=                    0.022841
 Thermal correction to Enthalpy=                  0.023785
 Thermal correction to Gibbs Free Energy=        -0.003445
 Sum of electronic and zero-point Energies=           -114.301679
 Sum of electronic and thermal Energies=              -114.298121
 Sum of electronic and thermal Enthalpies=            -114.297177
 Sum of electronic and thermal Free Energies=         -114.324407

                     E (Thermal)             CV                S
                      KCal/Mol        Cal/Mol-Kelvin    Cal/Mol-Kelvin
 Total                   14.333             10.411             57.311
 Electronic               0.000              0.000              2.183
 Translational            0.889              2.981             36.755
 Rotational               0.592              1.987             14.474
 Vibrational             12.852              5.443              3.899
 Vibration     1          0.679              1.713              1.544
 Vibration     2          0.713              1.614              1.256
 Vibration     3          0.774              1.450              0.929

 Optimization completed.
    -- Stationary point found.
 Normal termination of Gaussian 09 at Sun Jun 19 04:46:25 2016.
