 Gaussian 09, Revision E.01,
 Gaussian 09:  EM64L-G09RevE.01 30-Nov-2015

 -------------------------------------------------
 #p b3lyp/6-311++G(3df,2p) opt freq symmetry=Loose
 -------------------------------------------------

 ----------
 comentario
 ----------
 Symbolic Z-matrix:
 Charge =  0 Multiplicity = 4

 SCF Done:  E(UB3LYP) =  -114.616925329     A.U. after   13 cycles
 SCF Done:  E(UB3LYP) =  -114.617082199     A.U. after   11 cycles
 SCF Done:  E(UB3LYP) =  -114.617101823     A.U. after   11 cycles
 SCF Done:  E(UB3LYP) =  -114.617102782     A.U. after    9 cycles
 Optimization completed.
    -- Stationary point found.
 Normal termination of Gaussian 09 at Tue Jul  5 14:43:48 2016.

 ----------------------------------------------------------------------
 #P Geom=AllCheck Guess=TCheck SCRF=Check GenChk UB3LYP/6-311++G(3df,2p
 ) Freq
 ----------------------------------------------------------------------

 Structure from the checkpoint file:  "/scratch/sergio/HC3.q0.m4-3.bis.com-2105140/Gau-13577.chk"
 ----------
 comentario
 ----------
 Charge =  0 Multiplicity = 4

                         Standard orientation:
 ---------------------------------------------------------------------
 Center     Atomic      Atomic             Coordinates (Angstroms)
 Number     Number       Type             X           Y           Z
 ---------------------------------------------------------------------
      1          1           0       -0.770212    1.541984   -0.000000
      2          6           0        0.042790    0.813491   -0.000000
      3          6           0        0.042790   -0.535244    0.654204
      4          6           0        0.042790   -0.535244   -0.654204
 ---------------------------------------------------------------------

 SCF Done:  E(UB3LYP) =  -114.617102782     A.U. after    1 cycles

 The electronic state is 4-A".
 Alpha  occ. eigenvalues --  -10.27280 -10.27178 -10.24493  -0.93973  -0.62080
 Alpha  occ. eigenvalues --   -0.51736  -0.46616  -0.40258  -0.36078  -0.28181
 Alpha  occ. eigenvalues --   -0.21533
 Alpha virt. eigenvalues --   -0.04510   0.00277   0.03494   0.03538   0.05137
 Alpha virt. eigenvalues --    0.08449   0.08988   0.09238   0.09807   0.10262
 Alpha virt. eigenvalues --    0.11498   0.12929   0.15865   0.16470   0.17808

  Beta  occ. eigenvalues --  -10.25507 -10.25422 -10.22637  -0.90306  -0.57209
  Beta  occ. eigenvalues --   -0.43106  -0.42064  -0.35014
  Beta virt. eigenvalues --   -0.19989  -0.13324  -0.07070  -0.00670   0.00671
  Beta virt. eigenvalues --    0.03986   0.04241   0.05710   0.08880   0.09418
  Beta virt. eigenvalues --    0.09805   0.10704   0.12230   0.12576   0.13632

 Mulliken charges and spin densities:
               1          2
     1  H    0.148396   0.060814
     2  C   -0.227974   1.053520
     3  C    0.039789   0.942833
     4  C    0.039789   0.942833
 Sum of Mulliken charges =   0.00000   3.00000

 Dipole moment (field-independent basis, Debye):
    X=             -0.9440    Y=              0.4052    Z=              0.0000  Tot=              1.0273
 Quadrupole moment (field-independent basis, Debye-Ang):
   XX=            -17.9511   YY=            -17.7693   ZZ=            -17.6918
   XY=             -1.2612   XZ=              0.0000   YZ=             -0.0000

  Exact polarizability:  26.443  -1.580  38.344   0.000  -0.000  33.443
 Approx polarizability:  34.961  -1.434  55.972   0.000  -0.000  65.782

                      1                      2                      3
                     A"                     A"                     A'
 Frequencies --    536.9787               888.8310               927.9621
 Red. masses --      9.1468                 1.2277                 1.2506
 Frc consts  --      1.5539                 0.5715                 0.6345
 IR Inten    --     18.0193                57.9766                24.6239

                      4                      5                      6
                     A'                     A'                     A'
 Frequencies --   1029.8798              1640.7757              3033.2506
 Red. masses --      7.4938                11.7789                 1.0840
 Frc consts  --      4.6830                18.6833                 5.8763
 IR Inten    --      0.7402                11.3014                 8.5638

 - Thermochemistry -
 -------------------
 Temperature   298.150 Kelvin.  Pressure   1.00000 Atm.
 Atom     1 has atomic number  1 and mass   1.00783

 Molecular mass:    37.00783 amu.
 Principal axes and moments of inertia in atomic units:
                           1         2         3
     Eigenvalues --    38.63253  63.55771  98.28610
           X           -0.07790   0.00000   0.99696
           Y            0.99696  -0.00000   0.07790
           Z            0.00000   1.00000   0.00000
 This molecule is an asymmetric top.
 Rotational symmetry number  1.
 Rotational temperatures (Kelvin)      2.24199     1.36276     0.88124
 Rotational constants (GHZ):          46.71558    28.39532    18.36212
 Zero-point vibrational energy      48195.6 (Joules/Mol)
                                   11.51903 (Kcal/Mol)
 Warning -- explicit consideration of   1 degrees of freedom as
           vibrations may cause significant error
 Vibrational temperatures:    772.59  1278.83  1335.13  1481.77  2360.71
          (Kelvin)           4364.17

 Zero-point correction=                           0.018357 (Hartree/Particle)
 Thermal correction to Energy=                    0.021528
 Thermal correction to Enthalpy=                  0.022472
 Thermal correction to Gibbs Free Energy=        -0.006302
 Sum of electronic and zero-point Energies=           -114.598746
 Sum of electronic and thermal Energies=              -114.595575
 Sum of electronic and thermal Enthalpies=            -114.594631
 Sum of electronic and thermal Free Energies=         -114.623404

                     E (Thermal)             CV                S
                      KCal/Mol        Cal/Mol-Kelvin    Cal/Mol-Kelvin
 Total                   13.509              8.500             60.560
 Electronic               0.000              0.000              2.755
 Translational            0.889              2.981             36.755
 Rotational               0.889              2.981             20.118
 Vibrational             11.731              2.538              0.932
 Vibration     1          0.892              1.168              0.572

 Optimization completed.
    -- Stationary point found.
 Normal termination of Gaussian 09 at Tue Jul  5 14:47:27 2016.
