 Gaussian 09, Revision E.01,
 Gaussian 09:  EM64L-G09RevE.01 30-Nov-2015

 ---------------------------------------------
 #p b3lyp/6-311++G(3df,2p) freq symmetry=Loose
 ---------------------------------------------

 ---------
 b3lyp opt
 ---------
 Symbolic Z-matrix:
 Charge =  1 Multiplicity = 3

                         Standard orientation:
 ---------------------------------------------------------------------
 Center     Atomic      Atomic             Coordinates (Angstroms)
 Number     Number       Type             X           Y           Z
 ---------------------------------------------------------------------
      1          1           0       -1.134144   -1.747253    0.000000
      2          6           0       -0.282163   -1.079378    0.000000
      3          6           0       -0.000000    0.366791    0.000000
      4          6           0       -0.476426    1.649467    0.000000
      5          6           0        0.947613   -0.645671   -0.000000
 ---------------------------------------------------------------------

 SCF Done:  E(UB3LYP) =  -152.398328873     A.U. after   18 cycles

 The electronic state is 3-A".
 Alpha  occ. eigenvalues --  -10.56819 -10.56175 -10.55162 -10.54482  -1.25549
 Alpha  occ. eigenvalues --   -1.04146  -0.88661  -0.77752  -0.72944  -0.71455
 Alpha  occ. eigenvalues --   -0.59394  -0.58710  -0.54595
 Alpha virt. eigenvalues --   -0.38275  -0.32177  -0.25781  -0.16405  -0.16184
 Alpha virt. eigenvalues --   -0.13670  -0.11378  -0.09842  -0.08882  -0.07761
 Alpha virt. eigenvalues --   -0.05858  -0.05363  -0.04678  -0.03940  -0.02640

  Beta  occ. eigenvalues --  -10.55836 -10.55119 -10.54061 -10.53990  -1.24180
  Beta  occ. eigenvalues --   -0.99925  -0.87686  -0.74380  -0.69920  -0.68224
  Beta  occ. eigenvalues --   -0.56366
  Beta virt. eigenvalues --   -0.44980  -0.42447  -0.34824  -0.28945  -0.20555
  Beta virt. eigenvalues --   -0.16066  -0.15444  -0.13300  -0.10858  -0.09339
  Beta virt. eigenvalues --   -0.07744  -0.07123  -0.05276  -0.04496  -0.04217

 Mulliken charges and spin densities:
               1          2
     1  H    0.332187  -0.005651
     2  C    0.137451   0.185971
     3  C    0.552396   0.232585
     4  C   -0.225456   0.658555
     5  C    0.203422   0.928540
 Sum of Mulliken charges =   1.00000   2.00000

 Dipole moment (field-independent basis, Debye):
    X=             -0.7074    Y=             -2.5280    Z=              0.0000  Tot=              2.6251
 Quadrupole moment (field-independent basis, Debye-Ang):
   XX=            -16.3883   YY=            -14.5190   ZZ=            -19.9944
   XY=              2.2900   XZ=              0.0000   YZ=             -0.0000

  Exact polarizability:  37.341  -9.691  54.890   0.000  -0.000  23.962
 Approx polarizability:  63.530 -18.069  96.406  -0.000   0.000  33.095

                      1                      2                      3
                     A'                     A"                     A'
 Frequencies --    246.2423               334.8419               730.2567
 Red. masses --      6.5201                10.3918                10.2919
 Frc consts  --      0.2329                 0.6865                 3.2337
 IR Inten    --      4.2902                 4.4583                18.6860

                      4                      5                      6
                     A"                     A'                     A'
 Frequencies --    823.3457               918.8156               992.2889
 Red. masses --      1.3259                 1.6066                 3.2577
 Frc consts  --      0.5296                 0.7991                 1.8899
 IR Inten    --     35.6161                29.5196                28.3107

                      7                      8                      9
                     A'                     A'                     A'
 Frequencies --   1402.8150              1723.0468              3236.6523
 Red. masses --      9.3392                 7.6887                 1.1246
 Frc consts  --     10.8283                13.4493                 6.9412
 IR Inten    --     52.9471                28.9936               149.0429

 - Thermochemistry -
 -------------------
 Temperature   298.150 Kelvin.  Pressure   1.00000 Atm.
 Atom     1 has atomic number  1 and mass   1.00783

 Molecular mass:    49.00783 amu.
 Principal axes and moments of inertia in atomic units:
                           1         2         3
     Eigenvalues --    45.90920 211.16278 257.07198
           X           -0.24901   0.96850   0.00000
           Y            0.96850   0.24901   0.00000
           Z            0.00000   0.00000   1.00000
 This molecule is an asymmetric top.
 Rotational symmetry number  1.
 Rotational temperatures (Kelvin)      1.88663     0.41018     0.33692
 Rotational constants (GHZ):          39.31110     8.54668     7.02037
 Zero-point vibrational energy      62255.5 (Joules/Mol)
                                   14.87942 (Kcal/Mol)
 Warning -- explicit consideration of   2 degrees of freedom as
           vibrations may cause significant error
 Vibrational temperatures:    354.29   481.76  1050.68  1184.61  1321.97
          (Kelvin)           1427.68  2018.34  2479.08  4656.81

 Zero-point correction=                           0.023712 (Hartree/Particle)
 Thermal correction to Energy=                    0.027685
 Thermal correction to Enthalpy=                  0.028629
 Thermal correction to Gibbs Free Energy=        -0.002690
 Sum of electronic and zero-point Energies=           -152.374617
 Sum of electronic and thermal Energies=              -152.370644
 Sum of electronic and thermal Enthalpies=            -152.369700
 Sum of electronic and thermal Free Energies=         -152.401019

                     E (Thermal)             CV                S
                      KCal/Mol        Cal/Mol-Kelvin    Cal/Mol-Kelvin
 Total                   17.373             11.721             65.916
 Electronic               0.000              0.000              2.183
 Translational            0.889              2.981             37.592
 Rotational               0.889              2.981             22.437
 Vibrational             15.595              5.760              3.704
 Vibration     1          0.661              1.769              1.757
 Vibration     2          0.716              1.606              1.237

 Normal termination of Gaussian 09 at Mon Jun 20 13:39:26 2016.
