 Gaussian 09, Revision E.01,
 Gaussian 09:  EM64L-G09RevE.01 30-Nov-2015

 ---------------------------------------------
 #p b3lyp/6-311++G(3df,2p) freq symmetry=Loose
 ---------------------------------------------

 ---------
 b3lyp opt
 ---------
 Symbolic Z-matrix:
 Charge =  0 Multiplicity = 4

                         Standard orientation:
 ---------------------------------------------------------------------
 Center     Atomic      Atomic             Coordinates (Angstroms)
 Number     Number       Type             X           Y           Z
 ---------------------------------------------------------------------
      1          6           0       -0.342763    0.022169   -0.000185
      2          6           0        1.012765   -0.491380    0.000007
      3          1           0        1.692514   -1.330047    0.000143
      4          6           0        0.783552    0.825490    0.000062
      5          6           0       -1.735640   -0.134604    0.000092
 ---------------------------------------------------------------------

 SCF Done:  E(UB3LYP) =  -152.690766798     A.U. after   19 cycles

 The electronic state is 4-A.
 Alpha  occ. eigenvalues --  -10.28716 -10.27745 -10.27669 -10.21817  -0.98365
 Alpha  occ. eigenvalues --   -0.74594  -0.64185  -0.52076  -0.45642  -0.45102
 Alpha  occ. eigenvalues --   -0.34213  -0.32246  -0.26526  -0.20502
 Alpha virt. eigenvalues --   -0.08122  -0.01322  -0.00694   0.02706   0.03222
 Alpha virt. eigenvalues --    0.05064   0.06640   0.06809   0.07417   0.09229
 Alpha virt. eigenvalues --    0.09416   0.10308   0.12244   0.13705   0.14143

  Beta  occ. eigenvalues --  -10.27946 -10.27294 -10.26366 -10.19432  -0.96485
  Beta  occ. eigenvalues --   -0.68602  -0.62285  -0.47233  -0.42714  -0.42038
  Beta  occ. eigenvalues --   -0.26487
  Beta virt. eigenvalues --   -0.19954  -0.14664  -0.05512  -0.05198  -0.00982
  Beta virt. eigenvalues --    0.02480   0.03135   0.04032   0.07022   0.07025
  Beta virt. eigenvalues --    0.07293   0.07848   0.09693   0.10704   0.10763

 Mulliken charges and spin densities:
               1          2
     1  C    0.404967   0.168029
     2  C    0.092851   0.451688
     3  H    0.252447   0.013624
     4  C   -0.142195   0.788139
     5  C   -0.608070   1.578521
 Sum of Mulliken charges =  -0.00000   3.00000

 Dipole moment (field-independent basis, Debye):
    X=              3.9820    Y=             -1.4095    Z=             -0.0004  Tot=              4.2241
 Quadrupole moment (field-independent basis, Debye-Ang):
   XX=            -28.8489   YY=            -22.7555   ZZ=            -22.9124
   XY=             -2.7460   XZ=              0.0011   YZ=             -0.0005

  Exact polarizability: 126.647  29.838  56.755  -0.002  -0.002  32.278
 Approx polarizability: 206.130  41.465  82.835  -0.006  -0.001  44.360

                      1                      2                      3
                      A                      A                      A
 Frequencies --    337.7785               370.2323               405.8637
 Red. masses --      6.8267                 6.5106                 6.2652
 Frc consts  --      0.4589                 0.5258                 0.6081
 IR Inten    --     10.6048              1053.6131                17.2486

                      4                      5                      6
                      A                      A                      A
 Frequencies --    738.4503               875.9199               964.8447
 Red. masses --      1.3853                 2.1875                 2.4367
 Frc consts  --      0.4451                 0.9889                 1.3365
 IR Inten    --     28.8451                18.9435                39.7183

                      7                      8                      9
                      A                      A                      A
 Frequencies --   1357.4298              1610.6429              3214.9195
 Red. masses --      9.3240                 8.8616                 1.1080
 Frc consts  --     10.1225                13.5444                 6.7476
 IR Inten    --    111.4887                88.4488                 2.8117

 - Thermochemistry -
 -------------------
 Temperature   298.150 Kelvin.  Pressure   1.00000 Atm.
 Atom     1 has atomic number  6 and mass  12.00000

 Molecular mass:    49.00783 amu.
 Principal axes and moments of inertia in atomic units:
                           1         2         3
     Eigenvalues --    46.19219 214.88743 261.07961
           X            0.99883  -0.04829   0.00000
           Y            0.04829   0.99883  -0.00002
           Z           -0.00000   0.00002   1.00000
 This molecule is an asymmetric top.
 Rotational symmetry number  1.
 Rotational temperatures (Kelvin)      1.87508     0.40307     0.33175
 Rotational constants (GHZ):          39.07027     8.39854     6.91261
 Zero-point vibrational energy      59072.1 (Joules/Mol)
                                   14.11857 (Kcal/Mol)
 Warning -- explicit consideration of   3 degrees of freedom as
           vibrations may cause significant error
 Vibrational temperatures:    485.99   532.68   583.95  1062.46  1260.25
          (Kelvin)           1388.19  1953.04  2317.35  4625.55

 Zero-point correction=                           0.022499 (Hartree/Particle)
 Thermal correction to Energy=                    0.026561
 Thermal correction to Enthalpy=                  0.027506
 Thermal correction to Gibbs Free Energy=        -0.004148
 Sum of electronic and zero-point Energies=           -152.668267
 Sum of electronic and thermal Energies=              -152.664205
 Sum of electronic and thermal Enthalpies=            -152.663261
 Sum of electronic and thermal Free Energies=         -152.694914

                     E (Thermal)             CV                S
                      KCal/Mol        Cal/Mol-Kelvin    Cal/Mol-Kelvin
 Total                   16.668             12.434             66.620
 Electronic               0.000              0.000              2.755
 Translational            0.889              2.981             37.592
 Rotational               0.889              2.981             22.476
 Vibrational             14.890              6.472              3.797
 Vibration     1          0.718              1.600              1.223
 Vibration     2          0.742              1.533              1.079
 Vibration     3          0.771              1.457              0.941

 Optimization completed.
    -- Stationary point found.
 Normal termination of Gaussian 09 at Mon Jun 20 13:35:38 2016.
