 Gaussian 09, Revision E.01,
 Gaussian 09:  EM64L-G09RevE.01 30-Nov-2015

 ---------------------------------------------
 #p b3lyp/6-311++G(3df,2p) freq symmetry=Loose
 ---------------------------------------------

 ---------
 b3lyp opt
 ---------
 Symbolic Z-matrix:
 Charge =  0 Multiplicity = 4

                         Standard orientation:
 ---------------------------------------------------------------------
 Center     Atomic      Atomic             Coordinates (Angstroms)
 Number     Number       Type             X           Y           Z
 ---------------------------------------------------------------------
      1          6           0        0.997911    0.000166    0.131208
      2          1           0        2.061266   -0.001912   -0.029096
      3          6           0       -1.141641    0.000095    0.128211
      4          6           0       -0.100250   -0.882534   -0.127264
      5          6           0       -0.099564    0.882593   -0.127305
 ---------------------------------------------------------------------

 SCF Done:  E(UB3LYP) =  -152.714352553     A.U. after   15 cycles

 The electronic state is 4-A.
 Alpha  occ. eigenvalues --  -10.26205 -10.26193 -10.26018 -10.25316  -0.98552
 Alpha  occ. eigenvalues --   -0.71384  -0.60987  -0.53717  -0.45884  -0.44363
 Alpha  occ. eigenvalues --   -0.37062  -0.32240  -0.24766  -0.23104
 Alpha virt. eigenvalues --   -0.06746  -0.00999   0.00308   0.03631   0.03879
 Alpha virt. eigenvalues --    0.04461   0.07309   0.07870   0.08935   0.09694
 Alpha virt. eigenvalues --    0.10029   0.11648   0.12349   0.12624   0.14337

  Beta  occ. eigenvalues --  -10.25207 -10.25199 -10.23997 -10.23654  -0.95815
  Beta  occ. eigenvalues --   -0.67336  -0.57397  -0.50609  -0.41956  -0.39336
  Beta  occ. eigenvalues --   -0.30708
  Beta virt. eigenvalues --   -0.16681  -0.10877  -0.10404  -0.04904   0.00164
  Beta virt. eigenvalues --    0.03550   0.04142   0.04692   0.05558   0.07977
  Beta virt. eigenvalues --    0.08132   0.09747   0.10576   0.11352   0.12249

 Mulliken charges and spin densities:
               1          2
     1  C   -0.183230   0.786605
     2  H    0.178617   0.014777
     3  C   -0.063322   1.367065
     4  C    0.033513   0.415499
     5  C    0.034423   0.416054
 Sum of Mulliken charges =  -0.00000   3.00000

 Dipole moment (field-independent basis, Debye):
    X=              1.2550    Y=             -0.0002    Z=              0.4770  Tot=              1.3426
 Quadrupole moment (field-independent basis, Debye-Ang):
   XX=            -20.4096   YY=            -25.7949   ZZ=            -23.9147
   XY=             -0.0025   XZ=             -0.3191   YZ=             -0.0001

  Exact polarizability:  49.428   0.002  47.947  -0.600   0.001  28.775
 Approx polarizability:  84.576   0.027  96.096  -0.690  -0.000  40.918

                      1                      2                      3
                      A                      A                      A
 Frequencies --    564.7748               620.7658               679.5107
 Red. masses --     11.5540                 1.2140                10.4469
 Frc consts  --      2.1714                 0.2756                 2.8421
 IR Inten    --      9.3875                39.6651                18.0282

                      4                      5                      6
                      A                      A                      A
 Frequencies --    880.9105              1090.2625              1161.0544
 Red. masses --      3.3766                 1.6635                 6.1378
 Frc consts  --      1.5438                 1.1650                 4.8749
 IR Inten    --     35.4851                 0.0054                 0.2115

                      7                      8                      9
                      A                      A                      A
 Frequencies --   1180.0622              1368.8400              3262.6476
 Red. masses --      6.9633                10.2963                 1.0985
 Frc consts  --      5.7131                11.3668                 6.8897
 IR Inten    --      6.8706                 0.7970                 1.0301

 - Thermochemistry -
 -------------------
 Temperature   298.150 Kelvin.  Pressure   1.00000 Atm.
 Atom     1 has atomic number  6 and mass  12.00000

 Molecular mass:    49.00783 amu.
 Principal axes and moments of inertia in atomic units:
                           1         2         3
     Eigenvalues --    69.59090 117.20176 181.12614
           X            1.00000  -0.00030  -0.00194
           Y            0.00030   1.00000   0.00000
           Z            0.00194  -0.00000   1.00000
 This molecule is an asymmetric top.
 Rotational symmetry number  1.
 Rotational temperatures (Kelvin)      1.24461     0.73901     0.47820
 Rotational constants (GHZ):          25.93358    15.39858     9.96400
 Zero-point vibrational energy      64651.2 (Joules/Mol)
                                   15.45200 (Kcal/Mol)
 Warning -- explicit consideration of   2 degrees of freedom as
           vibrations may cause significant error
 Vibrational temperatures:    812.58   893.14   977.66  1267.43  1568.64
          (Kelvin)           1670.50  1697.84  1969.45  4694.22

 Zero-point correction=                           0.024624 (Hartree/Particle)
 Thermal correction to Energy=                    0.028037
 Thermal correction to Enthalpy=                  0.028982
 Thermal correction to Gibbs Free Energy=        -0.001358
 Sum of electronic and zero-point Energies=           -152.689728
 Sum of electronic and thermal Energies=              -152.686315
 Sum of electronic and thermal Enthalpies=            -152.685371
 Sum of electronic and thermal Free Energies=         -152.715711

                     E (Thermal)             CV                S
                      KCal/Mol        Cal/Mol-Kelvin    Cal/Mol-Kelvin
 Total                   17.594             10.309             63.855
 Electronic               0.000              0.000              2.755
 Translational            0.889              2.981             37.592
 Rotational               0.889              2.981             21.918
 Vibrational             15.816              4.347              1.590
 Vibration     1          0.921              1.107              0.514
 Vibration     2          0.981              0.988              0.415

 Optimization completed.
    -- Stationary point found.
 Normal termination of Gaussian 09 at Mon Jun 20 13:35:41 2016.
