 Gaussian 09, Revision E.01,
 Gaussian 09:  EM64L-G09RevE.01 30-Nov-2015

 -------------------------------------------------
 #p b3lyp/6-311++G(3df,2p) opt freq symmetry=Loose
 -------------------------------------------------

 ---------
 b3lyp opt
 ---------
 Symbolic Z-matrix:
 Charge =  1 Multiplicity = 3

 SCF Done:  E(UB3LYP) =  -152.384745138     A.U. after   14 cycles
 SCF Done:  E(UB3LYP) =  -152.384823116     A.U. after   10 cycles
 SCF Done:  E(UB3LYP) =  -152.384823602     A.U. after    8 cycles
 Optimization completed.
    -- Stationary point found.
 Normal termination of Gaussian 09 at Tue Jul  5 15:06:22 2016.

 ----------------------------------------------------------------------
 #P Geom=AllCheck Guess=TCheck SCRF=Check GenChk UB3LYP/6-311++G(3df,2p
 ) Freq
 ----------------------------------------------------------------------

 Structure from the checkpoint file:  "/scratch/sergio/HC4.q1.m3-4.bis.com-2105187/Gau-15536.chk"
 ---------
 b3lyp opt
 ---------
 Charge =  1 Multiplicity = 3

                         Standard orientation:
 ---------------------------------------------------------------------
 Center     Atomic      Atomic             Coordinates (Angstroms)
 Number     Number       Type             X           Y           Z
 ---------------------------------------------------------------------
      1          1           0        0.000000   -0.000000    2.587420
      2          6           0        0.000000   -0.000000    1.507732
      3          6           0        0.000000   -0.000000    0.203028
      4          6           0        0.000000    0.646931   -1.070999
      5          6           0       -0.000000   -0.646931   -1.070999
 ---------------------------------------------------------------------

 SCF Done:  E(UB3LYP) =  -152.384823602     A.U. after    1 cycles

 The electronic state is 3-A2.
 Alpha  occ. eigenvalues --  -10.57970 -10.57789 -10.52505 -10.52385  -1.23803
 Alpha  occ. eigenvalues --   -1.09079  -0.86078  -0.77435  -0.74146  -0.70966
 Alpha  occ. eigenvalues --   -0.59074  -0.57532  -0.56802
 Alpha virt. eigenvalues --   -0.39775  -0.27110  -0.27000  -0.18170  -0.15414
 Alpha virt. eigenvalues --   -0.11406  -0.11398  -0.10970  -0.07696  -0.07271
 Alpha virt. eigenvalues --   -0.06681  -0.05590  -0.03839  -0.03427  -0.03309

  Beta  occ. eigenvalues --  -10.58095 -10.55726 -10.51615 -10.51496  -1.22924
  Beta  occ. eigenvalues --   -1.03840  -0.83966  -0.75063  -0.72701  -0.67542
  Beta  occ. eigenvalues --   -0.53285
  Beta virt. eigenvalues --   -0.47253  -0.44524  -0.34056  -0.23461  -0.23330
  Beta virt. eigenvalues --   -0.16517  -0.14868  -0.11015  -0.10721  -0.10106
  Beta virt. eigenvalues --   -0.07215  -0.07005  -0.06054  -0.05118  -0.03188

 Mulliken charges and spin densities:
               1          2
     1  H    0.418253  -0.030802
     2  C    0.262400   1.237218
     3  C    0.345680  -0.025367
     4  C   -0.013166   0.409476
     5  C   -0.013166   0.409476
 Sum of Mulliken charges =   1.00000   2.00000

 Dipole moment (field-independent basis, Debye):
    X=              0.0000    Y=             -0.0000    Z=              3.3413  Tot=              3.3413
 Quadrupole moment (field-independent basis, Debye-Ang):
   XX=            -19.9382   YY=            -20.9972   ZZ=             -4.9790
   XY=             -0.0000   XZ=             -0.0000   YZ=              0.0000

  Exact polarizability:  23.580   0.000   9.381  -0.000  -0.000  57.586
 Approx polarizability:  32.141   0.000 100.894   0.000  -0.000 116.010

                      1                      2                      3
                     B2                     B1                     B1
 Frequencies --     97.0316               338.9248               404.3310
 Red. masses --      2.8867                 1.1496                11.9142
 Frc consts  --      0.0160                 0.0778                 1.1476
 IR Inten    --      5.9124                49.8887                 0.7838

                      4                      5                      6
                     B2                     B2                     A1
 Frequencies --    582.6861               897.5589               944.2503
 Red. masses --      1.9586                 5.1410                 8.2226
 Frc consts  --      0.3918                 2.4402                 4.3195
 IR Inten    --     22.4788               151.5392                11.4283

                      7                      8                      9
                     A1                     A1                     A1
 Frequencies --   1578.7580              1666.2223              3270.0586
 Red. masses --      8.4526                11.4494                 1.1157
 Frc consts  --     12.4129                18.7284                 7.0294
 IR Inten    --      0.4298                 0.0009               325.1113

 - Thermochemistry -
 -------------------
 Temperature   298.150 Kelvin.  Pressure   1.00000 Atm.
 Atom     1 has atomic number  1 and mass   1.00783

 Molecular mass:    49.00783 amu.
 Principal axes and moments of inertia in atomic units:
                           1         2         3
     Eigenvalues --    35.86949 221.10354 256.97303
           X            0.00000   0.00000   1.00000
           Y            0.00000   1.00000   0.00000
           Z            1.00000   0.00000   0.00000
 This molecule is an asymmetric top.
 Rotational symmetry number  2.
 Rotational temperatures (Kelvin)      2.41469     0.39173     0.33705
 Rotational constants (GHZ):          50.31411     8.16243     7.02308
 Zero-point vibrational energy      58496.3 (Joules/Mol)
                                   13.98096 (Kcal/Mol)
 Warning -- explicit consideration of   4 degrees of freedom as
           vibrations may cause significant error
 Vibrational temperatures:    139.61   487.64   581.74   838.35  1291.39
          (Kelvin)           1358.56  2271.48  2397.32  4704.88

 Zero-point correction=                           0.022280 (Hartree/Particle)
 Thermal correction to Energy=                    0.026808
 Thermal correction to Enthalpy=                  0.027752
 Thermal correction to Gibbs Free Energy=        -0.004113
 Sum of electronic and zero-point Energies=           -152.362544
 Sum of electronic and thermal Energies=              -152.358016
 Sum of electronic and thermal Enthalpies=            -152.357072
 Sum of electronic and thermal Free Energies=         -152.388937

                     E (Thermal)             CV                S
                      KCal/Mol        Cal/Mol-Kelvin    Cal/Mol-Kelvin
 Total                   16.822             13.084             67.065
 Electronic               0.000              0.000              2.183
 Translational            0.889              2.981             37.592
 Rotational               0.889              2.981             20.860
 Vibrational             15.045              7.123              6.430
 Vibration     1          0.603              1.951              3.513
 Vibration     2          0.719              1.598              1.217
 Vibration     3          0.770              1.461              0.947
 Vibration     4          0.940              1.069              0.480

 Optimization completed.
    -- Stationary point found.
 Normal termination of Gaussian 09 at Tue Jul  5 15:09:31 2016.
