 Gaussian 09, Revision E.01,
 Gaussian 09:  EM64L-G09RevE.01 30-Nov-2015

 ---------------------------------------------
 #p b3lyp/6-311++G(3df,2p) freq symmetry=Loose
 ---------------------------------------------

 ---------
 b3lyp opt
 ---------
 Symbolic Z-matrix:
 Charge =  0 Multiplicity = 2

                         Standard orientation:
 ---------------------------------------------------------------------
 Center     Atomic      Atomic             Coordinates (Angstroms)
 Number     Number       Type             X           Y           Z
 ---------------------------------------------------------------------
      1          1           0       -1.272028   -1.546521    0.000000
      2          6           0       -0.360103   -0.975934    0.000000
      3          6           0       -0.000000    0.382383    0.000000
      4          6           0        0.960284   -0.789732   -0.000000
      5          6           0       -0.388176    1.641037    0.000000
 ---------------------------------------------------------------------

 SCF Done:  E(UB3LYP) =  -152.769892968     A.U. after   18 cycles

 The electronic state is 2-A".
 Alpha  occ. eigenvalues --  -10.27461 -10.26166 -10.25952 -10.25754  -0.96498
 Alpha  occ. eigenvalues --   -0.77754  -0.62994  -0.51002  -0.44449  -0.41188
 Alpha  occ. eigenvalues --   -0.33093  -0.29682  -0.28965
 Alpha virt. eigenvalues --   -0.12118  -0.05765  -0.00947  -0.00315   0.03095
 Alpha virt. eigenvalues --    0.03343   0.05270   0.06781   0.06827   0.07693
 Alpha virt. eigenvalues --    0.08918   0.09525   0.10812   0.12578   0.13558

  Beta  occ. eigenvalues --  -10.27164 -10.25838 -10.25625 -10.25210  -0.95850
  Beta  occ. eigenvalues --   -0.74744  -0.62627  -0.50467  -0.41567  -0.40758
  Beta  occ. eigenvalues --   -0.31543  -0.29340
  Beta virt. eigenvalues --   -0.17872  -0.11138  -0.04331  -0.00889   0.02065
  Beta virt. eigenvalues --    0.03235   0.03473   0.06840   0.06873   0.06905
  Beta virt. eigenvalues --    0.07727   0.09631   0.09831   0.11116   0.12595

 Mulliken charges and spin densities:
               1          2
     1  H    0.264174  -0.006946
     2  C    0.209426   0.261814
     3  C    0.653095   0.114428
     4  C   -0.404384   0.093420
     5  C   -0.722311   0.537283
 Sum of Mulliken charges =  -0.00000   1.00000

 Dipole moment (field-independent basis, Debye):
    X=             -2.0753    Y=             -2.4961    Z=              0.0000  Tot=              3.2461
 Quadrupole moment (field-independent basis, Debye-Ang):
   XX=            -24.9859   YY=            -26.7238   ZZ=            -23.0005
   XY=              5.0706   XZ=             -0.0000   YZ=             -0.0000

  Exact polarizability:  42.339  -8.841  64.559  -0.000  -0.000  31.241
 Approx polarizability:  70.920 -25.752 130.635  -0.000   0.000  44.312

                      1                      2                      3
                     A'                     A"                     A'
 Frequencies --    190.3602               357.8670               678.0901
 Red. masses --      6.7898                 8.9498                10.9766
 Frc consts  --      0.1450                 0.6753                 2.9737
 IR Inten    --     11.4899                11.9721                 0.4130

                      4                      5                      6
                     A"                     A'                     A'
 Frequencies --    767.6187               924.7048              1001.2723
 Red. masses --      1.3576                 2.2314                 2.0170
 Frc consts  --      0.4713                 1.1242                 1.1914
 IR Inten    --     35.2448                 5.1105                 6.8638

                      7                      8                      9
                     A'                     A'                     A'
 Frequencies --   1405.2207              1695.2708              3274.1476
 Red. masses --      8.9109                 8.5401                 1.1129
 Frc consts  --     10.3671                14.4608                 7.0291
 IR Inten    --     71.3097               103.7407                22.1849

 - Thermochemistry -
 -------------------
 Temperature   298.150 Kelvin.  Pressure   1.00000 Atm.
 Atom     1 has atomic number  1 and mass   1.00783

 Molecular mass:    49.00783 amu.
 Principal axes and moments of inertia in atomic units:
                           1         2         3
     Eigenvalues --    47.70975 207.17415 254.88390
           X           -0.24444   0.96966   0.00000
           Y            0.96966   0.24444   0.00000
           Z            0.00000   0.00000   1.00000
 This molecule is an asymmetric top.
 Rotational symmetry number  1.
 Rotational temperatures (Kelvin)      1.81543     0.41807     0.33982
 Rotational constants (GHZ):          37.82751     8.71123     7.08064
 Zero-point vibrational energy      61575.1 (Joules/Mol)
                                   14.71680 (Kcal/Mol)
 Warning -- explicit consideration of   2 degrees of freedom as
           vibrations may cause significant error
 Vibrational temperatures:    273.89   514.89   975.62  1104.43  1330.44
          (Kelvin)           1440.61  2021.80  2439.11  4710.76

 Zero-point correction=                           0.023453 (Hartree/Particle)
 Thermal correction to Energy=                    0.027519
 Thermal correction to Enthalpy=                  0.028463
 Thermal correction to Gibbs Free Energy=        -0.002698
 Sum of electronic and zero-point Energies=           -152.746440
 Sum of electronic and thermal Energies=              -152.742374
 Sum of electronic and thermal Enthalpies=            -152.741430
 Sum of electronic and thermal Free Energies=         -152.772591

                     E (Thermal)             CV                S
                      KCal/Mol        Cal/Mol-Kelvin    Cal/Mol-Kelvin
 Total                   17.269             11.935             65.584
 Electronic               0.000              0.000              1.377
 Translational            0.889              2.981             37.592
 Rotational               0.889              2.981             22.448
 Vibrational             15.491              5.974              4.166
 Vibration     1          0.634              1.853              2.224
 Vibration     2          0.733              1.559              1.131

 Optimization completed.
    -- Stationary point found.
 Normal termination of Gaussian 09 at Wed Jul 20 15:41:13 2016.
