 Gaussian 09, Revision E.01,
 Gaussian 09:  EM64L-G09RevE.01 30-Nov-2015

 ---------------------------------------------
 #p b3lyp/6-311++G(3df,2p) freq symmetry=Loose
 ---------------------------------------------

 ---------
 b3lyp opt
 ---------
 Symbolic Z-matrix:
 Charge =  3 Multiplicity = 3

                         Standard orientation:
 ---------------------------------------------------------------------
 Center     Atomic      Atomic             Coordinates (Angstroms)
 Number     Number       Type             X           Y           Z
 ---------------------------------------------------------------------
      1          1           0        1.609598   -0.748124   -0.000000
      2          6           0        0.468847   -0.543397   -0.000000
      3          6           0       -0.000000    0.705365   -0.000000
      4          6           0       -0.389340    1.969898   -0.000000
      5          6           0       -0.347773   -2.007178    0.000000
 ---------------------------------------------------------------------

 SCF Done:  E(UB3LYP) =  -150.788538250     A.U. after   25 cycles

 The electronic state is 3-A'.
 Alpha  occ. eigenvalues --  -11.25276 -11.20372 -11.10376 -11.08561  -1.65546
 Alpha  occ. eigenvalues --   -1.56481  -1.43727  -1.27419  -1.21684  -1.17182
 Alpha  occ. eigenvalues --   -1.15798  -1.11513
 Alpha virt. eigenvalues --   -0.99221  -0.93747  -0.89722  -0.84861  -0.72100
 Alpha virt. eigenvalues --   -0.66154  -0.56120  -0.52962  -0.48974  -0.45632
 Alpha virt. eigenvalues --   -0.44221  -0.43914  -0.42479  -0.39703  -0.37973

  Beta  occ. eigenvalues --  -11.25060 -11.16571 -11.09519 -11.08970  -1.62873
  Beta  occ. eigenvalues --   -1.53203  -1.42778  -1.26538  -1.14297  -1.13487
  Beta virt. eigenvalues --   -0.98255  -0.97863  -0.95324  -0.93195  -0.88125
  Beta virt. eigenvalues --   -0.76376  -0.69243  -0.64712  -0.54865  -0.52062
  Beta virt. eigenvalues --   -0.47290  -0.44995  -0.44316  -0.43332  -0.42294

 Mulliken charges and spin densities:
               1          2
     1  H    0.348916   0.040632
     2  C    0.139864  -0.229589
     3  C    0.814788   0.531752
     4  C    0.734692   1.542158
     5  C    0.961740   0.115047
 Sum of Mulliken charges =   3.00000   2.00000

 Dipole moment (field-independent basis, Debye):
    X=              0.0284    Y=             -0.6528    Z=             -0.0000  Tot=              0.6534
 Quadrupole moment (field-independent basis, Debye-Ang):
   XX=             -8.8829   YY=             25.3524   ZZ=            -15.3191
   XY=             -3.8604   XZ=              0.0000   YZ=             -0.0000

  Exact polarizability:  23.358  -3.570  66.193  -0.000   0.000  17.597
 Approx polarizability:  39.210 -13.251 162.532  -0.000  -0.000  25.493

                      1                      2                      3
                     A'                     A"                     A'
 Frequencies --    221.7451               310.2201               462.3537
 Red. masses --      9.4444                 4.4742                11.5182
 Frc consts  --      0.2736                 0.2537                 1.4507
 IR Inten    --      3.3831                25.0783               184.3863

                      4                      5                      6
                     A'                     A"                     A'
 Frequencies --    560.5321               673.0526               974.1489
 Red. masses --      6.1586                 1.8478                 1.2612
 Frc consts  --      1.1401                 0.4932                 0.7052
 IR Inten    --    131.3519                11.5968                12.9567

                      7                      8                      9
                     A'                     A'                     A'
 Frequencies --   1087.8666              1756.5616              2437.9606
 Red. masses --      5.6361                11.5099                 1.0811
 Frc consts  --      3.9299                20.9241                 3.7859
 IR Inten    --    380.0606               143.5105               693.7475

 - Thermochemistry -
 -------------------
 Temperature   298.150 Kelvin.  Pressure   1.00000 Atm.
 Atom     1 has atomic number  1 and mass   1.00783

 Molecular mass:    49.00783 amu.
 Principal axes and moments of inertia in atomic units:
                           1         2         3
     Eigenvalues --    29.28717 375.83244 405.11961
           X           -0.05235   0.99863   0.00000
           Y            0.99863   0.05235   0.00000
           Z           -0.00000  -0.00000   1.00000
 This molecule is an asymmetric top.
 Rotational symmetry number  1.
 Rotational temperatures (Kelvin)      2.95740     0.23046     0.21380
 Rotational constants (GHZ):          61.62224     4.80198     4.45484
 Zero-point vibrational energy      50748.2 (Joules/Mol)
                                   12.12912 (Kcal/Mol)
 Warning -- explicit consideration of   4 degrees of freedom as
           vibrations may cause significant error
 Vibrational temperatures:    319.04   446.34   665.22   806.48   968.37
          (Kelvin)           1401.58  1565.20  2527.30  3507.68

 Zero-point correction=                           0.019329 (Hartree/Particle)
 Thermal correction to Energy=                    0.023726
 Thermal correction to Enthalpy=                  0.024670
 Thermal correction to Gibbs Free Energy=        -0.007588
 Sum of electronic and zero-point Energies=           -150.769209
 Sum of electronic and thermal Energies=              -150.764813
 Sum of electronic and thermal Enthalpies=            -150.763868
 Sum of electronic and thermal Free Energies=         -150.796126

                     E (Thermal)             CV                S
                      KCal/Mol        Cal/Mol-Kelvin    Cal/Mol-Kelvin
 Total                   14.888             13.485             67.892
 Electronic               0.000              0.000              2.183
 Translational            0.889              2.981             37.592
 Rotational               0.889              2.981             23.015
 Vibrational             13.111              7.523              5.101
 Vibration     1          0.648              1.808              1.945
 Vibration     2          0.699              1.654              1.361
 Vibration     3          0.820              1.334              0.759
 Vibration     4          0.916              1.117              0.523

 Optimization completed.
    -- Stationary point found.
 Normal termination of Gaussian 09 at Mon Jun 20 13:47:31 2016.
