 Gaussian 09, Revision E.01,
 Gaussian 09:  EM64L-G09RevE.01 30-Nov-2015

 ---------------------------------------------
 #p b3lyp/6-311++G(3df,2p) freq symmetry=Loose
 ---------------------------------------------

 ---------
 b3lyp opt
 ---------
 Symbolic Z-matrix:
 Charge =  3 Multiplicity = 3

                         Standard orientation:
 ---------------------------------------------------------------------
 Center     Atomic      Atomic             Coordinates (Angstroms)
 Number     Number       Type             X           Y           Z
 ---------------------------------------------------------------------
      1          1           0       -0.000000    0.000000    2.739470
      2          6           0       -0.000000    0.000000    1.568509
      3          6           0       -0.000000    0.000000    0.179971
      4          6           0        0.000000    0.682800   -1.102529
      5          6           0       -0.000000   -0.682800   -1.102529
 ---------------------------------------------------------------------

 SCF Done:  E(UB3LYP) =  -150.813783285     A.U. after   16 cycles

 The electronic state is 3-B2.
 Alpha  occ. eigenvalues --  -11.24830 -11.20174 -11.20102 -11.15497  -1.80906
 Alpha  occ. eigenvalues --   -1.63468  -1.37479  -1.36258  -1.30168  -1.23836
 Alpha  occ. eigenvalues --   -1.18420  -1.15851
 Alpha virt. eigenvalues --   -1.03972  -0.98536  -0.85430  -0.81524  -0.71587
 Alpha virt. eigenvalues --   -0.64420  -0.58478  -0.53294  -0.49301  -0.46678
 Alpha virt. eigenvalues --   -0.46293  -0.43688  -0.42453  -0.41537  -0.40721

  Beta  occ. eigenvalues --  -11.23984 -11.18141 -11.18085 -11.15648  -1.79424
  Beta  occ. eigenvalues --   -1.61075  -1.36299  -1.30621  -1.28107  -1.22810
  Beta virt. eigenvalues --   -1.02510  -1.00851  -0.97991  -0.90200  -0.81071
  Beta virt. eigenvalues --   -0.80350  -0.70013  -0.60196  -0.57624  -0.52496
  Beta virt. eigenvalues --   -0.47997  -0.46249  -0.46109  -0.43148  -0.40435

 Mulliken charges and spin densities:
               1          2
     1  H    0.564340  -0.008359
     2  C    0.665985   0.495963
     3  C    0.399931  -0.179870
     4  C    0.684872   0.846133
     5  C    0.684872   0.846133
 Sum of Mulliken charges =   3.00000   2.00000

 Dipole moment (field-independent basis, Debye):
    X=             -0.0000    Y=              0.0000    Z=              3.8483  Tot=              3.8483
 Quadrupole moment (field-independent basis, Debye-Ang):
   XX=            -14.7881   YY=            -10.9287   ZZ=             20.8944
   XY=              0.0000   XZ=              0.0000   YZ=             -0.0000

  Exact polarizability:  15.789  -0.000  21.548   0.000   0.000  52.002
 Approx polarizability:  23.416   0.000  41.921   0.000  -0.000 130.381

                      1                      2                      3
                     B2                     B1                     B2
 Frequencies --    308.6867               334.8585               525.8785
 Red. masses --      3.0705                 3.5988                 6.1048
 Frc consts  --      0.1724                 0.2378                 0.9947
 IR Inten    --     51.2697                32.4762                55.7998

                      4                      5                      6
                     B2                     A1                     B1
 Frequencies --    735.1055               820.1357               869.3678
 Red. masses --      1.7901                 7.3817                 1.4894
 Frc consts  --      0.5699                 2.9254                 0.6632
 IR Inten    --      0.4691                28.7391                 7.7592

                      7                      8                      9
                     A1                     A1                     A1
 Frequencies --   1356.1435              1418.6754              2439.5855
 Red. masses --     11.9912                 7.5285                 1.1470
 Frc consts  --     12.9934                 8.9274                 4.0220
 IR Inten    --     43.2886               456.7524              1016.1848

 - Thermochemistry -
 -------------------
 Temperature   298.150 Kelvin.  Pressure   1.00000 Atm.
 Atom     1 has atomic number  1 and mass   1.00783

 Molecular mass:    49.00783 amu.
 Principal axes and moments of inertia in atomic units:
                           1         2         3
     Eigenvalues --    39.95723 237.46760 277.42483
           X            0.00000   0.00000   1.00000
           Y           -0.00000   1.00000  -0.00000
           Z            1.00000   0.00000  -0.00000
 This molecule is an asymmetric top.
 Rotational symmetry number  2.
 Rotational temperatures (Kelvin)      2.16766     0.36474     0.31221
 Rotational constants (GHZ):          45.16683     7.59995     6.50533
 Zero-point vibrational energy      52686.2 (Joules/Mol)
                                   12.59229 (Kcal/Mol)
 Warning -- explicit consideration of   3 degrees of freedom as
           vibrations may cause significant error
 Vibrational temperatures:    444.13   481.79   756.62  1057.65  1179.99
          (Kelvin)           1250.82  1951.19  2041.15  3510.01

 Zero-point correction=                           0.020067 (Hartree/Particle)
 Thermal correction to Energy=                    0.024142
 Thermal correction to Enthalpy=                  0.025086
 Thermal correction to Gibbs Free Energy=        -0.005677
 Sum of electronic and zero-point Energies=           -150.793716
 Sum of electronic and thermal Energies=              -150.789642
 Sum of electronic and thermal Enthalpies=            -150.788697
 Sum of electronic and thermal Free Energies=         -150.819461

                     E (Thermal)             CV                S
                      KCal/Mol        Cal/Mol-Kelvin    Cal/Mol-Kelvin
 Total                   15.149             12.566             64.747
 Electronic               0.000              0.000              2.183
 Translational            0.889              2.981             37.592
 Rotational               0.889              2.981             21.114
 Vibrational             13.372              6.605              3.857
 Vibration     1          0.698              1.657              1.369
 Vibration     2          0.716              1.606              1.237
 Vibration     3          0.881              1.193              0.596

 Optimization completed.
    -- Stationary point found.
 Normal termination of Gaussian 09 at Wed Jul 20 19:48:12 2016.
