 Gaussian 09, Revision E.01,
 Gaussian 09:  EM64L-G09RevE.01 30-Nov-2015

 ---------------------------------------------
 #p b3lyp/6-311++G(3df,2p) freq symmetry=Loose
 ---------------------------------------------

 ---------
 b3lyp opt
 ---------
 Symbolic Z-matrix:
 Charge =  3 Multiplicity = 1

                         Standard orientation:
 ---------------------------------------------------------------------
 Center     Atomic      Atomic             Coordinates (Angstroms)
 Number     Number       Type             X           Y           Z
 ---------------------------------------------------------------------
      1          6           0        0.000000    0.000000   -1.099634
      2          1           0        0.000000    0.000000   -2.258770
      3          6           0       -0.000000   -0.000000    1.193540
      4          6           0       -0.000000    0.803935    0.141278
      5          6           0       -0.000000   -0.803935    0.141278
 ---------------------------------------------------------------------

 SCF Done:  E(RB3LYP) =  -150.790666580     A.U. after   11 cycles

 The electronic state is 1-A1.
 Alpha  occ. eigenvalues --  -11.25430 -11.25394 -11.25239 -11.24898  -1.93415
 Alpha  occ. eigenvalues --   -1.63226  -1.48054  -1.36478  -1.34335  -1.32607
 Alpha  occ. eigenvalues --   -1.22723
 Alpha virt. eigenvalues --   -1.08488  -1.02834  -0.97203  -0.92573  -0.79852
 Alpha virt. eigenvalues --   -0.67685  -0.66620  -0.57700  -0.54383  -0.52821
 Alpha virt. eigenvalues --   -0.49109  -0.48322  -0.44546  -0.44365  -0.41841

 Mulliken charges:
               1
     1  C    0.166956
     2  H    0.490367
     3  C    0.289398
     4  C    1.026639
     5  C    1.026639
 Sum of Mulliken charges =   3.00000

 Dipole moment (field-independent basis, Debye):
    X=             -0.0000    Y=             -0.0000    Z=             -1.4501  Tot=              1.4501
 Quadrupole moment (field-independent basis, Debye-Ang):
   XX=            -14.4609   YY=             -8.8999   ZZ=              6.2000
   XY=              0.0000   XZ=             -0.0000   YZ=             -0.0000

  Exact polarizability:  13.638   0.000  22.219  -0.000  -0.000  31.959
 Approx polarizability:  20.544   0.000  53.743   0.000   0.000  83.357

                      1                      2                      3
                     B1                     A1                     B2
 Frequencies --    368.4927               661.7060               773.0184
 Red. masses --      3.9900                10.1488                10.4877
 Frc consts  --      0.3192                 2.6181                 3.6924
 IR Inten    --      3.4268                41.7603                 2.2352

                      4                      5                      6
                     B1                     B2                     A1
 Frequencies --    856.7271               936.2446              1163.6223
 Red. masses --      1.4810                 1.1555                 5.7344
 Frc consts  --      0.6405                 0.5968                 4.5747
 IR Inten    --     14.7325                36.1744               273.4876

                      7                      8                      9
                     B2                     A1                     A1
 Frequencies --   1507.4761              1606.9740              2547.9259
 Red. masses --     11.4940                11.9214                 1.1537
 Frc consts  --     15.3894                18.1382                 4.4130
 IR Inten    --     37.7124               103.4259               531.1002

 - Thermochemistry -
 -------------------
 Temperature   298.150 Kelvin.  Pressure   1.00000 Atm.
 Atom     1 has atomic number  6 and mass  12.00000

 Molecular mass:    49.00783 amu.
 Principal axes and moments of inertia in atomic units:
                           1         2         3
     Eigenvalues --    55.39249 132.56976 187.96225
           X            0.00000   0.00000   1.00000
           Y            0.00000   1.00000  -0.00000
           Z            1.00000  -0.00000  -0.00000
 This molecule is an asymmetric top.
 Rotational symmetry number  2.
 Rotational temperatures (Kelvin)      1.56364     0.65335     0.46080
 Rotational constants (GHZ):          32.58098    13.61352     9.60162
 Zero-point vibrational energy      62338.5 (Joules/Mol)
                                   14.89926 (Kcal/Mol)
 Warning -- explicit consideration of   1 degrees of freedom as
           vibrations may cause significant error
 Vibrational temperatures:    530.18   952.05  1112.20  1232.64  1347.05
          (Kelvin)           1674.19  2168.92  2312.07  3665.89

 Zero-point correction=                           0.023743 (Hartree/Particle)
 Thermal correction to Energy=                    0.027271
 Thermal correction to Enthalpy=                  0.028215
 Thermal correction to Gibbs Free Energy=        -0.000336
 Sum of electronic and zero-point Energies=           -150.766923
 Sum of electronic and thermal Energies=              -150.763396
 Sum of electronic and thermal Enthalpies=            -150.762452
 Sum of electronic and thermal Free Energies=         -150.791002

                     E (Thermal)             CV                S
                      KCal/Mol        Cal/Mol-Kelvin    Cal/Mol-Kelvin
 Total                   17.113             10.469             60.090
 Electronic               0.000              0.000              0.000
 Translational            0.889              2.981             37.592
 Rotational               0.889              2.981             20.473
 Vibrational             15.335              4.507              2.025
 Vibration     1          0.741              1.537              1.086

 Optimization completed.
    -- Stationary point found.
 Normal termination of Gaussian 09 at Wed Jul 20 19:42:25 2016.
