 Gaussian 09, Revision E.01,
 Gaussian 09:  EM64L-G09RevE.01 30-Nov-2015

 ---------------------------------------------
 #p b3lyp/6-311++G(3df,2p) freq symmetry=Loose
 ---------------------------------------------

 ---------
 b3lyp opt
 ---------
 Symbolic Z-matrix:
 Charge =  3 Multiplicity = 1

                         Standard orientation:
 ---------------------------------------------------------------------
 Center     Atomic      Atomic             Coordinates (Angstroms)
 Number     Number       Type             X           Y           Z
 ---------------------------------------------------------------------
      1          1           0        1.642318   -0.803534    0.000000
      2          6           0        0.478266   -0.614517    0.000000
      3          6           0       -0.000000    0.585151   -0.000000
      4          6           0       -0.502928    2.172602   -0.000000
      5          6           0       -0.249057   -2.009313    0.000000
 ---------------------------------------------------------------------

 SCF Done:  E(RB3LYP) =  -150.776761884     A.U. after   15 cycles

 The electronic state is 1-A'.
 Alpha  occ. eigenvalues --  -11.24839 -11.22370 -11.11697 -11.03850  -1.62150
 Alpha  occ. eigenvalues --   -1.50286  -1.42826  -1.25587  -1.14649  -1.12557
 Alpha  occ. eigenvalues --   -1.11858
 Alpha virt. eigenvalues --   -0.98545  -0.96876  -0.91808  -0.89700  -0.86107
 Alpha virt. eigenvalues --   -0.73230  -0.72914  -0.56752  -0.53270  -0.50973
 Alpha virt. eigenvalues --   -0.44868  -0.44103  -0.42884  -0.41739  -0.39548

 Mulliken charges:
               1
     1  H    0.350977
     2  C    0.379727
     3  C    0.454931
     4  C    0.950419
     5  C    0.863945
 Sum of Mulliken charges =   3.00000

 Dipole moment (field-independent basis, Debye):
    X=              0.2345    Y=              0.5752    Z=              0.0000  Tot=              0.6212
 Quadrupole moment (field-independent basis, Debye-Ang):
   XX=             -7.8997   YY=             25.2522   ZZ=            -16.0373
   XY=             -5.9702   XZ=              0.0000   YZ=             -0.0000

  Exact polarizability:  26.487  -4.905  71.722  -0.000  -0.001  19.686
 Approx polarizability:  47.055 -11.487 209.435   0.000  -0.000  30.135

                      1                      2                      3
                     A'                     A"                     A'
 Frequencies --    185.9865               247.2359               412.5859
 Red. masses --      8.4416                 4.7399                10.6054
 Frc consts  --      0.1720                 0.1707                 1.0637
 IR Inten    --      1.5499                13.6284                 8.2738

                      4                      5                      6
                     A"                     A'                     A'
 Frequencies --    569.4555               571.9528               687.1867
 Red. masses --      1.8216                 7.6196                 6.2005
 Frc consts  --      0.3480                 1.4686                 1.7251
 IR Inten    --     34.9840               784.2962               187.1851

                      7                      8                      9
                     A'                     A'                     A'
 Frequencies --    850.2068              1699.0118              2278.5471
 Red. masses --      1.2329                 9.1306                 1.0964
 Frc consts  --      0.5251                15.5289                 3.3537
 IR Inten    --    398.9409                69.0675               922.1964

 - Thermochemistry -
 -------------------
 Temperature   298.150 Kelvin.  Pressure   1.00000 Atm.
 Atom     1 has atomic number  1 and mass   1.00783

 Molecular mass:    49.00783 amu.
 Principal axes and moments of inertia in atomic units:
                           1         2         3
     Eigenvalues --    28.03591 413.19478 441.23068
           X           -0.11137   0.99378   0.00000
           Y            0.99378   0.11137   0.00000
           Z            0.00000   0.00000   1.00000
 This molecule is an asymmetric top.
 Rotational symmetry number  1.
 Rotational temperatures (Kelvin)      3.08939     0.20962     0.19630
 Rotational constants (GHZ):          64.37249     4.36777     4.09024
 Zero-point vibrational energy      44872.9 (Joules/Mol)
                                   10.72489 (Kcal/Mol)
 Warning -- explicit consideration of   5 degrees of freedom as
           vibrations may cause significant error
 Vibrational temperatures:    267.59   355.72   593.62   819.32   822.91
          (Kelvin)            988.71  1223.26  2444.50  3278.32

 Zero-point correction=                           0.017091 (Hartree/Particle)
 Thermal correction to Energy=                    0.021833
 Thermal correction to Enthalpy=                  0.022778
 Thermal correction to Gibbs Free Energy=        -0.009142
 Sum of electronic and zero-point Energies=           -150.759671
 Sum of electronic and thermal Energies=              -150.754928
 Sum of electronic and thermal Enthalpies=            -150.753984
 Sum of electronic and thermal Free Energies=         -150.785904

                     E (Thermal)             CV                S
                      KCal/Mol        Cal/Mol-Kelvin    Cal/Mol-Kelvin
 Total                   13.701             14.686             67.181
 Electronic               0.000              0.000              0.000
 Translational            0.889              2.981             37.592
 Rotational               0.889              2.981             23.151
 Vibrational             11.923              8.725              6.438
 Vibration     1          0.632              1.859              2.267
 Vibration     2          0.661              1.767              1.750
 Vibration     3          0.776              1.443              0.918
 Vibration     4          0.926              1.097              0.505
 Vibration     5          0.928              1.092              0.500

 Optimization completed.
    -- Stationary point found.
 Normal termination of Gaussian 09 at Mon Jun 20 13:42:40 2016.
