 Gaussian 09, Revision E.01,
 Gaussian 09:  EM64L-G09RevE.01 30-Nov-2015

 ---------------------------------------------
 #p b3lyp/6-311++G(3df,2p) freq symmetry=Loose
 ---------------------------------------------

 ---------
 b3lyp opt
 ---------
 Symbolic Z-matrix:
 Charge =  0 Multiplicity = 4

                         Standard orientation:
 ---------------------------------------------------------------------
 Center     Atomic      Atomic             Coordinates (Angstroms)
 Number     Number       Type             X           Y           Z
 ---------------------------------------------------------------------
      1          1           0        1.551461   -0.814743    0.000000
      2          6           0        0.475898   -0.617270    0.000000
      3          6           0       -0.000000    0.638590   -0.000000
      4          6           0       -0.378247    1.873195   -0.000000
      5          6           0       -0.356228   -1.758724    0.000000
 ---------------------------------------------------------------------

 SCF Done:  E(UB3LYP) =  -152.687169202     A.U. after   20 cycles

 The electronic state is 4-A".
 Alpha  occ. eigenvalues --  -10.28495 -10.27761 -10.25438 -10.24731  -0.88092
 Alpha  occ. eigenvalues --   -0.79196  -0.65432  -0.55811  -0.41343  -0.40359
 Alpha  occ. eigenvalues --   -0.33541  -0.32875  -0.30522  -0.26449
 Alpha virt. eigenvalues --   -0.11081  -0.03256   0.00013   0.03311   0.03419
 Alpha virt. eigenvalues --    0.03798   0.05189   0.07025   0.07271   0.08407
 Alpha virt. eigenvalues --    0.09107   0.10229   0.10675   0.11536   0.12315

  Beta  occ. eigenvalues --  -10.27557 -10.25622 -10.24464 -10.24187  -0.85517
  Beta  occ. eigenvalues --   -0.74485  -0.60877  -0.53382  -0.37867  -0.31379
  Beta  occ. eigenvalues --   -0.30813
  Beta virt. eigenvalues --   -0.22815  -0.19725  -0.08728  -0.05458  -0.01562
  Beta virt. eigenvalues --    0.01342   0.04043   0.04572   0.04625   0.06443
  Beta virt. eigenvalues --    0.07247   0.07651   0.09232   0.09755   0.10819

 Mulliken charges and spin densities:
               1          2
     1  H    0.171494   0.083904
     2  C   -0.236988   0.145647
     3  C    0.878448   0.333637
     4  C   -0.562010   0.543350
     5  C   -0.250944   1.893462
 Sum of Mulliken charges =  -0.00000   3.00000

 Dipole moment (field-independent basis, Debye):
    X=              1.7253    Y=             -1.7714    Z=              0.0000  Tot=              2.4728
 Quadrupole moment (field-independent basis, Debye-Ang):
   XX=            -22.2543   YY=            -31.9916   ZZ=            -23.3180
   XY=             -0.2929   XZ=             -0.0000   YZ=              0.0000

  Exact polarizability:  42.351   3.109 141.130  -0.000  -0.001  33.950
 Approx polarizability:  60.408  11.954 325.549   0.000  -0.000  46.017

                      1                      2                      3
                     A'                     A"                     A'
 Frequencies --    186.6417               251.7551               530.0752
 Red. masses --      9.0527                 4.9010                10.0610
 Frc consts  --      0.1858                 0.1830                 1.6656
 IR Inten    --     16.9078                 7.1363                 1.1936

                      4                      5                      6
                     A"                     A'                     A'
 Frequencies --    774.3797              1017.1639              1133.0084
 Red. masses --      1.7339                 7.8588                 1.7732
 Frc consts  --      0.6126                 4.7906                 1.3411
 IR Inten    --      9.1561                97.5297               138.2778

                      7                      8                      9
                     A'                     A'                     A'
 Frequencies --   1249.9377              1856.7891              3026.0485
 Red. masses --      2.3599                11.5517                 1.0841
 Frc consts  --      2.1723                23.4650                 5.8489
 IR Inten    --     19.0453               803.8075                21.5065

 - Thermochemistry -
 -------------------
 Temperature   298.150 Kelvin.  Pressure   1.00000 Atm.
 Atom     1 has atomic number  1 and mass   1.00783

 Molecular mass:    49.00783 amu.
 Principal axes and moments of inertia in atomic units:
                           1         2         3
     Eigenvalues --    28.31029 320.51143 348.82172
           X           -0.07054   0.99751   0.00000
           Y            0.99751   0.07054   0.00000
           Z            0.00000   0.00000   1.00000
 This molecule is an asymmetric top.
 Rotational symmetry number  1.
 Rotational temperatures (Kelvin)      3.05945     0.27024     0.24830
 Rotational constants (GHZ):          63.74860     5.63082     5.17382
 Zero-point vibrational energy      59967.6 (Joules/Mol)
                                   14.33260 (Kcal/Mol)
 Warning -- explicit consideration of   3 degrees of freedom as
           vibrations may cause significant error
 Vibrational temperatures:    268.54   362.22   762.66  1114.16  1463.47
          (Kelvin)           1630.14  1798.38  2671.50  4353.80

 Zero-point correction=                           0.022840 (Hartree/Particle)
 Thermal correction to Energy=                    0.027099
 Thermal correction to Enthalpy=                  0.028043
 Thermal correction to Gibbs Free Energy=        -0.004263
 Sum of electronic and zero-point Energies=           -152.664329
 Sum of electronic and thermal Energies=              -152.660070
 Sum of electronic and thermal Enthalpies=            -152.659126
 Sum of electronic and thermal Free Energies=         -152.691433

                     E (Thermal)             CV                S
                      KCal/Mol        Cal/Mol-Kelvin    Cal/Mol-Kelvin
 Total                   17.005             12.264             67.995
 Electronic               0.000              0.000              2.755
 Translational            0.889              2.981             37.592
 Rotational               0.889              2.981             22.675
 Vibrational             15.227              6.302              4.973
 Vibration     1          0.632              1.858              2.261
 Vibration     2          0.664              1.760              1.718
 Vibration     3          0.885              1.183              0.587

 Optimization completed.
    -- Stationary point found.
 Normal termination of Gaussian 09 at Mon Jun 20 13:35:15 2016.
