 Gaussian 09, Revision E.01,
 Gaussian 09:  EM64L-G09RevE.01 30-Nov-2015

 ---------------------------------------------
 #p b3lyp/6-311++G(3df,2p) freq symmetry=Loose
 ---------------------------------------------

 ---------
 b3lyp opt
 ---------
 Symbolic Z-matrix:
 Charge =  2 Multiplicity = 4

                         Standard orientation:
 ---------------------------------------------------------------------
 Center     Atomic      Atomic             Coordinates (Angstroms)
 Number     Number       Type             X           Y           Z
 ---------------------------------------------------------------------
      1          6           0        0.166989    0.919367   -0.000000
      2          1           0        0.145531    2.026992   -0.000000
      3          6           0       -0.525222   -0.960186    0.000000
      4          6           0        0.166989   -0.148506    0.948763
      5          6           0        0.166989   -0.148506   -0.948763
 ---------------------------------------------------------------------

 SCF Done:  E(UB3LYP) =  -151.719482656     A.U. after   14 cycles

 The electronic state is 4-A".
 Alpha  occ. eigenvalues --  -10.90877 -10.90039 -10.90037 -10.86164  -1.57683
 Alpha  occ. eigenvalues --   -1.25397  -1.22801  -1.07382  -1.02490  -1.01323
 Alpha  occ. eigenvalues --   -0.95091  -0.89763  -0.85581
 Alpha virt. eigenvalues --   -0.67528  -0.66079  -0.56538  -0.37666  -0.37027
 Alpha virt. eigenvalues --   -0.33445  -0.32832  -0.32170  -0.29176  -0.25265
 Alpha virt. eigenvalues --   -0.25168  -0.24642  -0.23575  -0.21824  -0.21678

  Beta  occ. eigenvalues --  -10.88816 -10.87768 -10.87766 -10.85957  -1.54937
  Beta  occ. eigenvalues --   -1.22805  -1.17252  -1.04516  -0.99685  -0.96590
  Beta virt. eigenvalues --   -0.76716  -0.70613  -0.67102  -0.64727  -0.58566
  Beta virt. eigenvalues --   -0.51530  -0.35840  -0.35264  -0.31675  -0.31001
  Beta virt. eigenvalues --   -0.28836  -0.27386  -0.24480  -0.23798  -0.23018

 Mulliken charges and spin densities:
               1          2
     1  C    0.198128  -0.075422
     2  H    0.386706   0.028108
     3  C    0.460818   0.887292
     4  C    0.477174   1.080011
     5  C    0.477174   1.080011
 Sum of Mulliken charges =   2.00000   3.00000

 Dipole moment (field-independent basis, Debye):
    X=             -0.2349    Y=              1.1632    Z=             -0.0000  Tot=              1.1867
 Quadrupole moment (field-independent basis, Debye-Ang):
   XX=            -15.9999   YY=             -6.3070   ZZ=            -11.3748
   XY=              2.1630   XZ=             -0.0000   YZ=              0.0000

  Exact polarizability:  19.190   3.284  30.631   0.000   0.000  27.519
 Approx polarizability:  31.043   9.236  55.716  -0.000  -0.000  55.779

                      1                      2                      3
                     A'                     A'                     A"
 Frequencies --    467.4038               662.6700               759.5953
 Red. masses --      4.0156                 6.9319                 8.8768
 Frc consts  --      0.5169                 1.7935                 3.0177
 IR Inten    --      3.2697                 0.5109                14.5087

                      4                      5                      6
                     A'                     A"                     A"
 Frequencies --    931.7497               975.9242              1210.0667
 Red. masses --      1.6173                 1.3519                 4.9031
 Frc consts  --      0.8272                 0.7586                 4.2300
 IR Inten    --     30.8316                12.1593                55.2447

                      7                      8                      9
                     A'                     A'                     A'
 Frequencies --   1244.1197              1334.0225              2966.9778
 Red. masses --      7.3057                10.3572                 1.1054
 Frc consts  --      6.6625                10.8597                 5.7330
 IR Inten    --     65.7534                 3.1466               390.4775

 - Thermochemistry -
 -------------------
 Temperature   298.150 Kelvin.  Pressure   1.00000 Atm.
 Atom     1 has atomic number  6 and mass  12.00000

 Molecular mass:    49.00783 amu.
 Principal axes and moments of inertia in atomic units:
                           1         2         3
     Eigenvalues --    84.01069 107.59268 177.87791
           X            0.30301   0.00000   0.95299
           Y            0.95299   0.00000  -0.30301
           Z           -0.00000   1.00000  -0.00000
 This molecule is an asymmetric top.
 Rotational symmetry number  1.
 Rotational temperatures (Kelvin)      1.03099     0.80502     0.48693
 Rotational constants (GHZ):          21.48228    16.77383    10.14595
 Zero-point vibrational energy      63118.1 (Joules/Mol)
                                   15.08560 (Kcal/Mol)
 Warning -- explicit consideration of   1 degrees of freedom as
           vibrations may cause significant error
 Vibrational temperatures:    672.49   953.43  1092.89  1340.58  1404.14
          (Kelvin)           1741.01  1790.01  1919.36  4268.81

 Zero-point correction=                           0.024040 (Hartree/Particle)
 Thermal correction to Energy=                    0.027470
 Thermal correction to Enthalpy=                  0.028414
 Thermal correction to Gibbs Free Energy=        -0.002001
 Sum of electronic and zero-point Energies=           -151.695442
 Sum of electronic and thermal Energies=              -151.692013
 Sum of electronic and thermal Enthalpies=            -151.691068
 Sum of electronic and thermal Free Energies=         -151.721484

                     E (Thermal)             CV                S
                      KCal/Mol        Cal/Mol-Kelvin    Cal/Mol-Kelvin
 Total                   17.238             10.277             64.014
 Electronic               0.000              0.000              2.755
 Translational            0.889              2.981             37.592
 Rotational               0.889              2.981             22.002
 Vibrational             15.460              4.315              1.665
 Vibration     1          0.825              1.322              0.745

 Optimization completed.
    -- Stationary point found.
 Normal termination of Gaussian 09 at Mon Jun 20 13:43:25 2016.
