 Gaussian 09, Revision E.01,
 Gaussian 09:  EM64L-G09RevE.01 30-Nov-2015

 ---------------------------------------------
 #p b3lyp/6-311++G(3df,2p) freq symmetry=Loose
 ---------------------------------------------

 ---------
 b3lyp opt
 ---------
 Symbolic Z-matrix:
 Charge =  2 Multiplicity = 2

                         Standard orientation:
 ---------------------------------------------------------------------
 Center     Atomic      Atomic             Coordinates (Angstroms)
 Number     Number       Type             X           Y           Z
 ---------------------------------------------------------------------
      1          1           0        1.398912   -1.092916   -0.000000
      2          6           0        0.349575   -0.696616    0.000000
      3          6           0       -0.000000    0.584821   -0.000000
      4          6           0        0.157306    1.963901   -0.000000
      5          6           0       -0.740033   -1.669953    0.000000
 ---------------------------------------------------------------------

 SCF Done:  E(UB3LYP) =  -151.697580772     A.U. after   25 cycles

 The electronic state is 2-A'.
 Alpha  occ. eigenvalues --  -10.92539 -10.88231 -10.83233 -10.79877  -1.41239
 Alpha  occ. eigenvalues --   -1.31550  -1.17169  -1.05799  -0.90912  -0.90135
 Alpha  occ. eigenvalues --   -0.87400  -0.84302
 Alpha virt. eigenvalues --   -0.74449  -0.67401  -0.61296  -0.58384  -0.46900
 Alpha virt. eigenvalues --   -0.35981  -0.33502  -0.30358  -0.27738  -0.27604
 Alpha virt. eigenvalues --   -0.25051  -0.23420  -0.22939  -0.21567  -0.20571

  Beta  occ. eigenvalues --  -10.92481 -10.87306 -10.82367 -10.80019  -1.40161
  Beta  occ. eigenvalues --   -1.29030  -1.16464  -1.04297  -0.90459  -0.87772
  Beta  occ. eigenvalues --   -0.84503
  Beta virt. eigenvalues --   -0.73789  -0.72395  -0.67155  -0.60946  -0.53865
  Beta virt. eigenvalues --   -0.45907  -0.35293  -0.33137  -0.29966  -0.27729
  Beta virt. eigenvalues --   -0.26914  -0.23913  -0.23242  -0.22525  -0.21137

 Mulliken charges and spin densities:
               1          2
     1  H    0.298785   0.038430
     2  C    0.229962  -0.155117
     3  C    0.694789   0.562778
     4  C    0.357153   0.500217
     5  C    0.419311   0.053691
 Sum of Mulliken charges =   2.00000   1.00000

 Dipole moment (field-independent basis, Debye):
    X=              0.4421    Y=             -1.1176    Z=              0.0000  Tot=              1.2019
 Quadrupole moment (field-independent basis, Debye-Ang):
   XX=            -13.8037   YY=              2.5539   ZZ=            -17.2066
   XY=             -0.1474   XZ=             -0.0000   YZ=             -0.0000

  Exact polarizability:  27.898   5.731  73.482   0.000   0.000  22.060
 Approx polarizability:  43.475  19.054 167.970  -0.000  -0.000  33.109

                      1                      2                      3
                     A'                     A"                     A'
 Frequencies --    169.4714               212.1883               354.0127
 Red. masses --      9.3440                 6.6733                 7.8198
 Frc consts  --      0.1581                 0.1770                 0.5774
 IR Inten    --      2.9540                 0.0452                20.0284

                      4                      5                      6
                     A"                     A'                     A'
 Frequencies --    668.2611               829.4900               940.2503
 Red. masses --      1.6554                10.3460                 2.0978
 Frc consts  --      0.4356                 4.1941                 1.0927
 IR Inten    --      6.9010                78.4763               112.7838

                      7                      8                      9
                     A'                     A'                     A'
 Frequencies --   1096.5261              1568.2856              2785.2604
 Red. masses --      1.9601                10.8526                 1.0829
 Frc consts  --      1.3885                15.7266                 4.9495
 IR Inten    --    206.5226               126.7564               434.1067

 - Thermochemistry -
 -------------------
 Temperature   298.150 Kelvin.  Pressure   1.00000 Atm.
 Atom     1 has atomic number  1 and mass   1.00783

 Molecular mass:    49.00783 amu.
 Principal axes and moments of inertia in atomic units:
                           1         2         3
     Eigenvalues --    28.10704 333.01056 361.11760
           X            0.16756   0.98586   0.00000
           Y            0.98586  -0.16756   0.00000
           Z           -0.00000  -0.00000   1.00000
 This molecule is an asymmetric top.
 Rotational symmetry number  1.
 Rotational temperatures (Kelvin)      3.08157     0.26009     0.23985
 Rotational constants (GHZ):          64.20958     5.41947     4.99766
 Zero-point vibrational energy      51581.5 (Joules/Mol)
                                   12.32826 (Kcal/Mol)
 Warning -- explicit consideration of   3 degrees of freedom as
           vibrations may cause significant error
 Vibrational temperatures:    243.83   305.29   509.34   961.48  1193.45
          (Kelvin)           1352.81  1577.65  2256.41  4007.36

 Zero-point correction=                           0.019646 (Hartree/Particle)
 Thermal correction to Energy=                    0.024260
 Thermal correction to Enthalpy=                  0.025204
 Thermal correction to Gibbs Free Energy=        -0.007127
 Sum of electronic and zero-point Energies=           -151.677934
 Sum of electronic and thermal Energies=              -151.673321
 Sum of electronic and thermal Enthalpies=            -151.672377
 Sum of electronic and thermal Free Energies=         -151.704708

                     E (Thermal)             CV                S
                      KCal/Mol        Cal/Mol-Kelvin    Cal/Mol-Kelvin
 Total                   15.223             13.515             68.046
 Electronic               0.000              0.000              1.377
 Translational            0.889              2.981             37.592
 Rotational               0.889              2.981             22.740
 Vibrational             13.446              7.554              6.336
 Vibration     1          0.625              1.880              2.441
 Vibration     2          0.643              1.822              2.025
 Vibration     3          0.730              1.567              1.148

 Normal termination of Gaussian 09 at Mon Jun 20 13:39:42 2016.
