 Gaussian 09, Revision E.01,
 Gaussian 09:  EM64L-G09RevE.01 30-Nov-2015

 -------------------------------------------------
 #p b3lyp/6-311++G(3df,2p) opt freq symmetry=Loose
 -------------------------------------------------

 ---------
 b3lyp opt
 ---------
 Symbolic Z-matrix:
 Charge =  1 Multiplicity = 1

 SCF Done:  E(RB3LYP) =  -152.389659172     A.U. after   13 cycles
 Optimization completed.
    -- Stationary point found.
 Normal termination of Gaussian 09 at Tue Jul  5 14:57:53 2016.

 ----------------------------------------------------------------------
 #P Geom=AllCheck Guess=TCheck SCRF=Check GenChk RB3LYP/6-311++G(3df,2p
 ) Freq
 ----------------------------------------------------------------------

 Structure from the checkpoint file:  "/scratch/sergio/HC4.q1.m1-3.bis.com-2105144/Gau-19580.chk"
 ---------
 b3lyp opt
 ---------
 Charge =  1 Multiplicity = 1

                         Standard orientation:
 ---------------------------------------------------------------------
 Center     Atomic      Atomic             Coordinates (Angstroms)
 Number     Number       Type             X           Y           Z
 ---------------------------------------------------------------------
      1          1           0       -0.944842   -1.750678   -0.000000
      2          6           0       -0.151192   -1.010159   -0.000000
      3          6           0       -0.000000    0.367572    0.000000
      4          6           0        1.143499   -0.519564   -0.000000
      5          6           0       -0.834833    1.453930    0.000000
 ---------------------------------------------------------------------

 SCF Done:  E(RB3LYP) =  -152.389659172     A.U. after    1 cycles

 The electronic state is 1-A'.
 Alpha  occ. eigenvalues --  -10.60191 -10.56758 -10.54197 -10.54108  -1.24651
 Alpha  occ. eigenvalues --   -1.04471  -0.88548  -0.76071  -0.69720  -0.68950
 Alpha  occ. eigenvalues --   -0.60311  -0.54976
 Alpha virt. eigenvalues --   -0.46958  -0.39591  -0.31047  -0.24531  -0.16893
 Alpha virt. eigenvalues --   -0.16712  -0.13109  -0.11413  -0.10210  -0.08571
 Alpha virt. eigenvalues --   -0.07246  -0.06135  -0.06045  -0.04460  -0.03948

 Mulliken charges:
               1
     1  H    0.329633
     2  C    0.178452
     3  C    0.608854
     4  C   -0.003403
     5  C   -0.113536
 Sum of Mulliken charges =   1.00000

 Dipole moment (field-independent basis, Debye):
    X=             -1.8607    Y=             -1.5339    Z=             -0.0000  Tot=              2.4114
 Quadrupole moment (field-independent basis, Debye-Ang):
   XX=            -20.4712   YY=            -13.4634   ZZ=            -18.7742
   XY=              1.8529   XZ=              0.0000   YZ=             -0.0000

  Exact polarizability:  40.962 -12.556  48.742   0.000  -0.000  24.579
 Approx polarizability:  94.583 -55.614 123.877  -0.000   0.000  38.886

                      1                      2                      3
                     A'                     A"                     A'
 Frequencies --    195.3108               231.8574               796.2056
 Red. masses --      6.7978                10.9367                 8.6969
 Frc consts  --      0.1528                 0.3464                 3.2484
 IR Inten    --      6.3780                14.3905                 6.4273

                      4                      5                      6
                     A"                     A'                     A'
 Frequencies --    873.9919               922.4929               999.3899
 Red. masses --      1.3211                 1.9246                 2.5156
 Frc consts  --      0.5946                 0.9650                 1.4803
 IR Inten    --     27.8282                13.5749                 7.5508

                      7                      8                      9
                     A'                     A'                     A'
 Frequencies --   1303.4559              1629.0405              3204.7429
 Red. masses --      7.7739                 9.5048                 1.1144
 Frc consts  --      7.7818                14.8613                 6.7434
 IR Inten    --     49.9056               382.5119               114.3695

 - Thermochemistry -
 -------------------
 Temperature   298.150 Kelvin.  Pressure   1.00000 Atm.
 Atom     1 has atomic number  1 and mass   1.00783

 Molecular mass:    49.00783 amu.
 Principal axes and moments of inertia in atomic units:
                           1         2         3
     Eigenvalues --    51.75935 200.75247 252.51182
           X           -0.50681   0.86206   0.00000
           Y            0.86206   0.50681   0.00000
           Z           -0.00000  -0.00000   1.00000
 This molecule is an asymmetric top.
 Rotational symmetry number  1.
 Rotational temperatures (Kelvin)      1.67339     0.43145     0.34301
 Rotational constants (GHZ):          34.86792     8.98988     7.14716
 Zero-point vibrational energy      60749.3 (Joules/Mol)
                                   14.51943 (Kcal/Mol)
 Warning -- explicit consideration of   2 degrees of freedom as
           vibrations may cause significant error
 Vibrational temperatures:    281.01   333.59  1145.56  1257.48  1327.26
          (Kelvin)           1437.90  1875.38  2343.82  4610.90

 Zero-point correction=                           0.023138 (Hartree/Particle)
 Thermal correction to Energy=                    0.027291
 Thermal correction to Enthalpy=                  0.028235
 Thermal correction to Gibbs Free Energy=        -0.002526
 Sum of electronic and zero-point Energies=           -152.366521
 Sum of electronic and thermal Energies=              -152.362368
 Sum of electronic and thermal Enthalpies=            -152.361424
 Sum of electronic and thermal Free Energies=         -152.392185

                     E (Thermal)             CV                S
                      KCal/Mol        Cal/Mol-Kelvin    Cal/Mol-Kelvin
 Total                   17.125             11.836             64.742
 Electronic               0.000              0.000              0.000
 Translational            0.889              2.981             37.592
 Rotational               0.889              2.981             22.488
 Vibrational             15.348              5.874              4.662
 Vibration     1          0.636              1.846              2.177
 Vibration     2          0.653              1.792              1.865

 Optimization completed.
    -- Stationary point found.
 Normal termination of Gaussian 09 at Tue Jul  5 15:03:22 2016.
