 Gaussian 09, Revision E.01,
 Gaussian 09:  EM64L-G09RevE.01 30-Nov-2015

 -------------------------------------------------
 #p b3lyp/6-311++G(3df,2p) opt freq symmetry=Loose
 -------------------------------------------------

 ---------
 b3lyp opt
 ---------
 Symbolic Z-matrix:
 Charge =  1 Multiplicity = 1

 SCF Done:  E(RB3LYP) =  -152.386950718     A.U. after   10 cycles
 SCF Done:  E(RB3LYP) =  -152.387513034     A.U. after    9 cycles
 SCF Done:  E(RB3LYP) =  -152.387559253     A.U. after    8 cycles
 SCF Done:  E(RB3LYP) =  -152.387562819     A.U. after    8 cycles
 SCF Done:  E(RB3LYP) =  -152.387564650     A.U. after    8 cycles
 Optimization completed.
    -- Stationary point found.
 Normal termination of Gaussian 09 at Tue Jul  5 15:02:48 2016.

 ----------------------------------------------------------------------
 #P Geom=AllCheck Guess=TCheck SCRF=Check GenChk RB3LYP/6-311++G(3df,2p
 ) Freq
 ----------------------------------------------------------------------

 Structure from the checkpoint file:  "/scratch/sergio/HC4.q1.m1-5.bis.com-2105145/Gau-15015.chk"
 ---------
 b3lyp opt
 ---------
 Charge =  1 Multiplicity = 1

                         Standard orientation:
 ---------------------------------------------------------------------
 Center     Atomic      Atomic             Coordinates (Angstroms)
 Number     Number       Type             X           Y           Z
 ---------------------------------------------------------------------
      1          1           0       -0.000000    0.000000    1.819291
      2          6           0       -0.000000    0.000000    0.727404
      3          6           0        0.000000   -0.000000   -0.696231
      4          6           0        0.000000    1.281549   -0.167194
      5          6           0       -0.000000   -1.281549   -0.167194
 ---------------------------------------------------------------------

 SCF Done:  E(RB3LYP) =  -152.387564650     A.U. after    1 cycles

 The electronic state is 1-A1.
 Alpha  occ. eigenvalues --  -10.61071 -10.59107 -10.57613 -10.57610  -1.31870
 Alpha  occ. eigenvalues --   -1.04959  -0.92301  -0.75779  -0.73957  -0.68686
 Alpha  occ. eigenvalues --   -0.63565  -0.56316
 Alpha virt. eigenvalues --   -0.43338  -0.38761  -0.32975  -0.24658  -0.18807
 Alpha virt. eigenvalues --   -0.16912  -0.12973  -0.12139  -0.11183  -0.09555
 Alpha virt. eigenvalues --   -0.07636  -0.06235  -0.05945  -0.05771  -0.05275

 Mulliken charges:
               1
     1  H    0.360417
     2  C    0.148210
     3  C    0.669284
     4  C   -0.088956
     5  C   -0.088956
 Sum of Mulliken charges =   1.00000

 Dipole moment (field-independent basis, Debye):
    X=              0.0000    Y=             -0.0000    Z=              1.4919  Tot=              1.4919
 Quadrupole moment (field-independent basis, Debye-Ang):
   XX=            -18.7597   YY=            -23.1098   ZZ=            -13.9010
   XY=             -0.0000   XZ=              0.0000   YZ=              0.0000

  Exact polarizability:  24.527   0.000  39.180   0.000  -0.000  30.948
 Approx polarizability:  40.544   0.000  72.279   0.000   0.000  59.526

                      1                      2                      3
                     B1                     B2                     A1
 Frequencies --    235.5601               427.5141               618.8891
 Red. masses --     10.3099                 5.6285                11.0153
 Frc consts  --      0.3371                 0.6061                 2.4858
 IR Inten    --     49.7317               113.8985                 6.0808

                      4                      5                      6
                     B1                     B2                     A1
 Frequencies --    821.8442               877.8588               980.0899
 Red. masses --      1.3090                 1.2577                 9.9801
 Frc consts  --      0.5209                 0.5711                 5.6483
 IR Inten    --     18.8542                 3.3001                 1.7340

                      7                      8                      9
                     A1                     B2                     A1
 Frequencies --   1357.8933              1414.8304              3128.4611
 Red. masses --      7.5997                 9.0402                 1.1099
 Frc consts  --      8.2561                10.6619                 6.4003
 IR Inten    --      1.2693               177.4175               204.4341

 - Thermochemistry -
 -------------------
 Temperature   298.150 Kelvin.  Pressure   1.00000 Atm.
 Atom     1 has atomic number  1 and mass   1.00783

 Molecular mass:    49.00783 amu.
 Principal axes and moments of inertia in atomic units:
                           1         2         3
     Eigenvalues --    57.51694 140.76004 198.27698
           X            0.00000   0.00000   1.00000
           Y            1.00000   0.00000  -0.00000
           Z            0.00000   1.00000   0.00000
 This molecule is an asymmetric top.
 Rotational symmetry number  2.
 Rotational temperatures (Kelvin)      1.50588     0.61533     0.43683
 Rotational constants (GHZ):          31.37756    12.82140     9.10212
 Zero-point vibrational energy      58993.5 (Joules/Mol)
                                   14.09978 (Kcal/Mol)
 Warning -- explicit consideration of   3 degrees of freedom as
           vibrations may cause significant error
 Vibrational temperatures:    338.92   615.10   890.44  1182.45  1263.04
          (Kelvin)           1410.13  1953.70  2035.62  4501.15

 Zero-point correction=                           0.022469 (Hartree/Particle)
 Thermal correction to Energy=                    0.026429
 Thermal correction to Enthalpy=                  0.027373
 Thermal correction to Gibbs Free Energy=        -0.001999
 Sum of electronic and zero-point Energies=           -152.365095
 Sum of electronic and thermal Energies=              -152.361136
 Sum of electronic and thermal Enthalpies=            -152.360191
 Sum of electronic and thermal Free Energies=         -152.389563

                     E (Thermal)             CV                S
                      KCal/Mol        Cal/Mol-Kelvin    Cal/Mol-Kelvin
 Total                   16.585             11.919             61.819
 Electronic               0.000              0.000              0.000
 Translational            0.889              2.981             37.592
 Rotational               0.889              2.981             20.623
 Vibrational             14.807              5.957              3.604
 Vibration     1          0.655              1.786              1.836
 Vibration     2          0.789              1.410              0.867
 Vibration     3          0.979              0.992              0.418

 Optimization completed.
    -- Stationary point found.
 Normal termination of Gaussian 09 at Tue Jul  5 15:05:49 2016.
