 Gaussian 09, Revision E.01,
 Gaussian 09:  EM64L-G09RevE.01 30-Nov-2015

 ---------------------------------------------
 #p b3lyp/6-311++G(3df,2p) freq symmetry=Loose
 ---------------------------------------------

 ---------
 b3lyp opt
 ---------
 Symbolic Z-matrix:
 Charge =  3 Multiplicity = 3

                         Standard orientation:
 ---------------------------------------------------------------------
 Center     Atomic      Atomic             Coordinates (Angstroms)
 Number     Number       Type             X           Y           Z
 ---------------------------------------------------------------------
      1          1           0        0.000000   -0.000000   -2.235062
      2          6           0        0.000000   -0.000000   -1.073808
      3          6           0        0.000000    0.853104    0.093476
      4          6           0        0.000000    0.000000    1.259367
      5          6           0       -0.000000   -0.853104    0.093476
 ---------------------------------------------------------------------

 SCF Done:  E(UB3LYP) =  -150.793683778     A.U. after   13 cycles

 The electronic state is 3-A1.
 Alpha  occ. eigenvalues --  -11.26876 -11.26253 -11.26246 -11.20592  -1.89783
 Alpha  occ. eigenvalues --   -1.61387  -1.49092  -1.35824  -1.33730  -1.30000
 Alpha  occ. eigenvalues --   -1.25324  -1.21700
 Alpha virt. eigenvalues --   -1.02181  -0.99111  -0.97784  -0.82100  -0.68407
 Alpha virt. eigenvalues --   -0.65391  -0.60086  -0.59702  -0.57064  -0.48435
 Alpha virt. eigenvalues --   -0.47310  -0.44733  -0.44070  -0.43013  -0.42500

  Beta  occ. eigenvalues --  -11.24854 -11.24850 -11.24500 -11.20649  -1.88168
  Beta  occ. eigenvalues --   -1.59672  -1.44730  -1.33773  -1.32209  -1.28571
  Beta virt. eigenvalues --   -1.08147  -1.00579  -1.00284  -0.96387  -0.88902
  Beta virt. eigenvalues --   -0.78866  -0.66838  -0.64065  -0.57045  -0.56558
  Beta virt. eigenvalues --   -0.55865  -0.48267  -0.46600  -0.43655  -0.42509

 Mulliken charges and spin densities:
               1          2
     1  H    0.479713   0.037809
     2  C    0.133060  -0.030434
     3  C    0.945699   0.480042
     4  C    0.495829   1.032542
     5  C    0.945699   0.480042
 Sum of Mulliken charges =   3.00000   2.00000

 Dipole moment (field-independent basis, Debye):
    X=             -0.0000    Y=             -0.0000    Z=             -1.2388  Tot=              1.2388
 Quadrupole moment (field-independent basis, Debye-Ang):
   XX=            -14.7306   YY=             -7.7746   ZZ=              5.4836
   XY=              0.0000   XZ=             -0.0000   YZ=              0.0000

  Exact polarizability:  15.382  -0.000  25.651  -0.000   0.000  30.719
 Approx polarizability:  23.265   0.000  66.929  -0.000  -0.000  59.221

                      1                      2                      3
                     B1                     B2                     A1
 Frequencies --    398.0968               654.9146               807.0853
 Red. masses --      4.3334                 8.4461                 9.4093
 Frc consts  --      0.4046                 2.1344                 3.6111
 IR Inten    --      3.3077                 0.4889                 4.1988

                      4                      5                      6
                     B2                     B1                     B2
 Frequencies --    830.3470               841.6228              1053.5479
 Red. masses --      1.7776                 1.4269                 2.6781
 Frc consts  --      0.7221                 0.5955                 1.7514
 IR Inten    --     53.2660                35.7157                15.5620

                      7                      8                      9
                     A1                     A1                     A1
 Frequencies --   1186.9193              1277.5737              2477.5067
 Red. masses --      6.7564                11.8897                 1.1297
 Frc consts  --      5.6080                11.4338                 4.0857
 IR Inten    --    135.2921               186.5767               857.6869

 - Thermochemistry -
 -------------------
 Temperature   298.150 Kelvin.  Pressure   1.00000 Atm.
 Atom     1 has atomic number  1 and mass   1.00783

 Molecular mass:    49.00783 amu.
 Principal axes and moments of inertia in atomic units:
                           1         2         3
     Eigenvalues --    62.37534 135.74610 198.12145
           X            0.00000   0.00000   1.00000
           Y            0.00000   1.00000  -0.00000
           Z            1.00000  -0.00000  -0.00000
 This molecule is an asymmetric top.
 Rotational symmetry number  2.
 Rotational temperatures (Kelvin)      1.38859     0.63806     0.43718
 Rotational constants (GHZ):          28.93357    13.29498     9.10927
 Zero-point vibrational energy      56987.8 (Joules/Mol)
                                   13.62041 (Kcal/Mol)
 Warning -- explicit consideration of   1 degrees of freedom as
           vibrations may cause significant error
 Vibrational temperatures:    572.77   942.27  1161.21  1194.68  1210.91
          (Kelvin)           1515.82  1707.71  1838.14  3564.58

 Zero-point correction=                           0.021706 (Hartree/Particle)
 Thermal correction to Energy=                    0.025255
 Thermal correction to Enthalpy=                  0.026199
 Thermal correction to Gibbs Free Energy=        -0.003490
 Sum of electronic and zero-point Energies=           -150.771978
 Sum of electronic and thermal Energies=              -150.768429
 Sum of electronic and thermal Enthalpies=            -150.767485
 Sum of electronic and thermal Free Energies=         -150.797174

                     E (Thermal)             CV                S
                      KCal/Mol        Cal/Mol-Kelvin    Cal/Mol-Kelvin
 Total                   15.848             10.876             62.487
 Electronic               0.000              0.000              2.183
 Translational            0.889              2.981             37.592
 Rotational               0.889              2.981             20.667
 Vibrational             14.070              4.915              2.045
 Vibration     1          0.764              1.474              0.970

 Optimization completed.
    -- Stationary point found.
 Normal termination of Gaussian 09 at Mon Jun 20 13:46:32 2016.
