 Gaussian 09, Revision E.01,
 Gaussian 09:  EM64L-G09RevE.01 30-Nov-2015

 -------------------------------------------------
 #p b3lyp/6-311++G(3df,2p) opt freq symmetry=Loose
 -------------------------------------------------

 ---------
 b3lyp opt
 ---------
 Symbolic Z-matrix:
 Charge =  0 Multiplicity = 2

 SCF Done:  E(UB3LYP) =  -190.819165138     A.U. after   18 cycles
 Optimization completed.
    -- Stationary point found.
 Normal termination of Gaussian 09 at Tue Jul  5 16:07:20 2016.

 ----------------------------------------------------------------------
 #P Geom=AllCheck Guess=TCheck SCRF=Check GenChk UB3LYP/6-311++G(3df,2p
 ) Freq
 ----------------------------------------------------------------------

 Structure from the checkpoint file:  "/scratch/sergio/HC5.q0.m2-6.bis.com-2105447/Gau-17786.chk"
 ---------
 b3lyp opt
 ---------
 Charge =  0 Multiplicity = 2

                         Standard orientation:
 ---------------------------------------------------------------------
 Center     Atomic      Atomic             Coordinates (Angstroms)
 Number     Number       Type             X           Y           Z
 ---------------------------------------------------------------------
      1          1           0       -1.745332   -1.000248    0.000000
      2          6           0       -0.652818   -0.938764    0.000000
      3          6           0        0.000000    0.336080    0.000000
      4          6           0       -0.121510    1.721275    0.000000
      5          6           0        1.102303    1.137880    0.000000
      6          6           0       -0.037086   -2.089763    0.000000
 ---------------------------------------------------------------------

 SCF Done:  E(UB3LYP) =  -190.819165138     A.U. after    1 cycles

 The electronic state is 2-A'.
 Alpha  occ. eigenvalues --  -10.30147 -10.29696 -10.24155 -10.23946 -10.23755
 Alpha  occ. eigenvalues --   -0.97400  -0.85784  -0.66494  -0.57258  -0.50589
 Alpha  occ. eigenvalues --   -0.46159  -0.44086  -0.35393  -0.34251  -0.30698
 Alpha  occ. eigenvalues --   -0.27617
 Alpha virt. eigenvalues --   -0.15559  -0.10511  -0.03307  -0.00880   0.02045
 Alpha virt. eigenvalues --    0.03380   0.03832   0.04527   0.05425   0.06296
 Alpha virt. eigenvalues --    0.07803   0.08234   0.09465   0.09870   0.10699

  Beta  occ. eigenvalues --  -10.29677 -10.29615 -10.23973 -10.23318 -10.23065
  Beta  occ. eigenvalues --   -0.96532  -0.85598  -0.65811  -0.56161  -0.48245
  Beta  occ. eigenvalues --   -0.43646  -0.42983  -0.35009  -0.34065  -0.27811
  Beta virt. eigenvalues --   -0.16507  -0.14976  -0.10028  -0.02059  -0.00763
  Beta virt. eigenvalues --    0.02449   0.03513   0.04135   0.04605   0.05560
  Beta virt. eigenvalues --    0.06413   0.07859   0.08310   0.09703   0.10167

 Mulliken charges and spin densities:
               1          2
     1  H    0.187622   0.023331
     2  C    0.204146  -0.024790
     3  C    0.635966   0.274162
     4  C   -0.315675   0.293789
     5  C   -0.117201   0.410148
     6  C   -0.594858   0.023360
 Sum of Mulliken charges =  -0.00000   1.00000

 Dipole moment (field-independent basis, Debye):
    X=             -1.9407    Y=             -1.1902    Z=              0.0000  Tot=              2.2766
 Quadrupole moment (field-independent basis, Debye-Ang):
   XX=            -28.4401   YY=            -36.4380   ZZ=            -28.9843
   XY=              3.1916   XZ=              0.0000   YZ=              0.0000

  Exact polarizability:  61.868  -2.146  78.729   0.000  -0.000  35.585
 Approx polarizability: 100.113  -5.602 129.413  -0.000   0.000  52.491

                      1                      2                      3
                     A"                     A'                     A'
 Frequencies --     87.8983               112.4314               345.3814
 Red. masses --      5.3121                10.0881                 5.5524
 Frc consts  --      0.0242                 0.0751                 0.3902
 IR Inten    --     13.0291                 9.4646                32.5198

                      4                      5                      6
                     A"                     A'                     A"
 Frequencies --    410.9763               657.9614               700.0255
 Red. masses --      3.0304                11.5579                 2.0215
 Frc consts  --      0.3016                 2.9480                 0.5837
 IR Inten    --      0.0758               376.6118                28.4999

                      7                      8                      9
                     A'                     A'                     A'
 Frequencies --    794.3861              1007.4570              1319.8693
 Red. masses --      9.4453                 1.2026                10.7225
 Frc consts  --      3.5118                 0.7191                11.0054
 IR Inten    --     24.1710                33.9477               109.0037

                     10                     11                     12
                     A'                     A'                     A'
 Frequencies --   1667.5199              1721.1979              3060.9677
 Red. masses --      9.6968                11.4076                 1.0833
 Frc consts  --     15.8862                19.9116                 5.9804
 IR Inten    --     40.8970               248.6671                33.9649

 - Thermochemistry -
 -------------------
 Temperature   298.150 Kelvin.  Pressure   1.00000 Atm.
 Atom     1 has atomic number  1 and mass   1.00783

 Molecular mass:    61.00783 amu.
 Principal axes and moments of inertia in atomic units:
                           1         2         3
     Eigenvalues --    63.39537 434.15533 497.55070
           X            0.22287   0.97485   0.00000
           Y            0.97485  -0.22287   0.00000
           Z           -0.00000  -0.00000   1.00000
 This molecule is an asymmetric top.
 Rotational symmetry number  1.
 Rotational temperatures (Kelvin)      1.36625     0.19950     0.17408
 Rotational constants (GHZ):          28.46803     4.15690     3.62725
 Zero-point vibrational energy      71094.5 (Joules/Mol)
                                   16.99199 (Kcal/Mol)
 Warning -- explicit consideration of   4 degrees of freedom as
           vibrations may cause significant error
 Vibrational temperatures:    126.47   161.76   496.93   591.30   946.66
          (Kelvin)           1007.18  1142.94  1449.50  1899.00  2399.19
                             2476.42  4404.04

 Zero-point correction=                           0.027078 (Hartree/Particle)
 Thermal correction to Energy=                    0.032419
 Thermal correction to Enthalpy=                  0.033364
 Thermal correction to Gibbs Free Energy=        -0.001701
 Sum of electronic and zero-point Energies=           -190.792087
 Sum of electronic and thermal Energies=              -190.786746
 Sum of electronic and thermal Enthalpies=            -190.785802
 Sum of electronic and thermal Free Energies=         -190.820866

                     E (Thermal)             CV                S
                      KCal/Mol        Cal/Mol-Kelvin    Cal/Mol-Kelvin
 Total                   20.343             15.874             73.800
 Electronic               0.000              0.000              1.377
 Translational            0.889              2.981             38.245
 Rotational               0.889              2.981             24.130
 Vibrational             18.566              9.912             10.047
 Vibration     1          0.601              1.958              3.706
 Vibration     2          0.607              1.939              3.227
 Vibration     3          0.724              1.585              1.187
 Vibration     4          0.775              1.446              0.923

 Optimization completed.
    -- Stationary point found.
 Normal termination of Gaussian 09 at Tue Jul  5 16:18:03 2016.
