 Gaussian 09, Revision E.01,
 Gaussian 09:  EM64L-G09RevE.01 30-Nov-2015

 ---------------------------------------------
 #p b3lyp/6-311++G(3df,2p) freq symmetry=Loose
 ---------------------------------------------

 ---------
 b3lyp opt
 ---------
 Symbolic Z-matrix:
 Charge =  3 Multiplicity = 1

                         Standard orientation:
 ---------------------------------------------------------------------
 Center     Atomic      Atomic             Coordinates (Angstroms)
 Number     Number       Type             X           Y           Z
 ---------------------------------------------------------------------
      1          6           0       -2.376003   -1.019187    0.000000
      2          6           0       -1.355916    0.218306   -0.000000
      3          6           0       -0.000000    0.168137   -0.000000
      4          6           0        1.266991    0.174978    0.000000
      5          6           0        2.782582    0.255452    0.000000
      6          1           0       -1.905929    1.213887   -0.000000
 ---------------------------------------------------------------------

 SCF Done:  E(RB3LYP) =  -188.981222746     A.U. after   15 cycles

 The electronic state is 1-A'.
 Alpha  occ. eigenvalues --  -11.16007 -11.10566 -11.02459 -11.00645 -11.00384
 Alpha  occ. eigenvalues --   -1.57325  -1.50494  -1.41536  -1.35289  -1.21437
 Alpha  occ. eigenvalues --   -1.08647  -1.08272  -1.03359  -1.03099
 Alpha virt. eigenvalues --   -0.94910  -0.87143  -0.86114  -0.85040  -0.77494
 Alpha virt. eigenvalues --   -0.67870  -0.60890  -0.58187  -0.54428  -0.49881
 Alpha virt. eigenvalues --   -0.46816  -0.42369  -0.41708  -0.41157  -0.38727

 Mulliken charges:
               1
     1  C    0.720413
     2  C    0.166688
     3  C    0.383718
     4  C    0.827825
     5  C    0.561136
     6  H    0.340220
 Sum of Mulliken charges =   3.00000

 Dipole moment (field-independent basis, Debye):
    X=             -2.0511    Y=             -0.1215    Z=             -0.0000  Tot=              2.0546
 Quadrupole moment (field-independent basis, Debye-Ang):
   XX=             40.3387   YY=            -14.7106   ZZ=            -19.5260
   XY=              7.3440   XZ=              0.0000   YZ=             -0.0000

  Exact polarizability: 102.347  10.163  31.053   0.000  -0.000  24.191
 Approx polarizability: 257.124  23.298  50.191   0.000  -0.000  37.628

                      1                      2                      3
                     A'                     A"                     A'
 Frequencies --    138.2966               151.5627               255.4112
 Red. masses --     10.1503                 6.1578                10.6886
 Frc consts  --      0.1144                 0.0833                 0.4108
 IR Inten    --      2.2318                 2.7202                 3.5621

                      4                      5                      6
                     A"                     A'                     A'
 Frequencies --    348.3302               491.9320               651.1985
 Red. masses --      5.1851                 8.1835                 6.1598
 Frc consts  --      0.3707                 1.1668                 1.5390
 IR Inten    --     23.6754                60.7875               514.2351

                      7                      8                      9
                     A"                     A'                     A'
 Frequencies --    676.5975               700.1113              1084.9581
 Red. masses --      1.8029                 9.0642                 1.3092
 Frc consts  --      0.4863                 2.6177                 0.9080
 IR Inten    --      1.2103               629.9955               239.6840

                     10                     11                     12
                     A'                     A'                     A'
 Frequencies --   1265.3873              1923.4416              2649.6805
 Red. masses --      6.3412                11.9519                 1.0824
 Frc consts  --      5.9823                26.0523                 4.4774
 IR Inten    --    133.9965                97.8553               508.1049

 - Thermochemistry -
 -------------------
 Temperature   298.150 Kelvin.  Pressure   1.00000 Atm.
 Atom     1 has atomic number  6 and mass  12.00000

 Molecular mass:    61.00783 amu.
 Principal axes and moments of inertia in atomic units:
                           1         2         3
     Eigenvalues --    35.49050 755.76202 791.25252
           X            0.98489  -0.17318   0.00000
           Y            0.17318   0.98489   0.00000
           Z           -0.00000  -0.00000   1.00000
 This molecule is an asymmetric top.
 Rotational symmetry number  1.
 Rotational temperatures (Kelvin)      2.44048     0.11460     0.10946
 Rotational constants (GHZ):          50.85139     2.38798     2.28087
 Zero-point vibrational energy      61828.4 (Joules/Mol)
                                   14.77735 (Kcal/Mol)
 Warning -- explicit consideration of   5 degrees of freedom as
           vibrations may cause significant error
 Vibrational temperatures:    198.98   218.06   367.48   501.17   707.78
          (Kelvin)            936.93   973.47  1007.30  1561.01  1820.61
                             2767.40  3812.29

 Zero-point correction=                           0.023549 (Hartree/Particle)
 Thermal correction to Energy=                    0.029168
 Thermal correction to Enthalpy=                  0.030112
 Thermal correction to Gibbs Free Energy=        -0.004547
 Sum of electronic and zero-point Energies=           -188.957674
 Sum of electronic and thermal Energies=              -188.952055
 Sum of electronic and thermal Enthalpies=            -188.951111
 Sum of electronic and thermal Free Energies=         -188.985770

                     E (Thermal)             CV                S
                      KCal/Mol        Cal/Mol-Kelvin    Cal/Mol-Kelvin
 Total                   18.303             17.483             72.946
 Electronic               0.000              0.000              0.000
 Translational            0.889              2.981             38.245
 Rotational               0.889              2.981             24.566
 Vibrational             16.525             11.521             10.135
 Vibration     1          0.614              1.915              2.827
 Vibration     2          0.619              1.901              2.653
 Vibration     3          0.666              1.754              1.693
 Vibration     4          0.726              1.579              1.174
 Vibration     5          0.848              1.268              0.679

 Optimization completed.
    -- Stationary point found.
 Normal termination of Gaussian 09 at Wed Jul 20 20:44:44 2016.
