 Gaussian 09, Revision E.01,
 Gaussian 09:  EM64L-G09RevE.01 30-Nov-2015

 ---------------------------------------------
 #p b3lyp/6-311++G(3df,2p) freq symmetry=Loose
 ---------------------------------------------

 ---------
 b3lyp opt
 ---------
 Symbolic Z-matrix:
 Charge =  0 Multiplicity = 4

                         Standard orientation:
 ---------------------------------------------------------------------
 Center     Atomic      Atomic             Coordinates (Angstroms)
 Number     Number       Type             X           Y           Z
 ---------------------------------------------------------------------
      1          1           0        2.453020    0.200008    0.000000
      2          6           0        1.485757    0.661930    0.000000
      3          6           0        0.000000    0.244409    0.000000
      4          6           0       -0.841536   -0.758295   -0.000000
      5          6           0       -1.606975   -1.743371   -0.000000
      6          6           0        0.553918    1.561992    0.000000
 ---------------------------------------------------------------------

 SCF Done:  E(UB3LYP) =  -190.785264249     A.U. after   17 cycles

 The electronic state is 4-A".
 Alpha  occ. eigenvalues --  -10.25688 -10.25558 -10.24861 -10.24543 -10.21257
 Alpha  occ. eigenvalues --   -0.93848  -0.80540  -0.69233  -0.61512  -0.47738
 Alpha  occ. eigenvalues --   -0.43838  -0.42786  -0.41791  -0.34316  -0.33809
 Alpha  occ. eigenvalues --   -0.26148  -0.19288
 Alpha virt. eigenvalues --   -0.03865  -0.02503  -0.00222   0.02824   0.03249
 Alpha virt. eigenvalues --    0.04922   0.05477   0.06103   0.06857   0.08071
 Alpha virt. eigenvalues --    0.09516   0.09790   0.10147   0.11171   0.11922

  Beta  occ. eigenvalues --  -10.24347 -10.24315 -10.23743 -10.22457 -10.21483
  Beta  occ. eigenvalues --   -0.92073  -0.78266  -0.65079  -0.60164  -0.44529
  Beta  occ. eigenvalues --   -0.41617  -0.39627  -0.30138  -0.30125
  Beta virt. eigenvalues --   -0.19364  -0.14763  -0.07450  -0.01868  -0.00388
  Beta virt. eigenvalues --    0.00834   0.03504   0.03926   0.05315   0.06409
  Beta virt. eigenvalues --    0.06726   0.07355   0.08801   0.10105   0.10229

 Mulliken charges and spin densities:
               1          2
     1  H    0.262791  -0.006162
     2  C   -0.041431   0.304022
     3  C   -0.255991   0.609261
     4  C    0.128043  -0.358678
     5  C    0.052949   1.903157
     6  C   -0.146361   0.548399
 Sum of Mulliken charges =  -0.00000   3.00000

 Dipole moment (field-independent basis, Debye):
    X=              1.8253    Y=             -0.8456    Z=              0.0000  Tot=              2.0116
 Quadrupole moment (field-independent basis, Debye-Ang):
   XX=            -23.2769   YY=            -30.6539   ZZ=            -29.7545
   XY=              0.3312   XZ=             -0.0000   YZ=              0.0000

  Exact polarizability:  72.040  29.910  83.464  -0.000   0.000  36.393
 Approx polarizability: 121.771  59.508 152.932   0.000   0.000  49.183

                      1                      2                      3
                     A"                     A'                     A"
 Frequencies --    176.4962               196.7464               324.1213
 Red. masses --     11.2532                 6.7013                11.9971
 Frc consts  --      0.2065                 0.1528                 0.7426
 IR Inten    --      1.1868                 3.9382                 0.1475

                      4                      5                      6
                     A'                     A"                     A'
 Frequencies --    448.3728               569.5368               576.0750
 Red. masses --      6.4479                 1.3136                10.1302
 Frc consts  --      0.7637                 0.2510                 1.9807
 IR Inten    --      6.4425                42.2735                 4.9012

                      7                      8                      9
                     A'                     A'                     A'
 Frequencies --    734.3490               884.4460              1397.1450
 Red. masses --     10.8149                 1.2507                10.8839
 Frc consts  --      3.4362                 0.5764                12.5175
 IR Inten    --      5.0964                42.2167                58.2001

                     10                     11                     12
                     A'                     A'                     A'
 Frequencies --   1677.1589              1871.3441              3318.7480
 Red. masses --      7.9604                10.8852                 1.1158
 Frc consts  --     13.1927                22.4593                 7.2409
 IR Inten    --     46.6216                68.3666                46.8578

 - Thermochemistry -
 -------------------
 Temperature   298.150 Kelvin.  Pressure   1.00000 Atm.
 Atom     1 has atomic number  1 and mass   1.00783

 Molecular mass:    61.00783 amu.
 Principal axes and moments of inertia in atomic units:
                           1         2         3
     Eigenvalues --    47.06638 503.91298 550.97935
           X            0.69866   0.71546   0.00000
           Y            0.71546  -0.69866   0.00000
           Z           -0.00000  -0.00000   1.00000
 This molecule is an asymmetric top.
 Rotational symmetry number  1.
 Rotational temperatures (Kelvin)      1.84025     0.17188     0.15720
 Rotational constants (GHZ):          38.34460     3.58145     3.27552
 Zero-point vibrational energy      72819.9 (Joules/Mol)
                                   17.40438 (Kcal/Mol)
 Warning -- explicit consideration of   6 degrees of freedom as
           vibrations may cause significant error
 Vibrational temperatures:    253.94   283.07   466.34   645.11   819.44
          (Kelvin)            828.84  1056.56  1272.52  2010.18  2413.05
                             2692.44  4774.93

 Zero-point correction=                           0.027736 (Hartree/Particle)
 Thermal correction to Energy=                    0.032907
 Thermal correction to Enthalpy=                  0.033852
 Thermal correction to Gibbs Free Energy=        -0.000901
 Sum of electronic and zero-point Energies=           -190.757529
 Sum of electronic and thermal Energies=              -190.752357
 Sum of electronic and thermal Enthalpies=            -190.751413
 Sum of electronic and thermal Free Energies=         -190.786165

                     E (Thermal)             CV                S
                      KCal/Mol        Cal/Mol-Kelvin    Cal/Mol-Kelvin
 Total                   20.650             16.302             73.142
 Electronic               0.000              0.000              2.755
 Translational            0.889              2.981             38.245
 Rotational               0.889              2.981             24.084
 Vibrational             18.872             10.340              8.059
 Vibration     1          0.628              1.871              2.365
 Vibration     2          0.636              1.844              2.163
 Vibration     3          0.709              1.627              1.289
 Vibration     4          0.807              1.364              0.801
 Vibration     5          0.926              1.097              0.505
 Vibration     6          0.932              1.083              0.493

 Optimization completed.
    -- Stationary point found.
 Normal termination of Gaussian 09 at Mon Jun 20 14:16:08 2016.
