 Gaussian 09, Revision E.01,
 Gaussian 09:  EM64L-G09RevE.01 30-Nov-2015

 ------------------------------------------------------
 #p b3lyp/6-311++G(3df,2p) freq IOp(2/17=3) IOp(2/18=3)
 ------------------------------------------------------

 ---------
 b3lyp opt
 ---------
 Symbolic Z-matrix:
 Charge =  3 Multiplicity = 3

                         Standard orientation:
 ---------------------------------------------------------------------
 Center     Atomic      Atomic             Coordinates (Angstroms)
 Number     Number       Type             X           Y           Z
 ---------------------------------------------------------------------
      1          6           0       -1.881408   -1.498906    0.000000
      2          6           0       -1.319523   -0.314042    0.000000
      3          6           0        0.000000    0.118307    0.000000
      4          6           0        1.191176    0.569219    0.000000
      5          6           0        2.379263    1.052175    0.000000
      6          1           0       -2.217043    0.439481    0.000000
 ---------------------------------------------------------------------

 SCF Done:  E(UB3LYP) =  -189.014507042     A.U. after   22 cycles

 The electronic state is 3-A'.
 Alpha  occ. eigenvalues --  -11.14264 -11.12788 -11.07077 -10.98880 -10.97729
 Alpha  occ. eigenvalues --   -1.60194  -1.56365  -1.47365  -1.37056  -1.21436
 Alpha  occ. eigenvalues --   -1.15317  -1.14962  -1.11434  -1.08455  -1.05500
 Alpha virt. eigenvalues --   -0.90329  -0.89356  -0.87022  -0.74025  -0.65219
 Alpha virt. eigenvalues --   -0.58773  -0.53301  -0.49975  -0.48398  -0.43367
 Alpha virt. eigenvalues --   -0.41600  -0.41591  -0.38609  -0.37601  -0.36072

  Beta  occ. eigenvalues --  -11.11968 -11.09671 -11.07661 -10.98658 -10.97443
  Beta  occ. eigenvalues --   -1.59975  -1.54348  -1.45389  -1.36066  -1.21281
  Beta  occ. eigenvalues --   -1.11950  -1.07751  -1.03076
  Beta virt. eigenvalues --   -0.92850  -0.89726  -0.87261  -0.86200  -0.83517
  Beta virt. eigenvalues --   -0.71036  -0.62469  -0.57401  -0.53383  -0.49923
  Beta virt. eigenvalues --   -0.48259  -0.43161  -0.41656  -0.41594  -0.38663

 Mulliken charges and spin densities:
               1          2
     1  C    0.552724   1.037009
     2  C    0.462208  -0.118634
     3  C   -0.024232  -0.222618
     4  C    0.991875   0.008754
     5  C    0.667370   1.310624
     6  H    0.350055  -0.015134
 Sum of Mulliken charges =   3.00000   2.00000

 Dipole moment (field-independent basis, Debye):
    X=             -0.7706    Y=             -0.3626    Z=              0.0000  Tot=              0.8517
 Quadrupole moment (field-independent basis, Debye-Ang):
   XX=             35.3679   YY=             -2.8191   ZZ=            -21.2712
   XY=             24.1796   XZ=              0.0000   YZ=              0.0000

  Exact polarizability:  79.738  27.726  40.646  -0.000   0.000  22.318
 Approx polarizability: 224.578  99.135 100.206  -0.000  -0.000  28.215

                      1                      2                      3
                     A'                     A"                     A'
 Frequencies --    172.1286               197.7658               314.8184
 Red. masses --      9.7996                 5.4791                10.3421
 Frc consts  --      0.1711                 0.1263                 0.6039
 IR Inten    --     13.3458                26.9258                 1.3641

                      4                      5                      6
                     A"                     A'                     A"
 Frequencies --    420.4089               524.1117               595.7253
 Red. masses --      2.6274                 5.6346                 3.7265
 Frc consts  --      0.2736                 0.9119                 0.7792
 IR Inten    --      8.5064                 4.4728                22.6560

                      7                      8                      9
                     A'                     A'                     A'
 Frequencies --    781.8799               936.2337              1424.5416
 Red. masses --      9.5856                 1.2153                 9.8232
 Frc consts  --      3.4526                 0.6276                11.7450
 IR Inten    --     14.8559                 1.7939               192.9444

                     10                     11                     12
                     A'                     A'                     A'
 Frequencies --   1616.5578              2133.2248              2362.0874
 Red. masses --     10.7029                10.7474                 1.0848
 Frc consts  --     16.4792                28.8155                 3.5661
 IR Inten    --    120.5076              1362.6630               741.9913

 - Thermochemistry -
 -------------------
 Temperature   298.150 Kelvin.  Pressure   1.00000 Atm.
 Atom     1 has atomic number  6 and mass  12.00000

 Molecular mass:    61.00783 amu.
 Principal axes and moments of inertia in atomic units:
                           1         2         3
     Eigenvalues --    22.58977 687.61861 710.20838
           X            0.88808  -0.45968   0.00000
           Y            0.45968   0.88808   0.00000
           Z            0.00000   0.00000   1.00000
 This molecule is an asymmetric top.
 Rotational symmetry number  1.
 Rotational temperatures (Kelvin)      3.83420     0.12596     0.12196
 Rotational constants (GHZ):          79.89196     2.62463     2.54114
 Zero-point vibrational energy      68662.6 (Joules/Mol)
                                   16.41075 (Kcal/Mol)
 Warning -- explicit consideration of   6 degrees of freedom as
           vibrations may cause significant error
 Vibrational temperatures:    247.65   284.54   452.95   604.87   754.08
          (Kelvin)            857.11  1124.95  1347.03  2049.60  2325.86
                             3069.23  3398.51

 Zero-point correction=                           0.026152 (Hartree/Particle)
 Thermal correction to Energy=                    0.031357
 Thermal correction to Enthalpy=                  0.032301
 Thermal correction to Gibbs Free Energy=        -0.002176
 Sum of electronic and zero-point Energies=           -188.988355
 Sum of electronic and thermal Energies=              -188.983150
 Sum of electronic and thermal Enthalpies=            -188.982206
 Sum of electronic and thermal Free Energies=         -189.016683

                     E (Thermal)             CV                S
                      KCal/Mol        Cal/Mol-Kelvin    Cal/Mol-Kelvin
 Total                   19.677             16.281             72.562
 Electronic               0.000              0.000              2.183
 Translational            0.889              2.981             38.245
 Rotational               0.889              2.981             23.915
 Vibrational             17.899             10.319              8.219
 Vibration     1          0.626              1.877              2.412
 Vibration     2          0.637              1.843              2.154
 Vibration     3          0.702              1.645              1.337
 Vibration     4          0.783              1.426              0.891
 Vibration     5          0.879              1.197              0.601
 Vibration     6          0.953              1.041              0.457

 Optimization completed.
    -- Stationary point found.
 Normal termination of Gaussian 09 at Thu Jan 31 08:49:50 2019.
