 Gaussian 09, Revision E.01,
 Gaussian 09:  EM64L-G09RevE.01 30-Nov-2015

 ---------------------------------------------
 #p b3lyp/6-311++G(3df,2p) freq symmetry=Loose
 ---------------------------------------------

 ---------
 b3lyp opt
 ---------
 Symbolic Z-matrix:
 Charge =  0 Multiplicity = 2

                         Standard orientation:
 ---------------------------------------------------------------------
 Center     Atomic      Atomic             Coordinates (Angstroms)
 Number     Number       Type             X           Y           Z
 ---------------------------------------------------------------------
      1          1           0        2.238110   -0.780296   -0.062375
      2          6           0        1.275235   -0.338490    0.105971
      3          6           0        0.658689    0.876235   -0.131083
      4          6           0       -0.713842    0.667735    0.132645
      5          6           0       -1.525197   -0.376853   -0.042931
      6          6           0       -0.067903   -0.698578   -0.054206
 ---------------------------------------------------------------------

 SCF Done:  E(UB3LYP) =  -190.817223467     A.U. after   19 cycles

 The electronic state is 2-A.
 Alpha  occ. eigenvalues --  -10.31888 -10.28719 -10.27061 -10.25790 -10.23526
 Alpha  occ. eigenvalues --   -1.03726  -0.83819  -0.68756  -0.58369  -0.51401
 Alpha  occ. eigenvalues --   -0.49266  -0.46008  -0.41062  -0.30052  -0.28040
 Alpha  occ. eigenvalues --   -0.25682
 Alpha virt. eigenvalues --   -0.11935  -0.03536  -0.01882  -0.00908   0.01651
 Alpha virt. eigenvalues --    0.03856   0.04472   0.04785   0.06159   0.07039
 Alpha virt. eigenvalues --    0.08027   0.09129   0.09189   0.10660   0.11909

  Beta  occ. eigenvalues --  -10.31305 -10.27915 -10.26600 -10.25782 -10.23458
  Beta  occ. eigenvalues --   -1.02916  -0.83455  -0.67284  -0.57613  -0.50552
  Beta  occ. eigenvalues --   -0.46170  -0.45561  -0.39595  -0.28943  -0.26822
  Beta virt. eigenvalues --   -0.15167  -0.10962  -0.02045  -0.00863  -0.00552
  Beta virt. eigenvalues --    0.02446   0.04369   0.04617   0.05038   0.06473
  Beta virt. eigenvalues --    0.07275   0.08090   0.09353   0.09615   0.10816

 Mulliken charges and spin densities:
               1          2
     1  H    0.222371   0.001073
     2  C   -0.144896  -0.007201
     3  C   -0.139365   0.439182
     4  C    0.117726   0.222181
     5  C   -0.258633   0.024788
     6  C    0.202797   0.319978
 Sum of Mulliken charges =  -0.00000   1.00000

 Dipole moment (field-independent basis, Debye):
    X=              2.9954    Y=              0.1570    Z=              0.0656  Tot=              3.0002
 Quadrupole moment (field-independent basis, Debye-Ang):
   XX=            -31.0496   YY=            -28.9088   ZZ=            -29.4906
   XY=             -4.1197   XZ=             -0.0717   YZ=              0.3105

  Exact polarizability:  72.481   5.566  50.579  -0.941  -0.828  34.447
 Approx polarizability: 140.172  18.767 109.462  -0.164  -0.662  52.264

                      1                      2                      3
                      A                      A                      A
 Frequencies --    250.2244               478.7435               533.4185
 Red. masses --      8.3312                11.1664                 7.8645
 Frc consts  --      0.3073                 1.5079                 1.3184
 IR Inten    --      7.0822                42.7274                14.3020

                      4                      5                      6
                      A                      A                      A
 Frequencies --    583.0810               656.0136               737.7941
 Red. masses --      8.4727                 2.4761                 2.1516
 Frc consts  --      1.6972                 0.6278                 0.6900
 IR Inten    --     27.1751                48.3017                26.3382

                      7                      8                      9
                      A                      A                      A
 Frequencies --    867.6651              1099.8660              1124.7655
 Red. masses --      7.6234                 2.4967                 1.8912
 Frc consts  --      3.3815                 1.7795                 1.4096
 IR Inten    --     52.7477                 9.4066                 0.4080

                     10                     11                     12
                      A                      A                      A
 Frequencies --   1385.9960              1516.7587              3293.7774
 Red. masses --      7.7662                 9.8324                 1.1039
 Frc consts  --      8.7899                13.3274                 7.0564
 IR Inten    --      5.2174                31.6309                 8.8378

 - Thermochemistry -
 -------------------
 Temperature   298.150 Kelvin.  Pressure   1.00000 Atm.
 Atom     1 has atomic number  1 and mass   1.00783

 Molecular mass:    61.00783 amu.
 Principal axes and moments of inertia in atomic units:
                           1         2         3
     Eigenvalues --    87.98376 230.20777 313.81420
           X            0.99902  -0.04425  -0.00229
           Y            0.04425   0.99902   0.00226
           Z            0.00219  -0.00236   0.99999
 This molecule is an asymmetric top.
 Rotational symmetry number  1.
 Rotational temperatures (Kelvin)      0.98443     0.37624     0.27600
 Rotational constants (GHZ):          20.51221     7.83962     5.75099
 Zero-point vibrational energy      74934.7 (Joules/Mol)
                                   17.90982 (Kcal/Mol)
 Warning -- explicit consideration of   4 degrees of freedom as
           vibrations may cause significant error
 Vibrational temperatures:    360.02   688.80   767.47   838.92   943.86
          (Kelvin)           1061.52  1248.38  1582.46  1618.28  1994.14
                             2182.27  4739.01

 Zero-point correction=                           0.028541 (Hartree/Particle)
 Thermal correction to Energy=                    0.032821
 Thermal correction to Enthalpy=                  0.033765
 Thermal correction to Gibbs Free Energy=         0.001729
 Sum of electronic and zero-point Energies=           -190.788682
 Sum of electronic and thermal Energies=              -190.784402
 Sum of electronic and thermal Enthalpies=            -190.783458
 Sum of electronic and thermal Free Energies=         -190.815495

                     E (Thermal)             CV                S
                      KCal/Mol        Cal/Mol-Kelvin    Cal/Mol-Kelvin
 Total                   20.596             14.207             67.426
 Electronic               0.000              0.000              1.377
 Translational            0.889              2.981             38.245
 Rotational               0.889              2.981             23.368
 Vibrational             18.818              8.245              4.436
 Vibration     1          0.663              1.762              1.729
 Vibration     2          0.835              1.297              0.713
 Vibration     3          0.888              1.176              0.580
 Vibration     4          0.940              1.068              0.480

 Normal termination of Gaussian 09 at Mon Jun 20 13:58:35 2016.
