 Gaussian 09, Revision E.01,
 Gaussian 09:  EM64L-G09RevE.01 30-Nov-2015

 ---------------------------------------------
 #p b3lyp/6-311++G(3df,2p) freq symmetry=Loose
 ---------------------------------------------

 ---------
 b3lyp opt
 ---------
 Symbolic Z-matrix:
 Charge =  1 Multiplicity = 1

                         Standard orientation:
 ---------------------------------------------------------------------
 Center     Atomic      Atomic             Coordinates (Angstroms)
 Number     Number       Type             X           Y           Z
 ---------------------------------------------------------------------
      1          1           0       -0.748019    1.918243   -0.575622
      2          6           0       -0.545345    0.956678   -0.117937
      3          6           0        0.529024    0.034765    0.023400
      4          6           0       -0.557469   -1.139344   -0.313869
      5          6           0       -1.164691   -0.141165    0.417161
      6          6           0        1.863151   -0.030641    0.087182
 ---------------------------------------------------------------------

 SCF Done:  E(RB3LYP) =  -190.435092436     A.U. after   13 cycles

 The electronic state is 1-A.
 Alpha  occ. eigenvalues --  -10.57627 -10.54815 -10.54577 -10.54440 -10.51713
 Alpha  occ. eigenvalues --   -1.26448  -1.03058  -0.96964  -0.82582  -0.80289
 Alpha  occ. eigenvalues --   -0.70098  -0.68457  -0.57717  -0.56147  -0.54096
 Alpha virt. eigenvalues --   -0.41138  -0.38330  -0.36568  -0.28033  -0.23249
 Alpha virt. eigenvalues --   -0.15575  -0.14243  -0.13257  -0.10857  -0.10407
 Alpha virt. eigenvalues --   -0.08738  -0.07724  -0.06470  -0.05712  -0.05237

 Mulliken charges:
               1
     1  H    0.326435
     2  C   -0.138362
     3  C    0.707551
     4  C   -0.169127
     5  C    0.436688
     6  C   -0.163185
 Sum of Mulliken charges =   1.00000

 Dipole moment (field-independent basis, Debye):
    X=             -1.7249    Y=              2.6957    Z=              0.1084  Tot=              3.2021
 Quadrupole moment (field-independent basis, Debye-Ang):
   XX=            -22.1669   YY=            -19.5259   ZZ=            -25.8054
   XY=             -1.8840   XZ=              0.7124   YZ=             -2.6420

  Exact polarizability:  66.002   1.122  46.296  -1.425   0.124  30.886
 Approx polarizability: 186.435   6.041  91.648 -12.299   0.936  52.580

                      1                      2                      3
                      A                      A                      A
 Frequencies --    124.2576               247.0734               314.8056
 Red. masses --      8.7769                 9.3476                 5.3354
 Frc consts  --      0.0798                 0.3362                 0.3115
 IR Inten    --     15.2994                 0.3853                22.2113

                      4                      5                      6
                      A                      A                      A
 Frequencies --    498.7560               595.9517               848.8903
 Red. masses --      7.7253                 9.9104                 2.1275
 Frc consts  --      1.1322                 2.0738                 0.9033
 IR Inten    --      7.6874                13.0604                55.1387

                      7                      8                      9
                      A                      A                      A
 Frequencies --    912.0213              1051.4515              1225.7149
 Red. masses --      2.2020                 1.5549                 5.4108
 Frc consts  --      1.0791                 1.0128                 4.7895
 IR Inten    --      8.6619                11.8105                45.5774

                     10                     11                     12
                      A                      A                      A
 Frequencies --   1334.5308              1656.6110              3211.6301
 Red. masses --      7.8057                10.0963                 1.1120
 Frc consts  --      8.1907                16.3250                 6.7577
 IR Inten    --    133.5562               356.7896               100.9974

 - Thermochemistry -
 -------------------
 Temperature   298.150 Kelvin.  Pressure   1.00000 Atm.
 Atom     1 has atomic number  1 and mass   1.00783

 Molecular mass:    61.00783 amu.
 Principal axes and moments of inertia in atomic units:
                           1         2         3
     Eigenvalues --   122.42088 260.74231 355.92684
           X            0.99929  -0.03687   0.00757
           Y            0.03716   0.99842  -0.04213
           Z           -0.00601   0.04238   0.99908
 This molecule is an asymmetric top.
 Rotational symmetry number  1.
 Rotational temperatures (Kelvin)      0.70751     0.33218     0.24335
 Rotational constants (GHZ):          14.74210     6.92155     5.07054
 Zero-point vibrational energy      71905.7 (Joules/Mol)
                                   17.18587 (Kcal/Mol)
 Warning -- explicit consideration of   5 degrees of freedom as
           vibrations may cause significant error
 Vibrational temperatures:    178.78   355.48   452.93   717.60   857.44
          (Kelvin)           1221.36  1312.19  1512.80  1763.53  1920.09
                             2383.49  4620.81

 Zero-point correction=                           0.027387 (Hartree/Particle)
 Thermal correction to Energy=                    0.032364
 Thermal correction to Enthalpy=                  0.033308
 Thermal correction to Gibbs Free Energy=         0.000107
 Sum of electronic and zero-point Energies=           -190.407705
 Sum of electronic and thermal Energies=              -190.402729
 Sum of electronic and thermal Enthalpies=            -190.401785
 Sum of electronic and thermal Free Energies=         -190.434985

                     E (Thermal)             CV                S
                      KCal/Mol        Cal/Mol-Kelvin    Cal/Mol-Kelvin
 Total                   20.308             15.342             69.876
 Electronic               0.000              0.000              0.000
 Translational            0.889              2.981             38.245
 Rotational               0.889              2.981             23.945
 Vibrational             18.531              9.380              7.686
 Vibration     1          0.610              1.929              3.033
 Vibration     2          0.661              1.768              1.751
 Vibration     3          0.702              1.645              1.337
 Vibration     4          0.854              1.253              0.661
 Vibration     5          0.954              1.040              0.457

 Optimization completed.
    -- Stationary point found.
 Normal termination of Gaussian 09 at Mon Jun 20 14:23:45 2016.
