 Gaussian 09, Revision E.01,
 Gaussian 09:  EM64L-G09RevE.01 30-Nov-2015

 ---------------------------------------------
 #p b3lyp/6-311++G(3df,2p) freq symmetry=Loose
 ---------------------------------------------

 ---------
 b3lyp opt
 ---------
 Symbolic Z-matrix:
 Charge =  0 Multiplicity = 4

                         Standard orientation:
 ---------------------------------------------------------------------
 Center     Atomic      Atomic             Coordinates (Angstroms)
 Number     Number       Type             X           Y           Z
 ---------------------------------------------------------------------
      1          6           0       -0.904293   -0.737271    0.000000
      2          6           0       -1.296952    0.566096    0.000000
      3          6           0        1.244822    0.213143   -0.000000
      4          6           0        0.579659   -0.979571   -0.000000
      5          6           0        0.000000    0.845403    0.000000
      6          1           0        2.260580    0.553198   -0.000000
 ---------------------------------------------------------------------

 SCF Done:  E(UB3LYP) =  -190.797913309     A.U. after   17 cycles

 The electronic state is 4-A".
 Alpha  occ. eigenvalues --  -10.29069 -10.26601 -10.26488 -10.23272 -10.22991
 Alpha  occ. eigenvalues --   -0.97858  -0.80331  -0.68981  -0.56750  -0.53393
 Alpha  occ. eigenvalues --   -0.49440  -0.45613  -0.40554  -0.29726  -0.28744
 Alpha  occ. eigenvalues --   -0.26129  -0.25506
 Alpha virt. eigenvalues --   -0.08306  -0.00296  -0.00012   0.01777   0.03887
 Alpha virt. eigenvalues --    0.04497   0.05476   0.06061   0.06295   0.07685
 Alpha virt. eigenvalues --    0.08988   0.09462   0.10623   0.11456   0.12283

  Beta  occ. eigenvalues --  -10.28279 -10.24643 -10.24618 -10.22970 -10.22062
  Beta  occ. eigenvalues --   -0.95818  -0.78581  -0.64568  -0.55347  -0.49918
  Beta  occ. eigenvalues --   -0.46650  -0.41644  -0.33909  -0.26721
  Beta virt. eigenvalues --   -0.15314  -0.13741  -0.10490  -0.05501  -0.00225
  Beta virt. eigenvalues --    0.03201   0.04381   0.05314   0.05533   0.06490
  Beta virt. eigenvalues --    0.06610   0.07060   0.07904   0.09004   0.10060

 Mulliken charges and spin densities:
               1          2
     1  C   -0.198077   1.045368
     2  C   -0.122506   0.562937
     3  C   -0.065363  -0.105641
     4  C   -0.155625   1.167768
     5  C    0.315825   0.323897
     6  H    0.225745   0.005671
 Sum of Mulliken charges =  -0.00000   3.00000

 Dipole moment (field-independent basis, Debye):
    X=              1.9643    Y=              0.8656    Z=             -0.0000  Tot=              2.1466
 Quadrupole moment (field-independent basis, Debye-Ang):
   XX=            -27.8614   YY=            -28.6467   ZZ=            -29.9621
   XY=              1.6576   XZ=              0.0000   YZ=             -0.0000

  Exact polarizability:  66.737  -3.637  54.713   0.000   0.000  35.045
 Approx polarizability: 122.431  -4.817 115.013  -0.000   0.000  49.797

                      1                      2                      3
                     A"                     A'                     A"
 Frequencies --    294.0390               380.2338               560.3697
 Red. masses --     11.2967                10.7532                 4.3998
 Frc consts  --      0.5755                 0.9160                 0.8140
 IR Inten    --      2.4666                 9.1189                14.4692

                      4                      5                      6
                     A'                     A"                     A'
 Frequencies --    615.6449               658.5486               912.2291
 Red. masses --      9.4068                 1.3693                 3.7470
 Frc consts  --      2.1007                 0.3499                 1.8372
 IR Inten    --      5.6569                44.2509                 0.3743

                      7                      8                      9
                     A'                     A'                     A'
 Frequencies --   1022.4067              1047.6517              1156.4444
 Red. masses --      6.5729                11.0345                 1.5436
 Frc consts  --      4.0481                 7.1357                 1.2163
 IR Inten    --      8.3925                 5.1539                18.3204

                     10                     11                     12
                     A'                     A'                     A'
 Frequencies --   1387.7954              1623.2129              3305.1470
 Red. masses --      8.7094                 9.8915                 1.1019
 Frc consts  --      9.8830                15.3554                 7.0923
 IR Inten    --      4.6246                 6.7668                 9.8146

 - Thermochemistry -
 -------------------
 Temperature   298.150 Kelvin.  Pressure   1.00000 Atm.
 Atom     1 has atomic number  6 and mass  12.00000

 Molecular mass:    61.00783 amu.
 Principal axes and moments of inertia in atomic units:
                           1         2         3
     Eigenvalues --   110.43791 207.39044 317.82835
           X            0.99293   0.11869   0.00000
           Y           -0.11869   0.99293   0.00000
           Z           -0.00000   0.00000   1.00000
 This molecule is an asymmetric top.
 Rotational symmetry number  1.
 Rotational temperatures (Kelvin)      0.78428     0.41764     0.27252
 Rotational constants (GHZ):          16.34168     8.70214     5.67835
 Zero-point vibrational energy      77540.3 (Joules/Mol)
                                   18.53257 (Kcal/Mol)
 Warning -- explicit consideration of   4 degrees of freedom as
           vibrations may cause significant error
 Vibrational temperatures:    423.06   547.07   806.25   885.77   947.50
          (Kelvin)           1312.49  1471.01  1507.34  1663.86  1996.73
                             2335.44  4755.36

 Zero-point correction=                           0.029534 (Hartree/Particle)
 Thermal correction to Energy=                    0.033735
 Thermal correction to Enthalpy=                  0.034679
 Thermal correction to Gibbs Free Energy=         0.002052
 Sum of electronic and zero-point Energies=           -190.768380
 Sum of electronic and thermal Energies=              -190.764179
 Sum of electronic and thermal Enthalpies=            -190.763234
 Sum of electronic and thermal Free Energies=         -190.795861

                     E (Thermal)             CV                S
                      KCal/Mol        Cal/Mol-Kelvin    Cal/Mol-Kelvin
 Total                   21.169             13.744             68.668
 Electronic               0.000              0.000              2.755
 Translational            0.889              2.981             38.245
 Rotational               0.889              2.981             23.502
 Vibrational             19.391              7.782              4.166
 Vibration     1          0.689              1.685              1.451
 Vibration     2          0.750              1.512              1.038
 Vibration     3          0.916              1.117              0.523
 Vibration     4          0.975              0.999              0.424

 Optimization completed.
    -- Stationary point found.
 Normal termination of Gaussian 09 at Tue Jul  5 16:26:15 2016.
