 Gaussian 09, Revision E.01,
 Gaussian 09:  EM64L-G09RevE.01 30-Nov-2015

 ---------------------------------------------
 #p b3lyp/6-311++G(3df,2p) freq symmetry=Loose
 ---------------------------------------------

 ---------
 b3lyp opt
 ---------
 Symbolic Z-matrix:
 Charge =  3 Multiplicity = 3

                         Standard orientation:
 ---------------------------------------------------------------------
 Center     Atomic      Atomic             Coordinates (Angstroms)
 Number     Number       Type             X           Y           Z
 ---------------------------------------------------------------------
      1          6           0        0.000000   -0.000000    2.291247
      2          6           0        0.000000   -0.000000    0.727971
      3          6           0       -0.000000    0.790138   -0.462493
      4          6           0       -0.000000    0.000000   -1.633636
      5          6           0       -0.000000   -0.790138   -0.462493
      6          1           0       -0.000000    0.000000   -2.763567
 ---------------------------------------------------------------------

 SCF Done:  E(UB3LYP) =  -188.971423581     A.U. after   19 cycles

 The electronic state is 3-B1.
 Alpha  occ. eigenvalues --  -11.16798 -11.15307 -11.15288 -11.09668 -11.08507
 Alpha  occ. eigenvalues --   -1.82472  -1.56629  -1.45190  -1.38383  -1.26251
 Alpha  occ. eigenvalues --   -1.24004  -1.23949  -1.14556  -1.10014  -1.05461
 Alpha virt. eigenvalues --   -0.91644  -0.88576  -0.88534  -0.82581  -0.72464
 Alpha virt. eigenvalues --   -0.67626  -0.55226  -0.53478  -0.52351  -0.49220
 Alpha virt. eigenvalues --   -0.48667  -0.45275  -0.42567  -0.41417  -0.41179

  Beta  occ. eigenvalues --  -11.16028 -11.14201 -11.14190 -11.08933 -11.08116
  Beta  occ. eigenvalues --   -1.81153  -1.54365  -1.42951  -1.34281  -1.25208
  Beta  occ. eigenvalues --   -1.23111  -1.20878  -1.07681
  Beta virt. eigenvalues --   -0.99206  -0.94485  -0.89658  -0.86186  -0.82760
  Beta virt. eigenvalues --   -0.77031  -0.67371  -0.65090  -0.54733  -0.52650
  Beta virt. eigenvalues --   -0.51317  -0.47782  -0.47428  -0.44823  -0.41566

 Mulliken charges and spin densities:
               1          2
     1  C    0.420073   0.476893
     2  C   -0.223137   0.591830
     3  C    1.412585   0.302588
     4  C   -0.473852   0.319430
     5  C    1.412585   0.302588
     6  H    0.451747   0.006670
 Sum of Mulliken charges =   3.00000   2.00000

 Dipole moment (field-independent basis, Debye):
    X=             -0.0000    Y=              0.0000    Z=             -0.4027  Tot=              0.4027
 Quadrupole moment (field-independent basis, Debye-Ang):
   XX=            -20.2344   YY=            -14.5438   ZZ=             20.5117
   XY=              0.0000   XZ=              0.0000   YZ=             -0.0000

  Exact polarizability:  21.353   0.000  28.884  -0.000   0.000  82.614
 Approx polarizability:  32.682   0.000  69.086   0.000   0.000 196.119

                      1                      2                      3
                     B1                     B2                     B1
 Frequencies --    157.6922               291.2694               427.6748
 Red. masses --      7.3963                 7.7467                 4.7253
 Frc consts  --      0.1084                 0.3872                 0.5092
 IR Inten    --      3.6643                 0.8275                 2.0757

                      4                      5                      6
                     A1                     B2                     B2
 Frequencies --    503.3039               685.7391               775.4745
 Red. masses --     10.8795                 5.7704                 6.5573
 Frc consts  --      1.6238                 1.5987                 2.3233
 IR Inten    --     29.5243                 2.1828                 6.2421

                      7                      8                      9
                     B1                     A1                     B2
 Frequencies --    779.0489               938.2869               992.7673
 Red. masses --      1.3629                10.2076                 1.3960
 Frc consts  --      0.4874                 5.2947                 0.8106
 IR Inten    --     41.3738                44.3104                45.3371

                     10                     11                     12
                     A1                     A1                     A1
 Frequencies --   1303.3013              1329.1673              2773.7171
 Red. masses --      7.0281                10.7561                 1.1294
 Frc consts  --      7.0336                11.1960                 5.1195
 IR Inten    --    335.7127                98.9543               881.5784

 - Thermochemistry -
 -------------------
 Temperature   298.150 Kelvin.  Pressure   1.00000 Atm.
 Atom     1 has atomic number  6 and mass  12.00000

 Molecular mass:    61.00783 amu.
 Principal axes and moments of inertia in atomic units:
                           1         2         3
     Eigenvalues --    53.50747 407.42171 460.92917
           X            0.00000  -0.00000   1.00000
           Y            0.00000   1.00000   0.00000
           Z            1.00000  -0.00000  -0.00000
 This molecule is an asymmetric top.
 Rotational symmetry number  2.
 Rotational temperatures (Kelvin)      1.61872     0.21259     0.18791
 Rotational constants (GHZ):          33.72877     4.42966     3.91544
 Zero-point vibrational energy      65540.1 (Joules/Mol)
                                   15.66445 (Kcal/Mol)
 Warning -- explicit consideration of   4 degrees of freedom as
           vibrations may cause significant error
 Vibrational temperatures:    226.88   419.07   615.33   724.14   986.62
          (Kelvin)           1115.73  1120.88  1349.98  1428.37  1875.16
                             1912.37  3990.76

 Zero-point correction=                           0.024963 (Hartree/Particle)
 Thermal correction to Energy=                    0.029756
 Thermal correction to Enthalpy=                  0.030701
 Thermal correction to Gibbs Free Energy=        -0.002311
 Sum of electronic and zero-point Energies=           -188.946461
 Sum of electronic and thermal Energies=              -188.941667
 Sum of electronic and thermal Enthalpies=            -188.940723
 Sum of electronic and thermal Free Energies=         -188.973734

                     E (Thermal)             CV                S
                      KCal/Mol        Cal/Mol-Kelvin    Cal/Mol-Kelvin
 Total                   18.672             15.549             69.478
 Electronic               0.000              0.000              2.183
 Translational            0.889              2.981             38.245
 Rotational               0.889              2.981             22.445
 Vibrational             16.895              9.588              6.604
 Vibration     1          0.621              1.894              2.577
 Vibration     2          0.687              1.690              1.467
 Vibration     3          0.789              1.410              0.866
 Vibration     4          0.859              1.243              0.650

 Optimization completed.
    -- Stationary point found.
 Normal termination of Gaussian 09 at Wed Jul 20 21:34:55 2016.
