 Gaussian 09, Revision E.01,
 Gaussian 09:  EM64L-G09RevE.01 30-Nov-2015

 ---------------------------------------------
 #p b3lyp/6-311++G(3df,2p) freq symmetry=Loose
 ---------------------------------------------

 ---------
 b3lyp opt
 ---------
 Symbolic Z-matrix:
 Charge =  3 Multiplicity = 3

                         Standard orientation:
 ---------------------------------------------------------------------
 Center     Atomic      Atomic             Coordinates (Angstroms)
 Number     Number       Type             X           Y           Z
 ---------------------------------------------------------------------
      1          6           0       -0.463048   -2.233435    0.000000
      2          6           0        0.000000    0.700923   -0.000000
      3          6           0        1.239737    0.019831    0.000000
      4          6           0        0.164705   -0.782146    0.000000
      5          6           0       -0.721986    1.829372   -0.000000
      6          1           0       -1.316448    2.792734   -0.000000
 ---------------------------------------------------------------------

 SCF Done:  E(UB3LYP) =  -188.986450327     A.U. after   23 cycles

 The electronic state is 3-A".
 Alpha  occ. eigenvalues --  -11.17333 -11.09541 -11.08065 -11.04820 -11.04583
 Alpha  occ. eigenvalues --   -1.71549  -1.54554  -1.46676  -1.28062  -1.24177
 Alpha  occ. eigenvalues --   -1.20656  -1.17352  -1.08289  -1.06372  -1.04224
 Alpha virt. eigenvalues --   -0.91553  -0.91135  -0.85828  -0.73800  -0.72900
 Alpha virt. eigenvalues --   -0.62580  -0.59850  -0.53436  -0.51532  -0.46349
 Alpha virt. eigenvalues --   -0.43738  -0.43338  -0.43311  -0.40306  -0.37318

  Beta  occ. eigenvalues --  -11.17185 -11.08148 -11.06128 -11.04640 -11.04167
  Beta  occ. eigenvalues --   -1.70457  -1.50557  -1.45508  -1.26241  -1.20822
  Beta  occ. eigenvalues --   -1.19253  -1.14102  -1.07351
  Beta virt. eigenvalues --   -0.93304  -0.91099  -0.89364  -0.86734  -0.81725
  Beta virt. eigenvalues --   -0.70443  -0.68012  -0.61370  -0.57959  -0.51960
  Beta virt. eigenvalues --   -0.49867  -0.45509  -0.43382  -0.42917  -0.42689

 Mulliken charges and spin densities:
               1          2
     1  C    0.824517   0.080269
     2  C    0.214028   0.141846
     3  C    0.394128   0.861352
     4  C    0.366394   0.192388
     5  C    0.675775   0.743014
     6  H    0.525158  -0.018869
 Sum of Mulliken charges =   3.00000   2.00000

 Dipole moment (field-independent basis, Debye):
    X=             -2.3897    Y=              1.3237    Z=             -0.0000  Tot=              2.7319
 Quadrupole moment (field-independent basis, Debye-Ang):
   XX=             -8.8777   YY=             25.4891   ZZ=            -20.3484
   XY=             -7.3363   XZ=              0.0000   YZ=             -0.0000

  Exact polarizability:  35.533  -5.603  76.643   0.000  -0.000  21.896
 Approx polarizability:  72.444 -14.293 174.108   0.000  -0.000  33.368

                      1                      2                      3
                     A'                     A"                     A'
 Frequencies --    199.3308               300.6364               363.1606
 Red. masses --      5.0310                 8.5362                 4.8026
 Frc consts  --      0.1178                 0.4546                 0.3732
 IR Inten    --     10.2300                 7.9705                18.1987

                      4                      5                      6
                     A"                     A'                     A"
 Frequencies --    406.2238               517.6391               581.9606
 Red. masses --      4.0143                 9.6473                 1.4814
 Frc consts  --      0.3903                 1.5230                 0.2956
 IR Inten    --     16.3303               190.7438                25.0176

                      7                      8                      9
                     A'                     A'                     A'
 Frequencies --    779.1561               862.7831               969.5505
 Red. masses --      9.4135                 1.8387                 4.6205
 Frc consts  --      3.3671                 0.8064                 2.5590
 IR Inten    --    271.9134                 4.8374                 5.0115

                     10                     11                     12
                     A'                     A'                     A'
 Frequencies --   1360.8523              1623.9330              2778.3436
 Red. masses --      8.4224                 9.8779                 1.1355
 Frc consts  --      9.1898                15.3479                 5.1645
 IR Inten    --    686.8734               133.3372               831.1214

 - Thermochemistry -
 -------------------
 Temperature   298.150 Kelvin.  Pressure   1.00000 Atm.
 Atom     1 has atomic number  6 and mass  12.00000

 Molecular mass:    61.00783 amu.
 Principal axes and moments of inertia in atomic units:
                           1         2         3
     Eigenvalues --   102.00343 434.76154 536.76498
           X           -0.08982   0.99596   0.00000
           Y            0.99596   0.08982   0.00000
           Z            0.00000   0.00000   1.00000
 This molecule is an asymmetric top.
 Rotational symmetry number  1.
 Rotational temperatures (Kelvin)      0.84913     0.19922     0.16136
 Rotational constants (GHZ):          17.69295     4.15111     3.36226
 Zero-point vibrational energy      64260.8 (Joules/Mol)
                                   15.35870 (Kcal/Mol)
 Warning -- explicit consideration of   6 degrees of freedom as
           vibrations may cause significant error
 Vibrational temperatures:    286.79   432.55   522.51   584.46   744.77
          (Kelvin)            837.31  1121.03  1241.35  1394.97  1957.96
                             2336.47  3997.41

 Zero-point correction=                           0.024476 (Hartree/Particle)
 Thermal correction to Energy=                    0.029521
 Thermal correction to Enthalpy=                  0.030465
 Thermal correction to Gibbs Free Energy=        -0.003900
 Sum of electronic and zero-point Energies=           -188.961975
 Sum of electronic and thermal Energies=              -188.956929
 Sum of electronic and thermal Enthalpies=            -188.955985
 Sum of electronic and thermal Free Energies=         -188.990350

                     E (Thermal)             CV                S
                      KCal/Mol        Cal/Mol-Kelvin    Cal/Mol-Kelvin
 Total                   18.525             16.581             72.327
 Electronic               0.000              0.000              2.183
 Translational            0.889              2.981             38.245
 Rotational               0.889              2.981             24.680
 Vibrational             16.747             10.619              7.219
 Vibration     1          0.637              1.841              2.139
 Vibration     2          0.693              1.672              1.413
 Vibration     3          0.737              1.548              1.109
 Vibration     4          0.771              1.457              0.940
 Vibration     5          0.873              1.211              0.615
 Vibration     6          0.939              1.070              0.482

 Optimization completed.
    -- Stationary point found.
 Normal termination of Gaussian 09 at Wed Jul 20 21:52:19 2016.
