 Gaussian 09, Revision E.01,
 Gaussian 09:  EM64L-G09RevE.01 30-Nov-2015

 ---------------------------------------------
 #p b3lyp/6-311++G(3df,2p) freq symmetry=Loose
 ---------------------------------------------

 ---------
 b3lyp opt
 ---------
 Symbolic Z-matrix:
 Charge =  0 Multiplicity = 2

                         Standard orientation:
 ---------------------------------------------------------------------
 Center     Atomic      Atomic             Coordinates (Angstroms)
 Number     Number       Type             X           Y           Z
 ---------------------------------------------------------------------
      1          6           0       -0.033099    1.915380    0.000000
      2          6           0        0.000000    0.631761    0.000000
      3          6           0       -0.723731   -0.637108    0.000000
      4          6           0        0.086180   -1.802227    0.000000
      5          6           0        0.780101   -0.572102    0.000000
      6          1           0       -0.656706    2.785770    0.000000
 ---------------------------------------------------------------------

 SCF Done:  E(UB3LYP) =  -190.836924590     A.U. after   17 cycles

 The electronic state is 2-A'.
 Alpha  occ. eigenvalues --  -10.28766 -10.28632 -10.28201 -10.25854 -10.24269
 Alpha  occ. eigenvalues --   -1.02424  -0.82699  -0.69925  -0.57540  -0.55831
 Alpha  occ. eigenvalues --   -0.46319  -0.44491  -0.35931  -0.31823  -0.29914
 Alpha  occ. eigenvalues --   -0.27455
 Alpha virt. eigenvalues --   -0.09597  -0.09247  -0.03645  -0.00785   0.03184
 Alpha virt. eigenvalues --    0.03764   0.05010   0.05830   0.05940   0.06099
 Alpha virt. eigenvalues --    0.07584   0.09742   0.10476   0.10504   0.10652

  Beta  occ. eigenvalues --  -10.28542 -10.28474 -10.28397 -10.24351 -10.24223
  Beta  occ. eigenvalues --   -1.02245  -0.80876  -0.68359  -0.56659  -0.54616
  Beta  occ. eigenvalues --   -0.46349  -0.42872  -0.35375  -0.30842  -0.27303
  Beta virt. eigenvalues --   -0.15638  -0.09244  -0.08562  -0.02650  -0.00584
  Beta virt. eigenvalues --    0.03261   0.03672   0.05542   0.05985   0.06046
  Beta virt. eigenvalues --    0.07047   0.07611   0.09903   0.10538   0.10869

 Mulliken charges and spin densities:
               1          2
     1  C   -0.620474   0.975810
     2  C    0.401605  -0.147394
     3  C    0.308999   0.086757
     4  C   -0.758271   0.033940
     5  C    0.406015   0.047935
     6  H    0.262126   0.002952
 Sum of Mulliken charges =  -0.00000   1.00000

 Dipole moment (field-independent basis, Debye):
    X=             -0.6007    Y=              3.9335    Z=              0.0000  Tot=              3.9791
 Quadrupole moment (field-independent basis, Debye-Ang):
   XX=            -30.1408   YY=            -31.0511   ZZ=            -28.5504
   XY=             -1.6820   XZ=              0.0000   YZ=              0.0000

  Exact polarizability:  46.035  -2.039  83.746  -0.001   0.001  33.991
 Approx polarizability:  94.348  -1.787 151.302  -0.000  -0.000  52.212

                      1                      2                      3
                     A"                     A'                     A'
 Frequencies --    253.3184               328.0721               478.3821
 Red. masses --      6.9484                 2.9699                 3.6252
 Frc consts  --      0.2627                 0.1883                 0.4888
 IR Inten    --      2.5429                10.3681                40.9953

                      4                      5                      6
                     A"                     A"                     A'
 Frequencies --    581.2770               624.2749               664.7599
 Red. masses --     10.8674                 1.2232                 2.1284
 Frc consts  --      2.1634                 0.2809                 0.5542
 IR Inten    --      0.0432                46.8582                65.1172

                      7                      8                      9
                     A'                     A'                     A'
 Frequencies --    807.8129               895.3020              1077.5875
 Red. masses --      9.6673                11.9007                10.7318
 Frc consts  --      3.7169                 5.6203                 7.3422
 IR Inten    --      9.5793                16.1426                 7.6774

                     10                     11                     12
                     A'                     A'                     A'
 Frequencies --   1433.6583              1780.3230              3332.2380
 Red. masses --     11.8473                 8.0302                 1.1107
 Frc consts  --     14.3470                14.9960                 7.2663
 IR Inten    --     73.0166                16.9696                42.9907

 - Thermochemistry -
 -------------------
 Temperature   298.150 Kelvin.  Pressure   1.00000 Atm.
 Atom     1 has atomic number  6 and mass  12.00000

 Molecular mass:    61.00783 amu.
 Principal axes and moments of inertia in atomic units:
                           1         2         3
     Eigenvalues --    49.69902 373.12391 422.82293
           X           -0.04710   0.99889   0.00000
           Y            0.99889   0.04710   0.00000
           Z           -0.00000   0.00000   1.00000
 This molecule is an asymmetric top.
 Rotational symmetry number  1.
 Rotational temperatures (Kelvin)      1.74277     0.23213     0.20485
 Rotational constants (GHZ):          36.31341     4.83684     4.26831
 Zero-point vibrational energy      73313.2 (Joules/Mol)
                                   17.52227 (Kcal/Mol)
 Warning -- explicit consideration of   4 degrees of freedom as
           vibrations may cause significant error
 Vibrational temperatures:    364.47   472.02   688.28   836.33   898.19
          (Kelvin)            956.44  1162.26  1288.14  1550.41  2062.71
                             2561.48  4794.34

 Zero-point correction=                           0.027924 (Hartree/Particle)
 Thermal correction to Energy=                    0.032476
 Thermal correction to Enthalpy=                  0.033421
 Thermal correction to Gibbs Free Energy=         0.000843
 Sum of electronic and zero-point Energies=           -190.809001
 Sum of electronic and thermal Energies=              -190.804448
 Sum of electronic and thermal Enthalpies=            -190.803504
 Sum of electronic and thermal Free Energies=         -190.836081

                     E (Thermal)             CV                S
                      KCal/Mol        Cal/Mol-Kelvin    Cal/Mol-Kelvin
 Total                   20.379             15.153             68.564
 Electronic               0.000              0.000              1.377
 Translational            0.889              2.981             38.245
 Rotational               0.889              2.981             23.576
 Vibrational             18.602              9.191              5.366
 Vibration     1          0.664              1.757              1.707
 Vibration     2          0.711              1.619              1.270
 Vibration     3          0.835              1.298              0.714
 Vibration     4          0.938              1.072              0.483

 Normal termination of Gaussian 09 at Mon Jun 20 13:49:26 2016.
