 Gaussian 09, Revision E.01,
 Gaussian 09:  EM64L-G09RevE.01 30-Nov-2015

 ---------------------------------------------
 #p b3lyp/6-311++G(3df,2p) freq symmetry=Loose
 ---------------------------------------------

 ---------
 b3lyp opt
 ---------
 Symbolic Z-matrix:
 Charge =  0 Multiplicity = 2

                         Standard orientation:
 ---------------------------------------------------------------------
 Center     Atomic      Atomic             Coordinates (Angstroms)
 Number     Number       Type             X           Y           Z
 ---------------------------------------------------------------------
      1          1           0        0.000000   -0.000000    1.873042
      2          6           0        0.000000   -0.000000    0.786472
      3          6           0        0.000000    1.134018    0.033099
      4          6           0        0.000000    2.253932   -0.582422
      5          6           0       -0.000000   -1.134018    0.033099
      6          6           0       -0.000000   -2.253932   -0.582422
 ---------------------------------------------------------------------

 SCF Done:  E(UB3LYP) =  -190.829231742     A.U. after   16 cycles

 The electronic state is 2-B2.
 Alpha  occ. eigenvalues --  -10.31617 -10.26019 -10.26017 -10.24516 -10.24513
 Alpha  occ. eigenvalues --   -0.90509  -0.81169  -0.75996  -0.60853  -0.58189
 Alpha  occ. eigenvalues --   -0.42685  -0.35994  -0.33669  -0.33283  -0.33061
 Alpha  occ. eigenvalues --   -0.32621
 Alpha virt. eigenvalues --   -0.18461  -0.05277  -0.01129  -0.00418  -0.00350
 Alpha virt. eigenvalues --    0.02588   0.03004   0.03302   0.06405   0.06559
 Alpha virt. eigenvalues --    0.07061   0.07074   0.08762   0.08818   0.09026

  Beta  occ. eigenvalues --  -10.31634 -10.25527 -10.25526 -10.24171 -10.24169
  Beta  occ. eigenvalues --   -0.89812  -0.79265  -0.74406  -0.60196  -0.57742
  Beta  occ. eigenvalues --   -0.42520  -0.32577  -0.32520  -0.31990  -0.30878
  Beta virt. eigenvalues --   -0.23917  -0.18079  -0.03692  -0.00535   0.00065
  Beta virt. eigenvalues --    0.02063   0.02959   0.03076   0.03516   0.06591
  Beta virt. eigenvalues --    0.06600   0.07225   0.07269   0.08879   0.09061

 Mulliken charges and spin densities:
               1          2
     1  H    0.190624  -0.006798
     2  C   -0.774014   0.016022
     3  C    0.765708   0.146822
     4  C   -0.474014   0.348566
     5  C    0.765708   0.146822
     6  C   -0.474014   0.348566
 Sum of Mulliken charges =  -0.00000   1.00000

 Dipole moment (field-independent basis, Debye):
    X=              0.0000    Y=             -0.0000    Z=              2.9575  Tot=              2.9575
 Quadrupole moment (field-independent basis, Debye-Ang):
   XX=            -28.8953   YY=            -43.7486   ZZ=            -26.7398
   XY=             -0.0000   XZ=             -0.0000   YZ=              0.0000

  Exact polarizability:  40.041   0.000 193.076  -0.000  -0.000  53.740
 Approx polarizability:  55.732   0.000 499.398   0.000   0.000  82.744

                      1                      2                      3
                     A1                     B2                     B1
 Frequencies --     97.4477               185.9582               218.8852
 Red. masses --     10.7332                 8.3914                 4.5976
 Frc consts  --      0.0601                 0.1710                 0.1298
 IR Inten    --     22.0638               127.7451                 3.2924

                      4                      5                      6
                     A2                     A1                     B1
 Frequencies --    252.4236               518.2544               757.1598
 Red. masses --     12.0000                11.6248                 1.4948
 Frc consts  --      0.4505                 1.8396                 0.5049
 IR Inten    --      0.0000                 0.1260                44.8593

                      7                      8                      9
                     B2                     A1                     B2
 Frequencies --   1035.0715              1039.7012              1317.9832
 Red. masses --      3.0264                 7.9755                 1.4815
 Frc consts  --      1.9103                 5.0795                 1.5163
 IR Inten    --    197.8887                20.6236               182.9046

                     10                     11                     12
                     B2                     A1                     A1
 Frequencies --   1741.1845              1906.0639              3128.8084
 Red. masses --     11.9992                11.1052                 1.0918
 Frc consts  --     21.4335                23.7711                 6.2972
 IR Inten    --     69.0179                 0.2848                 0.6249

 - Thermochemistry -
 -------------------
 Temperature   298.150 Kelvin.  Pressure   1.00000 Atm.
 Atom     1 has atomic number  1 and mass   1.00783

 Molecular mass:    61.00783 amu.
 Principal axes and moments of inertia in atomic units:
                           1         2         3
     Eigenvalues --    68.09682 545.61925 613.71607
           X            0.00000   0.00000   1.00000
           Y            1.00000   0.00000  -0.00000
           Z            0.00000   1.00000   0.00000
 This molecule is an asymmetric top.
 Rotational symmetry number  2.
 Rotational temperatures (Kelvin)      1.27192     0.15874     0.14113
 Rotational constants (GHZ):          26.50258     3.30769     2.94068
 Zero-point vibrational energy      72965.9 (Joules/Mol)
                                   17.43926 (Kcal/Mol)
 Warning -- explicit consideration of   5 degrees of freedom as
           vibrations may cause significant error
 Vibrational temperatures:    140.21   267.55   314.93   363.18   745.65
          (Kelvin)           1089.38  1489.24  1495.90  1896.28  2505.17
                             2742.40  4501.65

 Zero-point correction=                           0.027791 (Hartree/Particle)
 Thermal correction to Energy=                    0.033341
 Thermal correction to Enthalpy=                  0.034285
 Thermal correction to Gibbs Free Energy=        -0.000584
 Sum of electronic and zero-point Energies=           -190.801441
 Sum of electronic and thermal Energies=              -190.795891
 Sum of electronic and thermal Enthalpies=            -190.794947
 Sum of electronic and thermal Free Energies=         -190.829816

                     E (Thermal)             CV                S
                      KCal/Mol        Cal/Mol-Kelvin    Cal/Mol-Kelvin
 Total                   20.922             16.140             73.388
 Electronic               0.000              0.000              1.377
 Translational            0.889              2.981             38.245
 Rotational               0.889              2.981             23.259
 Vibrational             19.144             10.179             10.506
 Vibration     1          0.603              1.951              3.505
 Vibration     2          0.632              1.859              2.268
 Vibration     3          0.647              1.812              1.968
 Vibration     4          0.664              1.759              1.714
 Vibration     5          0.873              1.210              0.614

 Optimization completed.
    -- Stationary point found.
 Normal termination of Gaussian 09 at Mon Jun 20 13:55:22 2016.
