 Gaussian 09, Revision E.01,
 Gaussian 09:  EM64L-G09RevE.01 30-Nov-2015

 ---------------------------------------------
 #p b3lyp/6-311++G(3df,2p) freq symmetry=Loose
 ---------------------------------------------

 ---------
 b3lyp opt
 ---------
 Symbolic Z-matrix:
 Charge =  1 Multiplicity = 3

                         Standard orientation:
 ---------------------------------------------------------------------
 Center     Atomic      Atomic             Coordinates (Angstroms)
 Number     Number       Type             X           Y           Z
 ---------------------------------------------------------------------
      1          6           0       -1.388577   -0.473120   -0.108972
      2          6           0       -0.822920    0.714323    0.189193
      3          6           0        0.579128    0.848438   -0.176779
      4          6           0        1.294846   -0.259098    0.070373
      5          6           0       -0.044083   -0.718444    0.018992
      6          1           0        2.289633   -0.672594    0.043155
 ---------------------------------------------------------------------

 SCF Done:  E(UB3LYP) =  -190.475845616     A.U. after   19 cycles

 The electronic state is 3-A.
 Alpha  occ. eigenvalues --  -10.58406 -10.55869 -10.55799 -10.53127 -10.51288
 Alpha  occ. eigenvalues --   -1.29927  -1.10500  -0.94035  -0.82685  -0.77731
 Alpha  occ. eigenvalues --   -0.75731  -0.73208  -0.67820  -0.57369  -0.54297
 Alpha  occ. eigenvalues --   -0.52683
 Alpha virt. eigenvalues --   -0.37418  -0.28901  -0.26439  -0.23238  -0.15343
 Alpha virt. eigenvalues --   -0.12641  -0.12081  -0.11205  -0.10130  -0.08478
 Alpha virt. eigenvalues --   -0.07289  -0.06009  -0.05456  -0.04804  -0.03587

  Beta  occ. eigenvalues --  -10.57897 -10.54741 -10.54681 -10.51589 -10.51299
  Beta  occ. eigenvalues --   -1.28667  -1.09263  -0.91475  -0.81308  -0.75888
  Beta  occ. eigenvalues --   -0.73542  -0.71014  -0.62213  -0.53933
  Beta virt. eigenvalues --   -0.41863  -0.39491  -0.34462  -0.25700  -0.23799
  Beta virt. eigenvalues --   -0.21242  -0.14917  -0.12058  -0.11319  -0.11053
  Beta virt. eigenvalues --   -0.09573  -0.07943  -0.06906  -0.05902  -0.05064

 Mulliken charges and spin densities:
               1          2
     1  C    0.247431   0.799512
     2  C    0.067337   0.463741
     3  C    0.128526   0.636446
     4  C    0.047221  -0.020430
     5  C    0.199860   0.110463
     6  H    0.309626   0.010268
 Sum of Mulliken charges =   1.00000   2.00000

 Dipole moment (field-independent basis, Debye):
    X=              1.6163    Y=             -0.4087    Z=              0.1408  Tot=              1.6731
 Quadrupole moment (field-independent basis, Debye-Ang):
   XX=            -16.2497   YY=            -21.8434   ZZ=            -25.7866
   XY=             -1.5498   XZ=              0.1170   YZ=             -0.1694

  Exact polarizability:  57.765   2.110  40.599   1.200   0.227  27.919
 Approx polarizability: 114.948   6.975  92.836   2.014   0.371  43.741

                      1                      2                      3
                      A                      A                      A
 Frequencies --    383.5028               477.8088               546.2946
 Red. masses --      7.7763                 8.8769                 9.5865
 Frc consts  --      0.6738                 1.1940                 1.6856
 IR Inten    --      7.2947                13.2042                14.2779

                      4                      5                      6
                      A                      A                      A
 Frequencies --    569.3340               730.3955               819.8893
 Red. masses --      6.6384                 1.3157                 7.3508
 Frc consts  --      1.2678                 0.4135                 2.9114
 IR Inten    --     22.1262                57.5570                 0.8988

                      7                      8                      9
                      A                      A                      A
 Frequencies --    940.7125              1062.2665              1101.9806
 Red. masses --      9.4155                 1.6409                 3.5078
 Frc consts  --      4.9092                 1.0909                 2.5098
 IR Inten    --      8.2984                12.6560                 4.3765

                     10                     11                     12
                      A                      A                      A
 Frequencies --   1388.7173              1590.0053              3269.6167
 Red. masses --      9.8085                 7.9753                 1.1133
 Frc consts  --     11.1450                11.8794                 7.0120
 IR Inten    --     12.8013                 0.1775               131.4179

 - Thermochemistry -
 -------------------
 Temperature   298.150 Kelvin.  Pressure   1.00000 Atm.
 Atom     1 has atomic number  6 and mass  12.00000

 Molecular mass:    61.00783 amu.
 Principal axes and moments of inertia in atomic units:
                           1         2         3
     Eigenvalues --    92.27862 220.37179 305.41948
           X            0.99906  -0.04333   0.00171
           Y            0.04333   0.99906  -0.00134
           Z           -0.00165   0.00141   1.00000
 This molecule is an asymmetric top.
 Rotational symmetry number  1.
 Rotational temperatures (Kelvin)      0.93861     0.39303     0.28359
 Rotational constants (GHZ):          19.55752     8.18953     5.90906
 Zero-point vibrational energy      77042.6 (Joules/Mol)
                                   18.41363 (Kcal/Mol)
 Warning -- explicit consideration of   4 degrees of freedom as
           vibrations may cause significant error
 Vibrational temperatures:    551.77   687.46   786.00   819.14  1050.87
          (Kelvin)           1179.64  1353.47  1528.36  1585.50  1998.05
                             2287.66  4704.24

 Zero-point correction=                           0.029344 (Hartree/Particle)
 Thermal correction to Energy=                    0.033398
 Thermal correction to Enthalpy=                  0.034342
 Thermal correction to Gibbs Free Energy=         0.002358
 Sum of electronic and zero-point Energies=           -190.446502
 Sum of electronic and thermal Energies=              -190.442448
 Sum of electronic and thermal Enthalpies=            -190.441503
 Sum of electronic and thermal Free Energies=         -190.473487

                     E (Thermal)             CV                S
                      KCal/Mol        Cal/Mol-Kelvin    Cal/Mol-Kelvin
 Total                   20.958             13.606             67.315
 Electronic               0.000              0.000              2.183
 Translational            0.889              2.981             38.245
 Rotational               0.889              2.981             23.345
 Vibrational             19.180              7.644              3.543
 Vibration     1          0.753              1.505              1.025
 Vibration     2          0.834              1.299              0.716
 Vibration     3          0.901              1.148              0.552
 Vibration     4          0.925              1.098              0.506

 Optimization completed.
    -- Stationary point found.
 Normal termination of Gaussian 09 at Mon Jun 20 14:42:40 2016.
