 Gaussian 09, Revision E.01,
 Gaussian 09:  EM64L-G09RevE.01 30-Nov-2015

 ---------------------------------------------
 #p b3lyp/6-311++G(3df,2p) freq symmetry=Loose
 ---------------------------------------------

 ---------
 b3lyp opt
 ---------
 Symbolic Z-matrix:
 Charge =  3 Multiplicity = 3

                         Standard orientation:
 ---------------------------------------------------------------------
 Center     Atomic      Atomic             Coordinates (Angstroms)
 Number     Number       Type             X           Y           Z
 ---------------------------------------------------------------------
      1          1           0       -1.526975   -1.190929    0.000000
      2          6           0       -0.407271   -0.887791    0.000000
      3          6           0        0.019844    0.520086   -0.000000
      4          6           0        0.213974    1.310612    1.186109
      5          6           0        0.213974    1.310612   -1.186109
      6          6           0        0.213974   -2.055030    0.000000
 ---------------------------------------------------------------------

 SCF Done:  E(UB3LYP) =  -188.867457648     A.U. after   22 cycles

 The electronic state is 3-A".
 Alpha  occ. eigenvalues --  -11.14344 -11.14342 -11.14236 -11.02638 -11.01602
 Alpha  occ. eigenvalues --   -1.63593  -1.56647  -1.41761  -1.36080  -1.22631
 Alpha  occ. eigenvalues --   -1.16197  -1.11589  -1.11276  -1.07908  -1.07071
 Alpha virt. eigenvalues --   -0.92591  -0.88673  -0.87065  -0.84576  -0.76879
 Alpha virt. eigenvalues --   -0.74152  -0.53853  -0.50776  -0.48523  -0.44529
 Alpha virt. eigenvalues --   -0.44007  -0.42132  -0.41922  -0.39797  -0.38542

  Beta  occ. eigenvalues --  -11.13677 -11.13677 -11.11354 -11.02382 -11.01381
  Beta  occ. eigenvalues --   -1.62496  -1.53763  -1.40527  -1.34240  -1.21710
  Beta  occ. eigenvalues --   -1.07982  -1.07208  -1.05584
  Beta virt. eigenvalues --   -0.96000  -0.92855  -0.90431  -0.87548  -0.84637
  Beta virt. eigenvalues --   -0.82662  -0.73124  -0.72050  -0.53593  -0.49879
  Beta virt. eigenvalues --   -0.48356  -0.44133  -0.43145  -0.42037  -0.41175

 Mulliken charges and spin densities:
               1          2
     1  H    0.341832  -0.006388
     2  C    0.311263  -0.093676
     3  C    1.076287   0.036874
     4  C    0.400803   0.365894
     5  C    0.400803   0.365894
     6  C    0.469012   1.331403
 Sum of Mulliken charges =   3.00000   2.00000

 Dipole moment (field-independent basis, Debye):
    X=             -0.2758    Y=             -1.3724    Z=              0.0000  Tot=              1.3998
 Quadrupole moment (field-independent basis, Debye-Ang):
   XX=            -15.7729   YY=             15.0819   ZZ=            -11.0441
   XY=              3.4168   XZ=              0.0000   YZ=             -0.0000

  Exact polarizability:  29.098   7.313  88.776  -0.000  -0.000  59.401
 Approx polarizability:  49.268   8.034 187.433   0.000   0.000 162.592

                      1                      2                      3
                     A"                     A'                     A"
 Frequencies --     32.8916               267.5367               289.5313
 Red. masses --      2.9777                10.3444                 3.5388
 Frc consts  --      0.0019                 0.4362                 0.1748
 IR Inten    --      1.8097                 7.0411                 1.6190

                      4                      5                      6
                     A'                     A'                     A"
 Frequencies --    347.3897               454.4534               617.8926
 Red. masses --     10.5995                 7.3088                 2.8979
 Frc consts  --      0.7536                 0.8894                 0.6519
 IR Inten    --      8.7726                 0.8961                28.5824

                      7                      8                      9
                     A"                     A'                     A'
 Frequencies --    719.8575               764.4500               954.0681
 Red. masses --      4.9325                10.5725                 1.2388
 Frc consts  --      1.5060                 3.6402                 0.6643
 IR Inten    --     16.7263                 5.7387                14.3627

                     10                     11                     12
                     A'                     A'                     A'
 Frequencies --   1149.3369              1432.6653              2462.5120
 Red. masses --      7.5026                 7.7918                 1.0736
 Frc consts  --      5.8393                 9.4228                 3.8357
 IR Inten    --      0.5131               578.3183               705.3850

 - Thermochemistry -
 -------------------
 Temperature   298.150 Kelvin.  Pressure   1.00000 Atm.
 Atom     1 has atomic number  1 and mass   1.00783

 Molecular mass:    61.00783 amu.
 Principal axes and moments of inertia in atomic units:
                           1         2         3
     Eigenvalues --   139.72890 399.84797 501.26958
           X            0.07648   0.00000   0.99707
           Y            0.99707   0.00000  -0.07648
           Z           -0.00000   1.00000  -0.00000
 This molecule is an asymmetric top.
 Rotational symmetry number  1.
 Rotational temperatures (Kelvin)      0.61987     0.21662     0.17279
 Rotational constants (GHZ):          12.91602     4.51357     3.60034
 Zero-point vibrational energy      56778.3 (Joules/Mol)
                                   13.57033 (Kcal/Mol)
 Warning -- explicit consideration of   6 degrees of freedom as
           vibrations may cause significant error
 Vibrational temperatures:     47.32   384.93   416.57   499.82   653.86
          (Kelvin)            889.01  1035.71  1099.87  1372.69  1653.64
                             2061.28  3543.00

 Zero-point correction=                           0.021626 (Hartree/Particle)
 Thermal correction to Energy=                    0.027265
 Thermal correction to Enthalpy=                  0.028209
 Thermal correction to Gibbs Free Energy=        -0.008417
 Sum of electronic and zero-point Energies=           -188.845832
 Sum of electronic and thermal Energies=              -188.840193
 Sum of electronic and thermal Enthalpies=            -188.839248
 Sum of electronic and thermal Free Energies=         -188.875875

                     E (Thermal)             CV                S
                      KCal/Mol        Cal/Mol-Kelvin    Cal/Mol-Kelvin
 Total                   17.109             17.566             77.086
 Electronic               0.000              0.000              2.183
 Translational            0.889              2.981             38.245
 Rotational               0.889              2.981             24.841
 Vibrational             15.332             11.605             11.817
 Vibration     1          0.594              1.983              5.647
 Vibration     2          0.673              1.733              1.612
 Vibration     3          0.686              1.693              1.477
 Vibration     4          0.725              1.581              1.178
 Vibration     5          0.813              1.351              0.782
 Vibration     6          0.978              0.994              0.420

 Optimization completed.
    -- Stationary point found.
 Normal termination of Gaussian 09 at Mon Jun 20 15:17:34 2016.
