 Gaussian 09, Revision E.01,
 Gaussian 09:  EM64L-G09RevE.01 30-Nov-2015

 ---------------------------------------------
 #p b3lyp/6-311++G(3df,2p) freq symmetry=Loose
 ---------------------------------------------

 ---------
 b3lyp opt
 ---------
 Symbolic Z-matrix:
 Charge =  3 Multiplicity = 1

                         Standard orientation:
 ---------------------------------------------------------------------
 Center     Atomic      Atomic             Coordinates (Angstroms)
 Number     Number       Type             X           Y           Z
 ---------------------------------------------------------------------
      1          1           0       -1.502440   -1.076332    0.000000
      2          6           0       -0.407473   -0.786773    0.000000
      3          6           0        0.000000    0.559572   -0.000000
      4          6           0       -1.196902    1.497590   -0.000000
      5          6           0        1.430793    1.039735   -0.000000
      6          6           0        0.423988   -2.130736    0.000000
 ---------------------------------------------------------------------

 SCF Done:  E(RB3LYP) =  -188.865140260     A.U. after   13 cycles

 The electronic state is 1-A'.
 Alpha  occ. eigenvalues --  -11.16110 -11.13568 -11.12896 -11.03851 -11.00614
 Alpha  occ. eigenvalues --   -1.61385  -1.49499  -1.41754  -1.34066  -1.22114
 Alpha  occ. eigenvalues --   -1.10599  -1.08383  -1.07466  -1.03302
 Alpha virt. eigenvalues --   -0.94518  -0.89187  -0.88043  -0.87513  -0.86145
 Alpha virt. eigenvalues --   -0.82093  -0.68352  -0.58894  -0.54171  -0.52631
 Alpha virt. eigenvalues --   -0.50079  -0.43582  -0.43370  -0.42560  -0.40813

 Mulliken charges:
               1
     1  H    0.307658
     2  C   -0.066499
     3  C    0.946160
     4  C    0.615570
     5  C    0.462132
     6  C    0.734979
 Sum of Mulliken charges =   3.00000

 Dipole moment (field-independent basis, Debye):
    X=             -0.4864    Y=             -1.1966    Z=              0.0000  Tot=              1.2917
 Quadrupole moment (field-independent basis, Debye-Ang):
   XX=             -7.3963   YY=             10.6169   ZZ=            -20.2938
   XY=             -0.4731   XZ=             -0.0000   YZ=             -0.0000

  Exact polarizability:  47.732  -2.476  65.337  -0.000   0.000  26.357
 Approx polarizability: 105.219  -7.779 142.426   0.000  -0.000  42.598

                      1                      2                      3
                     A'                     A"                     A'
 Frequencies --    164.7617               188.0093               293.5701
 Red. masses --     10.7432                 4.7652                 9.9718
 Frc consts  --      0.1718                 0.0992                 0.5063
 IR Inten    --     13.4504                 1.8727                13.7188

                      4                      5                      6
                     A'                     A"                     A'
 Frequencies --    360.2714               385.9139               653.3028
 Red. masses --      9.3321                 5.5288                 6.4117
 Frc consts  --      0.7137                 0.4851                 1.6123
 IR Inten    --     11.5888                 1.3209               650.9984

                      7                      8                      9
                     A'                     A"                     A'
 Frequencies --    732.6272               772.9374               960.2721
 Red. masses --     10.8730                 1.4447                 5.6797
 Frc consts  --      3.4385                 0.5085                 3.0858
 IR Inten    --     37.5905                 5.9624               552.6805

                     10                     11                     12
                     A'                     A'                     A'
 Frequencies --   1213.9378              1349.7788              2696.6129
 Red. masses --      1.3578                 7.3903                 1.0863
 Frc consts  --      1.1789                 7.9330                 4.6539
 IR Inten    --    168.6107                88.0841               268.2229

 - Thermochemistry -
 -------------------
 Temperature   298.150 Kelvin.  Pressure   1.00000 Atm.
 Atom     1 has atomic number  1 and mass   1.00783

 Molecular mass:    61.00783 amu.
 Principal axes and moments of inertia in atomic units:
                           1         2         3
     Eigenvalues --   167.05039 385.91424 552.96463
           X           -0.14930   0.98879   0.00000
           Y            0.98879   0.14930   0.00000
           Z           -0.00000  -0.00000   1.00000
 This molecule is an asymmetric top.
 Rotational symmetry number  1.
 Rotational temperatures (Kelvin)      0.51849     0.22444     0.15664
 Rotational constants (GHZ):          10.80357     4.67653     3.26376
 Zero-point vibrational energy      58449.5 (Joules/Mol)
                                   13.96977 (Kcal/Mol)
 Warning -- explicit consideration of   5 degrees of freedom as
           vibrations may cause significant error
 Vibrational temperatures:    237.06   270.50   422.38   518.35   555.24
          (Kelvin)            939.96  1054.09  1112.08  1381.62  1746.58
                             1942.03  3879.82

 Zero-point correction=                           0.022262 (Hartree/Particle)
 Thermal correction to Energy=                    0.027782
 Thermal correction to Enthalpy=                  0.028726
 Thermal correction to Gibbs Free Energy=        -0.005814
 Sum of electronic and zero-point Energies=           -188.842878
 Sum of electronic and thermal Energies=              -188.837358
 Sum of electronic and thermal Enthalpies=            -188.836414
 Sum of electronic and thermal Free Energies=         -188.870954

                     E (Thermal)             CV                S
                      KCal/Mol        Cal/Mol-Kelvin    Cal/Mol-Kelvin
 Total                   17.433             17.574             72.696
 Electronic               0.000              0.000              0.000
 Translational            0.889              2.981             38.245
 Rotational               0.889              2.981             25.081
 Vibrational             15.656             11.613              9.370
 Vibration     1          0.623              1.886              2.494
 Vibration     2          0.633              1.856              2.247
 Vibration     3          0.688              1.686              1.453
 Vibration     4          0.735              1.554              1.121
 Vibration     5          0.755              1.500              1.016

 Optimization completed.
    -- Stationary point found.
 Normal termination of Gaussian 09 at Wed Jul 20 20:55:25 2016.
