 Gaussian 09, Revision E.01,
 Gaussian 09:  EM64L-G09RevE.01 30-Nov-2015

 ---------------------------------------------
 #p b3lyp/6-311++G(3df,2p) freq symmetry=Loose
 ---------------------------------------------

 ---------
 b3lyp opt
 ---------
 Symbolic Z-matrix:
 Charge =  0 Multiplicity = 2

                         Standard orientation:
 ---------------------------------------------------------------------
 Center     Atomic      Atomic             Coordinates (Angstroms)
 Number     Number       Type             X           Y           Z
 ---------------------------------------------------------------------
      1          1           0        2.252733    0.894520   -0.000000
      2          6           0        1.182101    1.009373   -0.000000
      3          6           0        0.000000    0.242977   -0.000000
      4          6           0       -0.544706   -0.956614    0.000000
      5          6           0       -1.046714   -2.128933    0.000000
      6          6           0        0.033863    1.684110   -0.000000
 ---------------------------------------------------------------------

 SCF Done:  E(UB3LYP) =  -190.876895391     A.U. after   19 cycles

 The electronic state is 2-A'.
 Alpha  occ. eigenvalues --  -10.30799 -10.28499 -10.27405 -10.22517 -10.20289
 Alpha  occ. eigenvalues --   -0.99180  -0.80951  -0.69128  -0.64548  -0.52136
 Alpha  occ. eigenvalues --   -0.45504  -0.44238  -0.34815  -0.31817  -0.30308
 Alpha  occ. eigenvalues --   -0.28159
 Alpha virt. eigenvalues --   -0.11350  -0.06810  -0.02109  -0.00873   0.02154
 Alpha virt. eigenvalues --    0.02490   0.03665   0.06247   0.06677   0.06994
 Alpha virt. eigenvalues --    0.07251   0.09068   0.09932   0.10053   0.10575

  Beta  occ. eigenvalues --  -10.30583 -10.28335 -10.26747 -10.22012 -10.20162
  Beta  occ. eigenvalues --   -0.98281  -0.80001  -0.67974  -0.63759  -0.49806
  Beta  occ. eigenvalues --   -0.45278  -0.43281  -0.31430  -0.30340  -0.29366
  Beta virt. eigenvalues --   -0.19172  -0.10951  -0.06065  -0.01574   0.00671
  Beta virt. eigenvalues --    0.02298   0.03085   0.03699   0.06401   0.06734
  Beta virt. eigenvalues --    0.07093   0.07658   0.09294   0.10131   0.10236

 Mulliken charges and spin densities:
               1          2
     1  H    0.262572   0.013210
     2  C    0.080548   0.013322
     3  C   -0.159728   0.161254
     4  C    0.549484   0.140686
     5  C   -0.489303   0.244771
     6  C   -0.243573   0.426757
 Sum of Mulliken charges =  -0.00000   1.00000

 Dipole moment (field-independent basis, Debye):
    X=              3.8556    Y=              2.8262    Z=             -0.0000  Tot=              4.7804
 Quadrupole moment (field-independent basis, Debye-Ang):
   XX=            -25.7421   YY=            -39.7754   ZZ=            -28.4304
   XY=             -1.3334   XZ=              0.0000   YZ=              0.0000

  Exact polarizability:  55.611  24.181 116.388  -0.000   0.000  35.230
 Approx polarizability:  94.425  61.604 258.103  -0.000  -0.000  52.408

                      1                      2                      3
                     A'                     A"                     A'
 Frequencies --    165.0428               171.8623               458.2927
 Red. masses --      7.6895                11.1795                 6.5448
 Frc consts  --      0.1234                 0.1946                 0.8099
 IR Inten    --      9.5347                 5.6140                 4.1884

                      4                      5                      6
                     A"                     A'                     A"
 Frequencies --    531.4249               737.8038               828.2282
 Red. masses --      5.9763                 8.8868                 1.4668
 Frc consts  --      0.9944                 2.8502                 0.5928
 IR Inten    --      0.0083                15.9684                30.4275

                      7                      8                      9
                     A'                     A'                     A'
 Frequencies --    850.4157               987.7142              1296.1240
 Red. masses --      3.6099                 1.6158                10.1007
 Frc consts  --      1.5382                 0.9287                 9.9976
 IR Inten    --    167.3505                11.0031                 2.4212

                     10                     11                     12
                     A'                     A'                     A'
 Frequencies --   1636.1429              2009.1399              3263.3369
 Red. masses --      7.8500                11.6160                 1.1144
 Frc consts  --     12.3812                27.6265                 6.9921
 IR Inten    --      1.1634               841.7488                23.8427

 - Thermochemistry -
 -------------------
 Temperature   298.150 Kelvin.  Pressure   1.00000 Atm.
 Atom     1 has atomic number  1 and mass   1.00783

 Molecular mass:    61.00783 amu.
 Principal axes and moments of inertia in atomic units:
                           1         2         3
     Eigenvalues --    48.02644 493.54262 541.56906
           X            0.44831   0.89388   0.00000
           Y            0.89388  -0.44831   0.00000
           Z           -0.00000  -0.00000   1.00000
 This molecule is an asymmetric top.
 Rotational symmetry number  1.
 Rotational temperatures (Kelvin)      1.80346     0.17549     0.15993
 Rotational constants (GHZ):          37.57807     3.65671     3.33243
 Zero-point vibrational energy      77371.6 (Joules/Mol)
                                   18.49227 (Kcal/Mol)
 Warning -- explicit consideration of   4 degrees of freedom as
           vibrations may cause significant error
 Vibrational temperatures:    237.46   247.27   659.38   764.60  1061.53
          (Kelvin)           1191.63  1223.56  1421.10  1864.83  2354.04
                             2890.70  4695.21

 Zero-point correction=                           0.029469 (Hartree/Particle)
 Thermal correction to Energy=                    0.034272
 Thermal correction to Enthalpy=                  0.035216
 Thermal correction to Gibbs Free Energy=         0.001622
 Sum of electronic and zero-point Energies=           -190.847426
 Sum of electronic and thermal Energies=              -190.842624
 Sum of electronic and thermal Enthalpies=            -190.841679
 Sum of electronic and thermal Free Energies=         -190.875273

                     E (Thermal)             CV                S
                      KCal/Mol        Cal/Mol-Kelvin    Cal/Mol-Kelvin
 Total                   21.506             14.781             70.704
 Electronic               0.000              0.000              1.377
 Translational            0.889              2.981             38.245
 Rotational               0.889              2.981             24.066
 Vibrational             19.728              8.819              7.015
 Vibration     1          0.623              1.885              2.491
 Vibration     2          0.626              1.877              2.415
 Vibration     3          0.816              1.343              0.771
 Vibration     4          0.886              1.180              0.584

 Optimization completed.
    -- Stationary point found.
 Normal termination of Gaussian 09 at Mon Jun 20 13:56:54 2016.
