 Gaussian 09, Revision E.01,
 Gaussian 09:  EM64L-G09RevE.01 30-Nov-2015

 ---------------------------------------------
 #p b3lyp/6-311++G(3df,2p) freq symmetry=Loose
 ---------------------------------------------

 ---------
 b3lyp opt
 ---------
 Symbolic Z-matrix:
 Charge =  3 Multiplicity = 1

                         Standard orientation:
 ---------------------------------------------------------------------
 Center     Atomic      Atomic             Coordinates (Angstroms)
 Number     Number       Type             X           Y           Z
 ---------------------------------------------------------------------
      1          1           0       -0.000000   -0.000000    3.132799
      2          6           0       -0.000000   -0.000000    2.009238
      3          6           0       -0.000000   -0.000000    0.713711
      4          6           0        0.000000    0.000000   -0.640330
      5          6           0        0.000000    1.407829   -1.302376
      6          6           0       -0.000000   -1.407829   -1.302376
 ---------------------------------------------------------------------

 SCF Done:  E(RB3LYP) =  -188.954754289     A.U. after   14 cycles

 The electronic state is 1-A1.
 Alpha  occ. eigenvalues --  -11.14975 -11.14975 -11.05293 -11.02145 -11.01235
 Alpha  occ. eigenvalues --   -1.60867  -1.51264  -1.41384  -1.35533  -1.23254
 Alpha  occ. eigenvalues --   -1.11003  -1.09129  -1.08519  -1.01948
 Alpha virt. eigenvalues --   -0.95045  -0.88809  -0.88120  -0.87358  -0.79016
 Alpha virt. eigenvalues --   -0.72403  -0.63945  -0.57993  -0.54669  -0.51582
 Alpha virt. eigenvalues --   -0.44343  -0.44223  -0.42624  -0.41458  -0.40752

 Mulliken charges:
               1
     1  H    0.511820
     2  C    0.638208
     3  C   -0.081529
     4  C    0.676635
     5  C    0.627433
     6  C    0.627433
 Sum of Mulliken charges =   3.00000

 Dipole moment (field-independent basis, Debye):
    X=             -0.0000    Y=             -0.0000    Z=              1.2408  Tot=              1.2408
 Quadrupole moment (field-independent basis, Debye-Ang):
   XX=            -19.6519   YY=             -9.5578   ZZ=             23.5134
   XY=              0.0000   XZ=              0.0000   YZ=             -0.0000

  Exact polarizability:  23.963   0.000  43.966   0.000   0.000  69.770
 Approx polarizability:  37.970   0.000  89.982   0.000   0.000 169.257

                      1                      2                      3
                     B2                     B1                     A1
 Frequencies --     73.8001               245.8976               277.6045
 Red. masses --      7.3257                 4.5238                10.9215
 Frc consts  --      0.0235                 0.1612                 0.4959
 IR Inten    --      1.6989                13.5342                 0.8305

                      4                      5                      6
                     B2                     B1                     A1
 Frequencies --    364.0541               452.0674               645.0655
 Red. masses --      7.5661                 6.1196                11.6306
 Frc consts  --      0.5908                 0.7369                 2.8514
 IR Inten    --     85.1429                 7.7377               202.1275

                      7                      8                      9
                     B2                     B2                     B1
 Frequencies --    696.3959               885.7632               909.6944
 Red. masses --      1.2323                11.3499                 1.4816
 Frc consts  --      0.3521                 5.2466                 0.7224
 IR Inten    --     76.6775               586.2228                 4.6334

                     10                     11                     12
                     A1                     A1                     A1
 Frequencies --   1095.8740              1898.7034              2876.9783
 Red. masses --      7.6935                 6.6465                 1.1729
 Frc consts  --      5.4437                14.1175                 5.7199
 IR Inten    --    375.4762               282.7616               572.6264

 - Thermochemistry -
 -------------------
 Temperature   298.150 Kelvin.  Pressure   1.00000 Atm.
 Atom     1 has atomic number  1 and mass   1.00783

 Molecular mass:    61.00783 amu.
 Principal axes and moments of inertia in atomic units:
                           1         2         3
     Eigenvalues --   169.86679 392.52627 562.39307
           X            0.00000  -0.00000   1.00000
           Y            0.00000   1.00000   0.00000
           Z            1.00000   0.00000   0.00000
 This molecule is an asymmetric top.
 Rotational symmetry number  2.
 Rotational temperatures (Kelvin)      0.50989     0.22066     0.15401
 Rotational constants (GHZ):          10.62445     4.59776     3.20904
 Zero-point vibrational energy      62336.8 (Joules/Mol)
                                   14.89885 (Kcal/Mol)
 Warning -- explicit consideration of   5 degrees of freedom as
           vibrations may cause significant error
 Vibrational temperatures:    106.18   353.79   399.41   523.79   650.42
          (Kelvin)            928.10  1001.96  1274.41  1308.85  1576.72
                             2731.81  4139.32

 Zero-point correction=                           0.023743 (Hartree/Particle)
 Thermal correction to Energy=                    0.029297
 Thermal correction to Enthalpy=                  0.030241
 Thermal correction to Gibbs Free Energy=        -0.004105
 Sum of electronic and zero-point Energies=           -188.931011
 Sum of electronic and thermal Energies=              -188.925457
 Sum of electronic and thermal Enthalpies=            -188.924513
 Sum of electronic and thermal Free Energies=         -188.958859

                     E (Thermal)             CV                S
                      KCal/Mol        Cal/Mol-Kelvin    Cal/Mol-Kelvin
 Total                   18.384             17.397             72.287
 Electronic               0.000              0.000              0.000
 Translational            0.889              2.981             38.245
 Rotational               0.889              2.981             23.754
 Vibrational             16.607             11.436             10.288
 Vibration     1          0.599              1.966              4.049
 Vibration     2          0.660              1.770              1.760
 Vibration     3          0.679              1.715              1.548
 Vibration     4          0.738              1.546              1.105
 Vibration     5          0.811              1.356              0.790

 Optimization completed.
    -- Stationary point found.
 Normal termination of Gaussian 09 at Wed Jul 20 20:00:01 2016.
