 Gaussian 09, Revision E.01,
 Gaussian 09:  EM64L-G09RevE.01 30-Nov-2015

 -------------------------------------------------
 #p b3lyp/6-311++G(3df,2p) opt freq symmetry=Loose
 -------------------------------------------------

 ---------
 b3lyp opt
 ---------
 Symbolic Z-matrix:
 Charge =  0 Multiplicity = 4

 SCF Done:  E(UB3LYP) =  -190.733924945     A.U. after   26 cycles
 SCF Done:  E(UB3LYP) =  -190.733981351     A.U. after   19 cycles
 SCF Done:  E(UB3LYP) =  -190.733984176     A.U. after   18 cycles
 Optimization completed.
    -- Stationary point found.
 Normal termination of Gaussian 09 at Wed Jul  6 12:32:31 2016.

 ----------------------------------------------------------------------
 #P Geom=AllCheck Guess=TCheck SCRF=Check GenChk UB3LYP/6-311++G(3df,2p
 ) Freq
 ----------------------------------------------------------------------

 Structure from the checkpoint file:  "/scratch/sergio/HC5.q0.m4-7.bis.com-2134326/Gau-20293.chk"
 ---------
 b3lyp opt
 ---------
 Charge =  0 Multiplicity = 4

                         Standard orientation:
 ---------------------------------------------------------------------
 Center     Atomic      Atomic             Coordinates (Angstroms)
 Number     Number       Type             X           Y           Z
 ---------------------------------------------------------------------
      1          1           0       -1.528298    0.640275    0.000000
      2          6           0       -0.594806    0.086041    0.000000
      3          6           0        0.587220    0.840342    0.000000
      4          6           0        1.451915    1.718182    0.000000
      5          6           0       -0.594806   -1.375639    0.643210
      6          6           0       -0.594806   -1.375639   -0.643210
 ---------------------------------------------------------------------

 SCF Done:  E(UB3LYP) =  -190.733984176     A.U. after    1 cycles

 The electronic state is 4-A".
 Alpha  occ. eigenvalues --  -10.27921 -10.26330 -10.26209 -10.25633 -10.22717
 Alpha  occ. eigenvalues --   -0.92862  -0.81259  -0.69987  -0.54085  -0.50702
 Alpha  occ. eigenvalues --   -0.46468  -0.40358  -0.36265  -0.36098  -0.32513
 Alpha  occ. eigenvalues --   -0.31937  -0.26476
 Alpha virt. eigenvalues --   -0.03658  -0.02531  -0.00106   0.00547   0.02989
 Alpha virt. eigenvalues --    0.03255   0.03825   0.05765   0.06892   0.08105
 Alpha virt. eigenvalues --    0.08168   0.09818   0.09916   0.09978   0.10989

  Beta  occ. eigenvalues --  -10.27210 -10.24935 -10.24832 -10.23502 -10.22650
  Beta  occ. eigenvalues --   -0.90413  -0.78576  -0.67013  -0.53073  -0.44039
  Beta  occ. eigenvalues --   -0.43688  -0.31708  -0.31081  -0.30548
  Beta virt. eigenvalues --   -0.21440  -0.19887  -0.14586  -0.01117  -0.00796
  Beta virt. eigenvalues --    0.01709   0.02671   0.03623   0.03902   0.04169
  Beta virt. eigenvalues --    0.06145   0.07275   0.08452   0.09256   0.10133

 Mulliken charges and spin densities:
               1          2
     1  H    0.201171  -0.022228
     2  C   -0.008754   0.189610
     3  C    0.300159  -0.158699
     4  C   -0.450569   1.405904
     5  C   -0.021003   0.792707
     6  C   -0.021003   0.792707
 Sum of Mulliken charges =   0.00000   3.00000

 Dipole moment (field-independent basis, Debye):
    X=             -0.7953    Y=              0.3119    Z=             -0.0000  Tot=              0.8543
 Quadrupole moment (field-independent basis, Debye-Ang):
   XX=            -26.9695   YY=            -31.7887   ZZ=            -29.6371
   XY=             -1.1358   XZ=             -0.0000   YZ=              0.0000

  Exact polarizability:  82.191  47.284 114.473   0.000  -0.000  49.728
 Approx polarizability: 103.186  64.274 161.748  -0.000   0.000  91.766

                      1                      2                      3
                     A'                     A"                     A'
 Frequencies --    180.9365               197.9579               393.7060
 Red. masses --      9.4878                11.3878                10.1622
 Frc consts  --      0.1830                 0.2629                 0.9281
 IR Inten    --     64.1191                 0.0291               379.0247

                      4                      5                      6
                     A"                     A"                     A'
 Frequencies --    422.8553               547.3368               738.1930
 Red. masses --      7.6039                 7.5229                 9.1635
 Frc consts  --      0.8011                 1.3278                 2.9420
 IR Inten    --      0.4137                 1.5471               190.1224

                      7                      8                      9
                     A"                     A'                     A'
 Frequencies --    840.2861               966.8621              1307.0105
 Red. masses --      1.3521                 5.1858                 1.2178
 Frc consts  --      0.5625                 2.8562                 1.2257
 IR Inten    --     45.0506               558.0297                15.3408

                     10                     11                     12
                     A'                     A'                     A'
 Frequencies --   1521.6945              1725.6378              3110.7614
 Red. masses --     10.4472                11.2373                 1.0829
 Frc consts  --     14.2530                19.7157                 6.1741
 IR Inten    --   1545.2830               297.3206                 2.7469

 - Thermochemistry -
 -------------------
 Temperature   298.150 Kelvin.  Pressure   1.00000 Atm.
 Atom     1 has atomic number  1 and mass   1.00783

 Molecular mass:    61.00783 amu.
 Principal axes and moments of inertia in atomic units:
                           1         2         3
     Eigenvalues --    66.41798 479.59379 484.09178
           X            0.55339   0.00000   0.83292
           Y            0.83292   0.00000  -0.55339
           Z            0.00000   1.00000  -0.00000
 This molecule is an asymmetric top.
 Rotational symmetry number  1.
 Rotational temperatures (Kelvin)      1.30407     0.18060     0.17892
 Rotational constants (GHZ):          27.17248     3.76306     3.72810
 Zero-point vibrational energy      71496.2 (Joules/Mol)
                                   17.08801 (Kcal/Mol)
 Warning -- explicit consideration of   5 degrees of freedom as
           vibrations may cause significant error
 Vibrational temperatures:    260.33   284.82   566.45   608.39   787.49
          (Kelvin)           1062.09  1208.98  1391.10  1880.49  2189.38
                             2482.80  4475.69

 Zero-point correction=                           0.027231 (Hartree/Particle)
 Thermal correction to Energy=                    0.032239
 Thermal correction to Enthalpy=                  0.033183
 Thermal correction to Gibbs Free Energy=        -0.001372
 Sum of electronic and zero-point Energies=           -190.706753
 Sum of electronic and thermal Energies=              -190.701745
 Sum of electronic and thermal Enthalpies=            -190.700801
 Sum of electronic and thermal Free Energies=         -190.735356

                     E (Thermal)             CV                S
                      KCal/Mol        Cal/Mol-Kelvin    Cal/Mol-Kelvin
 Total                   20.230             15.727             72.726
 Electronic               0.000              0.000              2.755
 Translational            0.889              2.981             38.245
 Rotational               0.889              2.981             24.248
 Vibrational             18.453              9.765              7.478
 Vibration     1          0.630              1.866              2.319
 Vibration     2          0.637              1.843              2.152
 Vibration     3          0.761              1.484              0.986
 Vibration     4          0.785              1.421              0.882
 Vibration     5          0.903              1.146              0.550

 Optimization completed.
    -- Stationary point found.
 Normal termination of Gaussian 09 at Wed Jul  6 12:43:43 2016.
