 Gaussian 09, Revision E.01,
 Gaussian 09:  EM64L-G09RevE.01 30-Nov-2015

 ---------------------------------------------
 #p b3lyp/6-311++G(3df,2p) freq symmetry=Loose
 ---------------------------------------------

 ---------
 b3lyp opt
 ---------
 Symbolic Z-matrix:
 Charge =  2 Multiplicity = 4

                         Standard orientation:
 ---------------------------------------------------------------------
 Center     Atomic      Atomic             Coordinates (Angstroms)
 Number     Number       Type             X           Y           Z
 ---------------------------------------------------------------------
      1          6           0        0.818423   -1.424615    0.000000
      2          6           0       -0.554223   -1.500275    0.000000
      3          6           0        0.106577   -0.258831    0.000000
      4          6           0        0.000000    1.135520    0.000000
      5          6           0       -0.118587    2.386240    0.000000
      6          1           0       -1.513133   -2.028236    0.000000
 ---------------------------------------------------------------------

 SCF Done:  E(UB3LYP) =  -189.882831726     A.U. after   18 cycles

 The electronic state is 4-A".
 Alpha  occ. eigenvalues --  -10.84125 -10.79175 -10.78366 -10.78118 -10.76817
 Alpha  occ. eigenvalues --   -1.46602  -1.34682  -1.19690  -1.07476  -0.97845
 Alpha  occ. eigenvalues --   -0.92682  -0.92679  -0.90199  -0.85675  -0.84822
 Alpha  occ. eigenvalues --   -0.78125
 Alpha virt. eigenvalues --   -0.60263  -0.52117  -0.51334  -0.42383  -0.34425
 Alpha virt. eigenvalues --   -0.32851  -0.31117  -0.28424  -0.26589  -0.24489
 Alpha virt. eigenvalues --   -0.24021  -0.22437  -0.21324  -0.20713  -0.19543

  Beta  occ. eigenvalues --  -10.80816 -10.78406 -10.78014 -10.76563 -10.76493
  Beta  occ. eigenvalues --   -1.45238  -1.29824  -1.17303  -1.06204  -0.94183
  Beta  occ. eigenvalues --   -0.89836  -0.89210  -0.80583
  Beta virt. eigenvalues --   -0.72344  -0.67241  -0.62593  -0.55019  -0.48743
  Beta virt. eigenvalues --   -0.46994  -0.36248  -0.33371  -0.32215  -0.30271
  Beta virt. eigenvalues --   -0.27080  -0.26201  -0.23699  -0.22326  -0.21463

 Mulliken charges and spin densities:
               1          2
     1  C    0.321620   0.916670
     2  C    0.162621   0.142403
     3  C    0.075778   0.007699
     4  C    0.424832   0.292517
     5  C    0.643811   1.641297
     6  H    0.371338  -0.000587
 Sum of Mulliken charges =   2.00000   3.00000

 Dipole moment (field-independent basis, Debye):
    X=             -1.4006    Y=              1.2820    Z=              0.0000  Tot=              1.8987
 Quadrupole moment (field-independent basis, Debye-Ang):
   XX=            -18.0697   YY=             11.2685   ZZ=            -21.3151
   XY=              2.1032   XZ=              0.0000   YZ=              0.0000

  Exact polarizability:  32.357  -2.914  70.574  -0.000   0.000  21.537
 Approx polarizability:  51.384 -10.785 132.640  -0.000  -0.000  32.139

                      1                      2                      3
                     A'                     A"                     A'
 Frequencies --    195.9543               229.7553               464.9936
 Red. masses --      7.4805                10.1349                 6.5376
 Frc consts  --      0.1692                 0.3152                 0.8328
 IR Inten    --      5.0766                 2.9662                 4.3881

                      4                      5                      6
                     A"                     A'                     A"
 Frequencies --    558.4834               710.3041               951.3868
 Red. masses --      8.2483                 8.9531                 1.3718
 Frc consts  --      1.5158                 2.6614                 0.7316
 IR Inten    --      1.7847                 7.0658                23.9426

                      7                      8                      9
                     A'                     A'                     A'
 Frequencies --    963.0284              1138.5694              1304.3695
 Red. masses --      1.2703                 9.2654                 8.3088
 Frc consts  --      0.6941                 7.0767                 8.3290
 IR Inten    --     43.8982                70.1150                 9.7500

                     10                     11                     12
                     A'                     A'                     A'
 Frequencies --   1569.5862              2001.8686              3121.3219
 Red. masses --      9.2179                11.9321                 1.1206
 Frc consts  --     13.3798                28.1733                 6.4324
 IR Inten    --    142.7860                23.7702               208.6551

 - Thermochemistry -
 -------------------
 Temperature   298.150 Kelvin.  Pressure   1.00000 Atm.
 Atom     1 has atomic number  6 and mass  12.00000

 Molecular mass:    61.00783 amu.
 Principal axes and moments of inertia in atomic units:
                           1         2         3
     Eigenvalues --    50.43839 500.75419 551.19258
           X           -0.03727   0.99931   0.00000
           Y            0.99931   0.03727   0.00000
           Z           -0.00000   0.00000   1.00000
 This molecule is an asymmetric top.
 Rotational symmetry number  1.
 Rotational temperatures (Kelvin)      1.71722     0.17297     0.15714
 Rotational constants (GHZ):          35.78110     3.60405     3.27425
 Zero-point vibrational energy      79011.1 (Joules/Mol)
                                   18.88410 (Kcal/Mol)
 Warning -- explicit consideration of   4 degrees of freedom as
           vibrations may cause significant error
 Vibrational temperatures:    281.93   330.57   669.02   803.53  1021.97
          (Kelvin)           1368.83  1385.58  1638.15  1876.69  2258.28
                             2880.24  4490.88

 Zero-point correction=                           0.030094 (Hartree/Particle)
 Thermal correction to Energy=                    0.034677
 Thermal correction to Enthalpy=                  0.035621
 Thermal correction to Gibbs Free Energy=         0.001847
 Sum of electronic and zero-point Energies=           -189.852738
 Sum of electronic and thermal Energies=              -189.848155
 Sum of electronic and thermal Enthalpies=            -189.847211
 Sum of electronic and thermal Free Energies=         -189.880985

                     E (Thermal)             CV                S
                      KCal/Mol        Cal/Mol-Kelvin    Cal/Mol-Kelvin
 Total                   21.760             14.179             71.083
 Electronic               0.000              0.000              2.755
 Translational            0.889              2.981             38.245
 Rotational               0.889              2.981             24.147
 Vibrational             19.983              8.218              5.937
 Vibration     1          0.636              1.846              2.171
 Vibration     2          0.652              1.796              1.881
 Vibration     3          0.822              1.328              0.752
 Vibration     4          0.914              1.121              0.527

 Optimization completed.
    -- Stationary point found.
 Normal termination of Gaussian 09 at Mon Jun 20 14:59:39 2016.
