 Gaussian 09, Revision E.01,
 Gaussian 09:  EM64L-G09RevE.01 30-Nov-2015

 ---------------------------------------------
 #p b3lyp/6-311++G(3df,2p) freq symmetry=Loose
 ---------------------------------------------

 ---------
 b3lyp opt
 ---------
 Symbolic Z-matrix:
 Charge =  0 Multiplicity = 2

                         Standard orientation:
 ---------------------------------------------------------------------
 Center     Atomic      Atomic             Coordinates (Angstroms)
 Number     Number       Type             X           Y           Z
 ---------------------------------------------------------------------
      1          1           0        0.000000    0.000000   -3.482485
      2          6           0        0.000000    0.000000   -2.419380
      3          6           0        0.000000    0.000000   -1.198461
      4          6           0        0.000000    0.000000    0.121860
      5          6           0        0.000000    0.000000    1.386063
      6          6           0        0.000000    0.000000    2.690332
 ---------------------------------------------------------------------

 SCF Done:  E(UB3LYP) =  -190.915896887     A.U. after   17 cycles

 Unable to determine electronic state:  an orbital has unidentified symmetry.
 Alpha  occ. eigenvalues --  -10.27441 -10.25157 -10.24322 -10.23857 -10.20874
 Alpha  occ. eigenvalues --   -0.86465  -0.80959  -0.73713  -0.65085  -0.57638
 Alpha  occ. eigenvalues --   -0.42358  -0.41327  -0.34118  -0.32699  -0.31318
 Alpha  occ. eigenvalues --   -0.23282
 Alpha virt. eigenvalues --   -0.16640  -0.02145  -0.01423  -0.01193   0.01387
 Alpha virt. eigenvalues --    0.04443   0.04445   0.04968   0.07419   0.07757
 Alpha virt. eigenvalues --    0.08078   0.09282   0.09769   0.09981   0.13061

  Beta  occ. eigenvalues --  -10.26755 -10.24692 -10.24488 -10.23104 -10.21095
  Beta  occ. eigenvalues --   -0.85610  -0.80286  -0.71933  -0.64261  -0.57202
  Beta  occ. eigenvalues --   -0.41091  -0.40034  -0.32548  -0.31513  -0.29981
  Beta virt. eigenvalues --   -0.15673  -0.13610  -0.01353  -0.01053  -0.00067
  Beta virt. eigenvalues --    0.01451   0.04454   0.04707   0.05119   0.07485
  Beta virt. eigenvalues --    0.08198   0.08671   0.09417   0.10043   0.10371

 Mulliken charges and spin densities:
               1          2
     1  H    0.333259  -0.010366
     2  C    0.387593   0.368779
     3  C   -0.243413  -0.167651
     4  C   -0.927630   0.399037
     5  C    1.319983  -0.054227
     6  C   -0.869792   0.464428
 Sum of Mulliken charges =  -0.00000   1.00000

 Dipole moment (field-independent basis, Debye):
    X=              0.0000    Y=              0.0000    Z=             -5.1812  Tot=              5.1812
 Quadrupole moment (field-independent basis, Debye-Ang):
   XX=            -29.9569   YY=            -28.1653   ZZ=            -30.4535
   XY=              0.0000   XZ=              0.0000   YZ=              0.0000

  Exact polarizability:  36.424   0.000  35.088  -0.000   0.000 142.556
 Approx polarizability:  49.335  -0.000  50.311  -0.000  -0.000 334.427

                      1                      2                      3
                     ?A                     ?A                     ?A
 Frequencies --    134.1631               134.6018               296.8491
 Red. masses --      7.1100                 6.7652                 6.2550
 Frc consts  --      0.0754                 0.0722                 0.3247
 IR Inten    --      0.4546                 2.3991                 9.7462

                      4                      5                      6
                     ?A                     ?A                     ?A
 Frequencies --    374.5134               421.5716               475.5130
 Red. masses --     11.6123                 1.2627                 6.5035
 Frc consts  --      0.9596                 0.1322                 0.8664
 IR Inten    --      1.6861                64.0236                 0.7676

                      7                      8                      9
                     ?A                     ?A                     SG
 Frequencies --    623.4636               761.7838               771.7313
 Red. masses --      8.2866                 1.3439                 9.1827
 Frc consts  --      1.8978                 0.4595                 3.2222
 IR Inten    --      4.5617                22.8650                 4.1806

                     10                     11                     12
                     SG                     SG                     SG
 Frequencies --   1463.0530              1957.1767              2054.3752
 Red. masses --     10.0329                11.8794                 7.1374
 Frc consts  --     12.6531                26.8105                17.7481
 IR Inten    --     73.5129               545.1076                 5.2554

                     13
                     SG
 Frequencies --   3445.0447
 Red. masses --      1.1393
 Frc consts  --      7.9670
 IR Inten    --    127.5576

 - Thermochemistry -
 -------------------
 Temperature   298.150 Kelvin.  Pressure   1.00000 Atm.
 Atom     1 has atomic number  1 and mass   1.00783

 Molecular mass:    61.00783 amu.
 Principal axes and moments of inertia in atomic units:
                           1         2         3
     Eigenvalues --     0.00000 748.46053 748.46053
           X            0.00000  -0.00000   1.00000
           Y            0.00000   1.00000   0.00000
           Z            1.00000   0.00000   0.00000
 This molecule is a prolate symmetric top.
 Rotational symmetry number  1.
 Warning -- assumption of classical behavior for rotation
           may cause significant error
 Rotational temperature (Kelvin)      0.11572
 Rotational constant (GHZ):           2.411271
 Zero-point vibrational energy      77241.9 (Joules/Mol)
                                   18.46126 (Kcal/Mol)
 Warning -- explicit consideration of   6 degrees of freedom as
           vibrations may cause significant error
 Vibrational temperatures:    193.03   193.66   427.10   538.84   606.55
          (Kelvin)            684.16   897.02  1096.04  1110.35  2105.00
                             2815.94  2955.78  4956.64

 Zero-point correction=                           0.029420 (Hartree/Particle)
 Thermal correction to Energy=                    0.034745
 Thermal correction to Enthalpy=                  0.035689
 Thermal correction to Gibbs Free Energy=         0.003386
 Sum of electronic and zero-point Energies=           -190.886477
 Sum of electronic and thermal Energies=              -190.881152
 Sum of electronic and thermal Enthalpies=            -190.880208
 Sum of electronic and thermal Free Energies=         -190.912511

                     E (Thermal)             CV                S
                      KCal/Mol        Cal/Mol-Kelvin    Cal/Mol-Kelvin
 Total                   21.803             17.243             67.987
 Electronic               0.000              0.000              1.377
 Translational            0.889              2.981             38.245
 Rotational               0.592              1.987             17.595
 Vibrational             20.321             12.275             10.769
 Vibration     1          0.613              1.919              2.885
 Vibration     2          0.613              1.919              2.879
 Vibration     3          0.690              1.680              1.435
 Vibration     4          0.746              1.524              1.061
 Vibration     5          0.784              1.423              0.887
 Vibration     6          0.832              1.304              0.722

 Optimization completed.
    -- Stationary point found.
 Normal termination of Gaussian 09 at Mon Jun 20 13:55:27 2016.
