 Gaussian 09, Revision E.01,
 Gaussian 09:  EM64L-G09RevE.01 30-Nov-2015

 ---------------------------------------------
 #p b3lyp/6-311++G(3df,2p) freq symmetry=Loose
 ---------------------------------------------

 ---------
 b3lyp opt
 ---------
 Symbolic Z-matrix:
 Charge =  0 Multiplicity = 4

                         Standard orientation:
 ---------------------------------------------------------------------
 Center     Atomic      Atomic             Coordinates (Angstroms)
 Number     Number       Type             X           Y           Z
 ---------------------------------------------------------------------
      1          1           0       -1.589917    2.278424    0.000000
      2          6           0       -1.201960    1.275534    0.000000
      3          6           0        0.000000    0.646689    0.000000
      4          6           0        0.406542   -0.753646    0.000000
      5          6           0       -0.277105   -1.901748    0.000000
      6          6           0        1.337509    0.353434    0.000000
 ---------------------------------------------------------------------

 SCF Done:  E(UB3LYP) =  -190.760004376     A.U. after   19 cycles

 The electronic state is 4-A'.
 Alpha  occ. eigenvalues --  -10.29634 -10.28127 -10.27447 -10.26119 -10.24936
 Alpha  occ. eigenvalues --   -0.97662  -0.80650  -0.77590  -0.58553  -0.49970
 Alpha  occ. eigenvalues --   -0.46747  -0.45182  -0.34951  -0.34140  -0.32241
 Alpha  occ. eigenvalues --   -0.27643  -0.25497
 Alpha virt. eigenvalues --   -0.11882  -0.02177  -0.01229  -0.00071   0.02532
 Alpha virt. eigenvalues --    0.04106   0.05026   0.06148   0.06664   0.06945
 Alpha virt. eigenvalues --    0.08182   0.09470   0.09726   0.10086   0.11458

  Beta  occ. eigenvalues --  -10.29684 -10.27118 -10.25684 -10.24852 -10.24337
  Beta  occ. eigenvalues --   -0.96175  -0.75702  -0.73462  -0.56354  -0.48187
  Beta  occ. eigenvalues --   -0.43436  -0.42335  -0.31285  -0.28813
  Beta virt. eigenvalues --   -0.20677  -0.15474  -0.12687  -0.08984  -0.00877
  Beta virt. eigenvalues --    0.00775   0.02849   0.04120   0.04586   0.06303
  Beta virt. eigenvalues --    0.07065   0.07441   0.07668   0.09556   0.10196

 Mulliken charges and spin densities:
               1          2
     1  H    0.226512  -0.000055
     2  C   -0.435131   1.594636
     3  C    0.564204  -0.012520
     4  C    0.818546   0.274251
     5  C   -0.707399   0.788716
     6  C   -0.466731   0.354973
 Sum of Mulliken charges =  -0.00000   3.00000

 Dipole moment (field-independent basis, Debye):
    X=             -1.6698    Y=              2.9591    Z=             -0.0000  Tot=              3.3977
 Quadrupole moment (field-independent basis, Debye-Ang):
   XX=            -32.5373   YY=            -30.3658   ZZ=            -28.7727
   XY=             -5.9771   XZ=              0.0000   YZ=              0.0000

  Exact polarizability:  68.393  -3.725  83.687  -0.000  -0.000  38.058
 Approx polarizability: 131.056   3.291 162.212  -0.000  -0.000  53.256

                      1                      2                      3
                     A'                     A"                     A"
 Frequencies --    186.4644               300.6696               360.7105
 Red. masses --      6.5937                 1.2223                 8.2690
 Frc consts  --      0.1351                 0.0651                 0.6339
 IR Inten    --      2.8727                10.5505                41.5585

                      4                      5                      6
                     A'                     A"                     A'
 Frequencies --    368.8641               478.2639               613.6430
 Red. masses --      3.2395                 8.9602                 2.9574
 Frc consts  --      0.2597                 1.2075                 0.6561
 IR Inten    --     23.0195                 0.8606                29.1620

                      7                      8                      9
                     A'                     A'                     A'
 Frequencies --    744.3215               832.8794               997.0792
 Red. masses --      4.8559                 3.9683                 8.1459
 Frc consts  --      1.5850                 1.6219                 4.7714
 IR Inten    --     36.6236                27.2902                 6.1134

                     10                     11                     12
                     A'                     A'                     A'
 Frequencies --   1327.7919              1637.4389              3274.4134
 Red. masses --     10.2250                11.1255                 1.0956
 Frc consts  --     10.6212                17.5751                 6.9208
 IR Inten    --     54.5441                25.7677                22.5722

 - Thermochemistry -
 -------------------
 Temperature   298.150 Kelvin.  Pressure   1.00000 Atm.
 Atom     1 has atomic number  1 and mass   1.00783

 Molecular mass:    61.00783 amu.
 Principal axes and moments of inertia in atomic units:
                           1         2         3
     Eigenvalues --   141.88195 306.71583 448.59778
           X           -0.31169   0.95018   0.00000
           Y            0.95018   0.31169   0.00000
           Z           -0.00000   0.00000   1.00000
 This molecule is an asymmetric top.
 Rotational symmetry number  1.
 Rotational temperatures (Kelvin)      0.61046     0.28239     0.19308
 Rotational constants (GHZ):          12.72002     5.88408     4.02307
 Zero-point vibrational energy      66527.6 (Joules/Mol)
                                   15.90047 (Kcal/Mol)
 Warning -- explicit consideration of   6 degrees of freedom as
           vibrations may cause significant error
 Vibrational temperatures:    268.28   432.60   518.98   530.71   688.11
          (Kelvin)            882.89  1070.91  1198.33  1434.57  1910.39
                             2355.91  4711.14

 Zero-point correction=                           0.025339 (Hartree/Particle)
 Thermal correction to Energy=                    0.030472
 Thermal correction to Enthalpy=                  0.031417
 Thermal correction to Gibbs Free Energy=        -0.003301
 Sum of electronic and zero-point Energies=           -190.734665
 Sum of electronic and thermal Energies=              -190.729532
 Sum of electronic and thermal Enthalpies=            -190.728588
 Sum of electronic and thermal Free Energies=         -190.763305

                     E (Thermal)             CV                S
                      KCal/Mol        Cal/Mol-Kelvin    Cal/Mol-Kelvin
 Total                   19.122             16.789             73.069
 Electronic               0.000              0.000              2.755
 Translational            0.889              2.981             38.245
 Rotational               0.889              2.981             24.483
 Vibrational             17.344             10.828              7.586
 Vibration     1          0.632              1.858              2.263
 Vibration     2          0.693              1.672              1.413
 Vibration     3          0.735              1.553              1.119
 Vibration     4          0.741              1.536              1.085
 Vibration     5          0.835              1.298              0.715
 Vibration     6          0.973              1.003              0.427

 Optimization completed.
    -- Stationary point found.
 Normal termination of Gaussian 09 at Mon Jun 20 14:16:19 2016.
