 Gaussian 09, Revision E.01,
 Gaussian 09:  EM64L-G09RevE.01 30-Nov-2015

 ---------------------------------------------
 #p b3lyp/6-311++G(3df,2p) freq symmetry=Loose
 ---------------------------------------------

 ---------
 b3lyp opt
 ---------
 Symbolic Z-matrix:
 Charge =  1 Multiplicity = 1

                         Standard orientation:
 ---------------------------------------------------------------------
 Center     Atomic      Atomic             Coordinates (Angstroms)
 Number     Number       Type             X           Y           Z
 ---------------------------------------------------------------------
      1          1           0       -0.711492    2.869965   -0.000000
      2          6           0       -0.357444    1.856045   -0.000000
      3          6           0       -0.000000    0.688742   -0.000000
      4          6           0        0.325316   -0.686538    0.000000
      5          6           0       -1.068253   -0.648007    0.000000
      6          6           0        1.218963   -1.688570    0.000000
 ---------------------------------------------------------------------

 SCF Done:  E(RB3LYP) =  -190.466530108     A.U. after   15 cycles

 The electronic state is 1-A'.
 Alpha  occ. eigenvalues --  -10.57090 -10.56482 -10.50707 -10.50032 -10.49445
 Alpha  occ. eigenvalues --   -1.18737  -1.04257  -0.98010  -0.81977  -0.78295
 Alpha  occ. eigenvalues --   -0.67185  -0.63717  -0.57390  -0.56922  -0.54508
 Alpha virt. eigenvalues --   -0.39982  -0.38846  -0.36485  -0.26553  -0.16238
 Alpha virt. eigenvalues --   -0.15860  -0.13989  -0.13575  -0.10073  -0.10040
 Alpha virt. eigenvalues --   -0.09030  -0.07038  -0.06201  -0.05400  -0.04742

 Mulliken charges:
               1
     1  H    0.399184
     2  C    0.771324
     3  C   -0.821060
     4  C    1.041478
     5  C   -0.113011
     6  C   -0.277915
 Sum of Mulliken charges =   1.00000

 Dipole moment (field-independent basis, Debye):
    X=             -0.0257    Y=              2.6038    Z=             -0.0000  Tot=              2.6039
 Quadrupole moment (field-independent basis, Debye-Ang):
   XX=            -24.2702   YY=             -9.9422   ZZ=            -25.9693
   XY=             -3.5542   XZ=             -0.0000   YZ=             -0.0000

  Exact polarizability:  48.482 -14.202  77.875  -0.000   0.000  29.510
 Approx polarizability: 112.755 -48.607 189.185   0.000  -0.000  45.153

                      1                      2                      3
                     A'                     A"                     A'
 Frequencies --     84.7729               201.1333               204.2233
 Red. masses --      4.9240                 6.9240                 8.8504
 Frc consts  --      0.0208                 0.1650                 0.2175
 IR Inten    --      7.7749                 0.0752                16.7136

                      4                      5                      6
                     A'                     A"                     A"
 Frequencies --    375.1876               385.2520               649.3230
 Red. masses --     11.7980                 9.0476                 1.2337
 Frc consts  --      0.9785                 0.7912                 0.3065
 IR Inten    --    111.9949                 6.2198                46.3137

                      7                      8                      9
                     A'                     A'                     A'
 Frequencies --    818.5549               856.9186              1138.5446
 Red. masses --      9.0836                 1.3060                11.8401
 Frc consts  --      3.5860                 0.5650                 9.0428
 IR Inten    --     46.5269                13.3853                41.8363

                     10                     11                     12
                     A'                     A'                     A'
 Frequencies --   1640.6941              2087.0173              3353.2080
 Red. masses --     10.4060                 6.4497                 1.1571
 Frc consts  --     16.5040                16.5517                 7.6654
 IR Inten    --    678.2550               102.6941               187.6832

 - Thermochemistry -
 -------------------
 Temperature   298.150 Kelvin.  Pressure   1.00000 Atm.
 Atom     1 has atomic number  1 and mass   1.00783

 Molecular mass:    61.00783 amu.
 Principal axes and moments of inertia in atomic units:
                           1         2         3
     Eigenvalues --    84.87823 396.99851 481.87674
           X           -0.35575   0.93458   0.00000
           Y            0.93458   0.35575   0.00000
           Z           -0.00000  -0.00000   1.00000
 This molecule is an asymmetric top.
 Rotational symmetry number  1.
 Rotational temperatures (Kelvin)      1.02045     0.21817     0.17974
 Rotational constants (GHZ):          21.26271     4.54596     3.74523
 Zero-point vibrational energy      70548.7 (Joules/Mol)
                                   16.86156 (Kcal/Mol)
 Warning -- explicit consideration of   5 degrees of freedom as
           vibrations may cause significant error
 Vibrational temperatures:    121.97   289.39   293.83   539.81   554.29
          (Kelvin)            934.23  1177.72  1232.91  1638.11  2360.59
                             3002.75  4824.51

 Zero-point correction=                           0.026871 (Hartree/Particle)
 Thermal correction to Energy=                    0.032535
 Thermal correction to Enthalpy=                  0.033479
 Thermal correction to Gibbs Free Energy=        -0.001399
 Sum of electronic and zero-point Energies=           -190.439660
 Sum of electronic and thermal Energies=              -190.433995
 Sum of electronic and thermal Enthalpies=            -190.433051
 Sum of electronic and thermal Free Energies=         -190.467929

                     E (Thermal)             CV                S
                      KCal/Mol        Cal/Mol-Kelvin    Cal/Mol-Kelvin
 Total                   20.416             17.032             73.407
 Electronic               0.000              0.000              0.000
 Translational            0.889              2.981             38.245
 Rotational               0.889              2.981             24.300
 Vibrational             18.638             11.071             10.863
 Vibration     1          0.601              1.960              3.777
 Vibration     2          0.638              1.838              2.123
 Vibration     3          0.640              1.834              2.095
 Vibration     4          0.746              1.523              1.059
 Vibration     5          0.754              1.502              1.018

 Optimization completed.
    -- Stationary point found.
 Normal termination of Gaussian 09 at Mon Jun 20 14:23:09 2016.
