 Gaussian 09, Revision E.01,
 Gaussian 09:  EM64L-G09RevE.01 30-Nov-2015

 ---------------------------------------------
 #p b3lyp/6-311++G(3df,2p) freq symmetry=Loose
 ---------------------------------------------

 ---------
 b3lyp opt
 ---------
 Symbolic Z-matrix:
 Charge =  0 Multiplicity = 4

                         Standard orientation:
 ---------------------------------------------------------------------
 Center     Atomic      Atomic             Coordinates (Angstroms)
 Number     Number       Type             X           Y           Z
 ---------------------------------------------------------------------
      1          6           0        1.198906    1.495158    0.000000
      2          6           0       -0.000000    0.724129   -0.000000
      3          6           0       -0.156663   -0.536564    0.876717
      4          6           0       -0.742619   -1.380736   -0.000000
      5          6           0       -0.156663   -0.536564   -0.876717
      6          1           0       -0.857778    1.407433   -0.000000
 ---------------------------------------------------------------------

 SCF Done:  E(UB3LYP) =  -190.694293006     A.U. after   18 cycles

 The electronic state is 4-A'.
 Alpha  occ. eigenvalues --  -10.28811 -10.27374 -10.27324 -10.27321 -10.25682
 Alpha  occ. eigenvalues --   -0.98693  -0.80887  -0.62003  -0.61988  -0.55462
 Alpha  occ. eigenvalues --   -0.46033  -0.41027  -0.38463  -0.34740  -0.30423
 Alpha  occ. eigenvalues --   -0.27077  -0.23502
 Alpha virt. eigenvalues --   -0.14918  -0.07018  -0.04780   0.00164   0.03228
 Alpha virt. eigenvalues --    0.03923   0.04243   0.06611   0.07385   0.07555
 Alpha virt. eigenvalues --    0.08035   0.08255   0.09608   0.11542   0.11567

  Beta  occ. eigenvalues --  -10.27448 -10.27146 -10.25884 -10.25879 -10.24435
  Beta  occ. eigenvalues --   -0.96831  -0.78607  -0.58341  -0.57532  -0.53968
  Beta  occ. eigenvalues --   -0.43226  -0.36877  -0.33225  -0.30754
  Beta virt. eigenvalues --   -0.17550  -0.12887  -0.12809  -0.10438  -0.03467
  Beta virt. eigenvalues --   -0.02633   0.01150   0.03813   0.04311   0.05751
  Beta virt. eigenvalues --    0.06834   0.07849   0.08016   0.08486   0.08896

 Mulliken charges and spin densities:
               1          2
     1  C   -0.620817   0.978303
     2  C    0.736703  -0.101031
     3  C   -0.261733   0.767668
     4  C    0.185244   0.594319
     5  C   -0.261733   0.767668
     6  H    0.222335  -0.006928
 Sum of Mulliken charges =  -0.00000   3.00000

 Dipole moment (field-independent basis, Debye):
    X=             -1.7968    Y=              0.7682    Z=              0.0000  Tot=              1.9541
 Quadrupole moment (field-independent basis, Debye-Ang):
   XX=            -31.1829   YY=            -30.4769   ZZ=            -31.8047
   XY=             -4.2853   XZ=              0.0000   YZ=              0.0000

  Exact polarizability:  49.644  16.392  65.425  -0.000  -0.000  54.433
 Approx polarizability:  79.219  30.756 107.802  -0.000  -0.000 107.188

                      1                      2                      3
                     A'                     A"                     A'
 Frequencies --    213.0708               299.8666               491.4196
 Red. masses --      9.6196                 8.5504                 7.0381
 Frc consts  --      0.2573                 0.4530                 1.0014
 IR Inten    --     12.1896                 3.4891                13.6351

                      4                      5                      6
                     A"                     A'                     A"
 Frequencies --    544.6602               553.1004               810.6747
 Red. masses --      6.8849                11.1961                 1.3327
 Frc consts  --      1.2034                 2.0180                 0.5160
 IR Inten    --     18.5766                16.7285                33.9580

                      7                      8                      9
                     A'                     A'                     A"
 Frequencies --    865.8267              1028.5996              1163.6059
 Red. masses --      4.5672                 1.8100                 8.0130
 Frc consts  --      2.0173                 1.1283                 6.3923
 IR Inten    --      3.9749                 5.6068                 0.0473

                     10                     11                     12
                     A'                     A'                     A'
 Frequencies --   1177.7210              1528.9794              3027.9740
 Red. masses --      3.3528                10.6070                 1.0792
 Frc consts  --      2.7400                14.6098                 5.8300
 IR Inten    --      7.9138                 1.0365                25.0422

 - Thermochemistry -
 -------------------
 Temperature   298.150 Kelvin.  Pressure   1.00000 Atm.
 Atom     1 has atomic number  6 and mass  12.00000

 Molecular mass:    61.00783 amu.
 Principal axes and moments of inertia in atomic units:
                           1         2         3
     Eigenvalues --    84.12774 321.59050 369.21502
           X            0.50145   0.00000   0.86519
           Y            0.86519   0.00000  -0.50145
           Z            0.00000   1.00000   0.00000
 This molecule is an asymmetric top.
 Rotational symmetry number  1.
 Rotational temperatures (Kelvin)      1.02955     0.26933     0.23459
 Rotational constants (GHZ):          21.45239     5.61192     4.88805
 Zero-point vibrational energy      70014.4 (Joules/Mol)
                                   16.73385 (Kcal/Mol)
 Warning -- explicit consideration of   5 degrees of freedom as
           vibrations may cause significant error
 Vibrational temperatures:    306.56   431.44   707.04   783.64   795.79
          (Kelvin)           1166.38  1245.73  1479.92  1674.17  1694.48
                             2199.86  4356.57

 Zero-point correction=                           0.026667 (Hartree/Particle)
 Thermal correction to Energy=                    0.031284
 Thermal correction to Enthalpy=                  0.032228
 Thermal correction to Gibbs Free Energy=        -0.001302
 Sum of electronic and zero-point Energies=           -190.667626
 Sum of electronic and thermal Energies=              -190.663009
 Sum of electronic and thermal Enthalpies=            -190.662065
 Sum of electronic and thermal Free Energies=         -190.695595

                     E (Thermal)             CV                S
                      KCal/Mol        Cal/Mol-Kelvin    Cal/Mol-Kelvin
 Total                   19.631             15.056             70.570
 Electronic               0.000              0.000              2.755
 Translational            0.889              2.981             38.245
 Rotational               0.889              2.981             23.817
 Vibrational             17.853              9.095              5.754
 Vibration     1          0.644              1.821              2.017
 Vibration     2          0.692              1.674              1.418
 Vibration     3          0.847              1.269              0.680
 Vibration     4          0.900              1.151              0.555
 Vibration     5          0.908              1.133              0.538

 Optimization completed.
    -- Stationary point found.
 Normal termination of Gaussian 09 at Mon Jun 20 14:06:11 2016.
