 Gaussian 09, Revision E.01,
 Gaussian 09:  EM64L-G09RevE.01 30-Nov-2015

 -------------------------------------------------
 #p b3lyp/6-311++G(3df,2p) opt freq symmetry=Loose
 -------------------------------------------------

 ---------
 b3lyp opt
 ---------
 Symbolic Z-matrix:
 Charge =  0 Multiplicity = 4

 SCF Done:  E(UB3LYP) =  -190.750445936     A.U. after   20 cycles
 SCF Done:  E(UB3LYP) =  -190.751083283     A.U. after   15 cycles
 SCF Done:  E(UB3LYP) =  -190.751214714     A.U. after   15 cycles
 SCF Done:  E(UB3LYP) =  -190.751226665     A.U. after   14 cycles
 SCF Done:  E(UB3LYP) =  -190.751231285     A.U. after   13 cycles
 Optimization completed.
    -- Stationary point found.
 Normal termination of Gaussian 09 at Wed Jul  6 12:32:24 2016.

 ----------------------------------------------------------------------
 #P Geom=AllCheck Guess=TCheck SCRF=Check GenChk UB3LYP/6-311++G(3df,2p
 ) Freq
 ----------------------------------------------------------------------

 Structure from the checkpoint file:  "/scratch/sergio/HC5.q0.m4-6.bis.com-2134322/Gau-20204.chk"
 ---------
 b3lyp opt
 ---------
 Charge =  0 Multiplicity = 4

                         Standard orientation:
 ---------------------------------------------------------------------
 Center     Atomic      Atomic             Coordinates (Angstroms)
 Number     Number       Type             X           Y           Z
 ---------------------------------------------------------------------
      1          1           0       -1.622154   -1.182252   -0.000000
      2          6           0       -0.540911   -1.024452   -0.000000
      3          6           0       -0.080596    0.327033    0.000000
      4          6           0        0.297289    1.474861    0.677631
      5          6           0        0.297289    1.474861   -0.677631
      6          6           0        0.297289   -2.055261   -0.000000
 ---------------------------------------------------------------------

 SCF Done:  E(UB3LYP) =  -190.751231285     A.U. after    1 cycles

 The electronic state is 4-A".
 Alpha  occ. eigenvalues --  -10.29092 -10.28828 -10.25685 -10.23734 -10.23662
 Alpha  occ. eigenvalues --   -0.96799  -0.84837  -0.66777  -0.55474  -0.52481
 Alpha  occ. eigenvalues --   -0.46190  -0.43612  -0.39658  -0.35902  -0.30685
 Alpha  occ. eigenvalues --   -0.26901  -0.26535
 Alpha virt. eigenvalues --   -0.06435  -0.05823  -0.02639  -0.00174   0.02985
 Alpha virt. eigenvalues --    0.04172   0.04206   0.05674   0.06579   0.07131
 Alpha virt. eigenvalues --    0.07453   0.09633   0.09848   0.11584   0.11931

  Beta  occ. eigenvalues --  -10.28423 -10.25804 -10.25228 -10.23037 -10.22961
  Beta  occ. eigenvalues --   -0.95842  -0.82187  -0.61950  -0.53284  -0.49844
  Beta  occ. eigenvalues --   -0.42479  -0.39644  -0.33009  -0.27456
  Beta virt. eigenvalues --   -0.21790  -0.15357  -0.09411  -0.04636  -0.02594
  Beta virt. eigenvalues --   -0.00907   0.00168   0.04085   0.04464   0.04709
  Beta virt. eigenvalues --    0.06206   0.06839   0.07423   0.07865   0.10469

 Mulliken charges and spin densities:
               1          2
     1  H    0.158356   0.085471
     2  C    0.166378  -0.275607
     3  C    0.502855   0.250457
     4  C   -0.280416   0.341566
     5  C   -0.280416   0.341566
     6  C   -0.266757   2.256546
 Sum of Mulliken charges =   0.00000   3.00000

 Dipole moment (field-independent basis, Debye):
    X=             -1.2225    Y=             -2.2628    Z=             -0.0000  Tot=              2.5719
 Quadrupole moment (field-independent basis, Debye-Ang):
   XX=            -26.4169   YY=            -30.4451   ZZ=            -33.0291
   XY=             -0.3942   XZ=             -0.0000   YZ=              0.0000

  Exact polarizability:  42.501  -0.771 118.909   0.000  -0.000  60.322
 Approx polarizability:  65.561  -5.049 199.987   0.000   0.000  89.575

                      1                      2                      3
                     A"                     A'                     A"
 Frequencies --     43.2921               226.6113               287.0058
 Red. masses --      4.2252                 8.9890                 3.6340
 Frc consts  --      0.0047                 0.2720                 0.1764
 IR Inten    --      4.1158                 4.5572                24.1453

                      4                      5                      6
                     A'                     A"                     A"
 Frequencies --    587.7508               652.9968               751.3645
 Red. masses --      8.6344                 4.9355                 2.5631
 Frc consts  --      1.7574                 1.2399                 0.8526
 IR Inten    --      0.7119               136.2945               164.3384

                      7                      8                      9
                     A'                     A'                     A'
 Frequencies --    835.0661              1223.2799              1293.9158
 Red. masses --      6.7637                 1.3372                 5.2247
 Frc consts  --      2.7789                 1.1790                 5.1538
 IR Inten    --      0.9221                 1.1323                54.1626

                     10                     11                     12
                     A'                     A'                     A'
 Frequencies --   1466.1394              1641.5749              3039.0340
 Red. masses --      9.8584                11.7234                 1.0826
 Frc consts  --     12.4856                18.6134                 5.8912
 IR Inten    --     12.1255                47.8984                 0.4003

 - Thermochemistry -
 -------------------
 Temperature   298.150 Kelvin.  Pressure   1.00000 Atm.
 Atom     1 has atomic number  1 and mass   1.00783

 Molecular mass:    61.00783 amu.
 Principal axes and moments of inertia in atomic units:
                           1         2         3
     Eigenvalues --    68.61202 455.44664 465.54378
           X            0.10335   0.00000   0.99464
           Y            0.99464   0.00000  -0.10335
           Z           -0.00000   1.00000  -0.00000
 This molecule is an asymmetric top.
 Rotational symmetry number  1.
 Rotational temperatures (Kelvin)      1.26237     0.19017     0.18605
 Rotational constants (GHZ):          26.30357     3.96257     3.87663
 Zero-point vibrational energy      72063.2 (Joules/Mol)
                                   17.22353 (Kcal/Mol)
 Warning -- explicit consideration of   4 degrees of freedom as
           vibrations may cause significant error
 Vibrational temperatures:     62.29   326.04   412.94   845.64   939.52
          (Kelvin)           1081.04  1201.47  1760.02  1861.65  2109.44
                             2361.86  4372.49

 Zero-point correction=                           0.027447 (Hartree/Particle)
 Thermal correction to Energy=                    0.032583
 Thermal correction to Enthalpy=                  0.033528
 Thermal correction to Gibbs Free Energy=        -0.002129
 Sum of electronic and zero-point Energies=           -190.723784
 Sum of electronic and thermal Energies=              -190.718648
 Sum of electronic and thermal Enthalpies=            -190.717704
 Sum of electronic and thermal Free Energies=         -190.753360

                     E (Thermal)             CV                S
                      KCal/Mol        Cal/Mol-Kelvin    Cal/Mol-Kelvin
 Total                   20.446             15.219             75.045
 Electronic               0.000              0.000              2.755
 Translational            0.889              2.981             38.245
 Rotational               0.889              2.981             24.190
 Vibrational             18.669              9.258              9.855
 Vibration     1          0.595              1.980              5.102
 Vibration     2          0.650              1.800              1.906
 Vibration     3          0.684              1.698              1.492
 Vibration     4          0.945              1.058              0.471

 Optimization completed.
    -- Stationary point found.
 Normal termination of Gaussian 09 at Wed Jul  6 12:43:33 2016.
