 Gaussian 09, Revision E.01,
 Gaussian 09:  EM64L-G09RevE.01 30-Nov-2015

 ---------------------------------------------
 #p b3lyp/6-311++G(3df,2p) freq symmetry=Loose
 ---------------------------------------------

 ---------
 b3lyp opt
 ---------
 Symbolic Z-matrix:
 Charge =  1 Multiplicity = 1

                         Standard orientation:
 ---------------------------------------------------------------------
 Center     Atomic      Atomic             Coordinates (Angstroms)
 Number     Number       Type             X           Y           Z
 ---------------------------------------------------------------------
      1          1           0        0.000000   -0.000000    2.173966
      2          6           0        0.000000   -0.000000    1.089458
      3          6           0        0.000000    0.762915   -0.038930
      4          6           0        0.000000    1.932384   -0.686962
      5          6           0       -0.000000   -0.762915   -0.038930
      6          6           0       -0.000000   -1.932384   -0.686962
 ---------------------------------------------------------------------

 SCF Done:  E(RB3LYP) =  -190.453028702     A.U. after   11 cycles

 The electronic state is 1-A1.
 Alpha  occ. eigenvalues --  -10.57049 -10.54176 -10.54174 -10.50472 -10.50452
 Alpha  occ. eigenvalues --   -1.22849  -1.02723  -0.99648  -0.86541  -0.74355
 Alpha  occ. eigenvalues --   -0.69340  -0.66489  -0.56481  -0.56193  -0.52965
 Alpha virt. eigenvalues --   -0.41839  -0.41245  -0.34043  -0.23445  -0.19749
 Alpha virt. eigenvalues --   -0.16462  -0.15045  -0.12704  -0.10682  -0.08797
 Alpha virt. eigenvalues --   -0.08450  -0.06431  -0.05763  -0.05610  -0.05418

 Mulliken charges:
               1
     1  H    0.335484
     2  C    0.069925
     3  C    0.607217
     4  C   -0.309922
     5  C    0.607217
     6  C   -0.309922
 Sum of Mulliken charges =   1.00000

 Dipole moment (field-independent basis, Debye):
    X=              0.0000    Y=             -0.0000    Z=              2.8724  Tot=              2.8724
 Quadrupole moment (field-independent basis, Debye-Ang):
   XX=            -25.9452   YY=            -24.1069   ZZ=            -17.3896
   XY=             -0.0000   XZ=             -0.0000   YZ=             -0.0000

  Exact polarizability:  29.849   0.000  85.580   0.000  -0.000  43.792
 Approx polarizability:  45.111   0.000 275.122   0.000  -0.000  76.377

                      1                      2                      3
                     A1                     B2                     B1
 Frequencies --    115.1150               222.1525               231.1022
 Red. masses --     11.2683                 6.0602                 5.7314
 Frc consts  --      0.0880                 0.1762                 0.1804
 IR Inten    --     12.9794                 0.1378                 0.2978

                      4                      5                      6
                     A2                     A1                     B1
 Frequencies --    328.1377               623.3379               877.9946
 Red. masses --     12.0000                11.7375                 1.3541
 Frc consts  --      0.7613                 2.6870                 0.6150
 IR Inten    --      0.0000                 7.6342                18.7673

                      7                      8                      9
                     B2                     B2                     A1
 Frequencies --    916.6615              1088.8056              1152.1178
 Red. masses --      1.9518                 2.3198                 7.6759
 Frc consts  --      0.9663                 1.6203                 6.0030
 IR Inten    --     20.6310                 0.7524                 0.6644

                     10                     11                     12
                     B2                     A1                     A1
 Frequencies --   1550.2152              1850.6538              3212.4084
 Red. masses --     11.7108                 8.7470                 1.1211
 Frc consts  --     16.5813                17.6506                 6.8162
 IR Inten    --   1224.4758               136.6817                89.6371

 - Thermochemistry -
 -------------------
 Temperature   298.150 Kelvin.  Pressure   1.00000 Atm.
 Atom     1 has atomic number  1 and mass   1.00783

 Molecular mass:    61.00783 amu.
 Principal axes and moments of inertia in atomic units:
                           1         2         3
     Eigenvalues --   108.17560 369.91780 478.09340
           X            0.00000   0.00000   1.00000
           Y            1.00000   0.00000   0.00000
           Z            0.00000   1.00000   0.00000
 This molecule is an asymmetric top.
 Rotational symmetry number  2.
 Rotational temperatures (Kelvin)      0.80068     0.23414     0.18117
 Rotational constants (GHZ):          16.68344     4.87876     3.77487
 Zero-point vibrational energy      72785.0 (Joules/Mol)
                                   17.39603 (Kcal/Mol)
 Warning -- explicit consideration of   4 degrees of freedom as
           vibrations may cause significant error
 Vibrational temperatures:    165.62   319.63   332.50   472.12   896.84
          (Kelvin)           1263.24  1318.87  1566.55  1657.64  2230.41
                             2662.67  4621.93

 Zero-point correction=                           0.027722 (Hartree/Particle)
 Thermal correction to Energy=                    0.032996
 Thermal correction to Enthalpy=                  0.033940
 Thermal correction to Gibbs Free Energy=         0.000484
 Sum of electronic and zero-point Energies=           -190.425306
 Sum of electronic and thermal Energies=              -190.420033
 Sum of electronic and thermal Enthalpies=            -190.419089
 Sum of electronic and thermal Free Energies=         -190.452545

                     E (Thermal)             CV                S
                      KCal/Mol        Cal/Mol-Kelvin    Cal/Mol-Kelvin
 Total                   20.705             15.722             70.414
 Electronic               0.000              0.000              0.000
 Translational            0.889              2.981             38.245
 Rotational               0.889              2.981             23.085
 Vibrational             18.928              9.760              9.084
 Vibration     1          0.608              1.937              3.181
 Vibration     2          0.648              1.807              1.941
 Vibration     3          0.653              1.793              1.870
 Vibration     4          0.711              1.619              1.269

 Optimization completed.
    -- Stationary point found.
 Normal termination of Gaussian 09 at Mon Jun 20 14:21:41 2016.
