 Gaussian 09, Revision E.01,
 Gaussian 09:  EM64L-G09RevE.01 30-Nov-2015

 ---------------------------------------------
 #p b3lyp/6-311++G(3df,2p) freq symmetry=Loose
 ---------------------------------------------

 ---------
 b3lyp opt
 ---------
 Symbolic Z-matrix:
 Charge =  3 Multiplicity = 1

                         Standard orientation:
 ---------------------------------------------------------------------
 Center     Atomic      Atomic             Coordinates (Angstroms)
 Number     Number       Type             X           Y           Z
 ---------------------------------------------------------------------
      1          6           0       -0.000198   -0.747598    2.107288
      2          6           0       -0.000198   -0.747598   -2.107288
      3          6           0       -0.000198   -0.033617   -0.692326
      4          6           0       -0.000198   -0.033617    0.692326
      5          6           0        0.000501    1.179628    0.000000
      6          1           0        0.001747    2.296813    0.000000
 ---------------------------------------------------------------------

 SCF Done:  E(RB3LYP) =  -188.982011111     A.U. after   12 cycles

 The electronic state is 1-A'.
 Alpha  occ. eigenvalues --  -11.17324 -11.17323 -11.03147 -11.03090 -11.02261
 Alpha  occ. eigenvalues --   -1.70807  -1.47260  -1.45047  -1.29120  -1.18894
 Alpha  occ. eigenvalues --   -1.15173  -1.14746  -1.07678  -1.05994
 Alpha virt. eigenvalues --   -0.93306  -0.89522  -0.88704  -0.87507  -0.74065
 Alpha virt. eigenvalues --   -0.71517  -0.62424  -0.61115  -0.52943  -0.52073
 Alpha virt. eigenvalues --   -0.48636  -0.43681  -0.43629  -0.43577  -0.40247

 Mulliken charges:
               1
     1  C    0.857680
     2  C    0.857680
     3  C    0.390075
     4  C    0.390075
     5  C    0.090933
     6  H    0.413558
 Sum of Mulliken charges =   3.00000

 Dipole moment (field-independent basis, Debye):
    X=              0.0005    Y=             -0.4575    Z=             -0.0000  Tot=              0.4575
 Quadrupole moment (field-independent basis, Debye-Ang):
   XX=            -19.3692   YY=             -4.8111   ZZ=             14.8166
   XY=              0.0085   XZ=             -0.0000   YZ=              0.0000

  Exact polarizability:  23.448   0.007  37.254  -0.000  -0.000  63.475
 Approx polarizability:  37.808   0.011  64.437   0.000  -0.000 124.971

                      1                      2                      3
                     A'                     A'                     A"
 Frequencies --    193.8186               259.2109               336.6115
 Red. masses --     11.0556                 5.7265                 5.0993
 Frc consts  --      0.2447                 0.2267                 0.3404
 IR Inten    --      0.0803                 5.4835                14.1955

                      4                      5                      6
                     A"                     A'                     A"
 Frequencies --    384.1592               608.8572               614.6710
 Red. masses --     12.0000                11.7856                 9.7786
 Frc consts  --      1.0434                 2.5741                 2.1768
 IR Inten    --      0.0000                79.3967               595.1635

                      7                      8                      9
                     A'                     A"                     A"
 Frequencies --    897.4635               959.7783              1078.6524
 Red. masses --      1.3426                 1.3832                 5.7677
 Frc consts  --      0.6371                 0.7507                 3.9538
 IR Inten    --     31.9239                 4.6090               480.5775

                     10                     11                     12
                     A'                     A'                     A'
 Frequencies --   1153.3216              1585.7181              2904.8248
 Red. masses --      7.4977                 8.2797                 1.1349
 Frc consts  --      5.8760                12.2664                 5.6424
 IR Inten    --     17.7004               237.6167               415.1535

 - Thermochemistry -
 -------------------
 Temperature   298.150 Kelvin.  Pressure   1.00000 Atm.
 Atom     1 has atomic number  6 and mass  12.00000

 Molecular mass:    61.00783 amu.
 Principal axes and moments of inertia in atomic units:
                           1         2         3
     Eigenvalues --   126.31054 421.66925 547.97977
           X            0.00000   0.00042   1.00000
           Y            0.00000   1.00000  -0.00042
           Z            1.00000  -0.00000  -0.00000
 This molecule is an asymmetric top.
 Rotational symmetry number  1.
 Rotational temperatures (Kelvin)      0.68572     0.20541     0.15806
 Rotational constants (GHZ):          14.28813     4.27999     3.29344
 Zero-point vibrational energy      65657.6 (Joules/Mol)
                                   15.69253 (Kcal/Mol)
 Warning -- explicit consideration of   6 degrees of freedom as
           vibrations may cause significant error
 Vibrational temperatures:    278.86   372.95   484.31   552.72   876.01
          (Kelvin)            884.37  1291.25  1380.91  1551.94  1659.37
                             2281.49  4179.39

 Zero-point correction=                           0.025008 (Hartree/Particle)
 Thermal correction to Energy=                    0.030041
 Thermal correction to Enthalpy=                  0.030985
 Thermal correction to Gibbs Free Energy=        -0.002499
 Sum of electronic and zero-point Energies=           -188.957003
 Sum of electronic and thermal Energies=              -188.951970
 Sum of electronic and thermal Enthalpies=            -188.951026
 Sum of electronic and thermal Free Energies=         -188.984510

                     E (Thermal)             CV                S
                      KCal/Mol        Cal/Mol-Kelvin    Cal/Mol-Kelvin
 Total                   18.851             16.196             70.473
 Electronic               0.000              0.000              0.000
 Translational            0.889              2.981             38.245
 Rotational               0.889              2.981             24.882
 Vibrational             17.074             10.235              7.346
 Vibration     1          0.635              1.848              2.191
 Vibration     2          0.668              1.747              1.667
 Vibration     3          0.717              1.602              1.228
 Vibration     4          0.753              1.504              1.023
 Vibration     5          0.968              1.013              0.435
 Vibration     6          0.974              1.001              0.425

 Optimization completed.
    -- Stationary point found.
 Normal termination of Gaussian 09 at Wed Jul 20 20:34:53 2016.
