 Gaussian 09, Revision E.01,
 Gaussian 09:  EM64L-G09RevE.01 30-Nov-2015

 ---------------------------------------------
 #p b3lyp/6-311++G(3df,2p) freq symmetry=Loose
 ---------------------------------------------

 ---------
 b3lyp opt
 ---------
 Symbolic Z-matrix:
 Charge =  1 Multiplicity = 3

                         Standard orientation:
 ---------------------------------------------------------------------
 Center     Atomic      Atomic             Coordinates (Angstroms)
 Number     Number       Type             X           Y           Z
 ---------------------------------------------------------------------
      1          1           0        0.000000    0.000000   -3.482149
      2          6           0        0.000000    0.000000   -2.410308
      3          6           0        0.000000    0.000000   -1.179144
      4          6           0        0.000000    0.000000    0.117057
      5          6           0        0.000000    0.000000    1.404883
      6          6           0        0.000000    0.000000    2.647871
 ---------------------------------------------------------------------

 SCF Done:  E(UB3LYP) =  -190.547391125     A.U. after   18 cycles

 Unable to determine electronic state:  an orbital has unidentified symmetry.
 Alpha  occ. eigenvalues --  -10.53983 -10.51113 -10.48183 -10.46119 -10.44922
 Alpha  occ. eigenvalues --   -1.08826  -1.04198  -0.97554  -0.87875  -0.77322
 Alpha  occ. eigenvalues --   -0.66360  -0.64351  -0.63017  -0.57202  -0.55633
 Alpha  occ. eigenvalues --   -0.47101
 Alpha virt. eigenvalues --   -0.40212  -0.23439  -0.22516  -0.14793  -0.12517
 Alpha virt. eigenvalues --   -0.10308  -0.09548  -0.09426  -0.07987  -0.07136
 Alpha virt. eigenvalues --   -0.06698  -0.05729  -0.05525  -0.03228  -0.01454

  Beta  occ. eigenvalues --  -10.50791 -10.50312 -10.47676 -10.46272 -10.45213
  Beta  occ. eigenvalues --   -1.07651  -1.02756  -0.94715  -0.86666  -0.76899
  Beta  occ. eigenvalues --   -0.62732  -0.61474  -0.54659  -0.53635
  Beta virt. eigenvalues --   -0.42520  -0.37700  -0.35509  -0.20994  -0.19869
  Beta virt. eigenvalues --   -0.14636  -0.12285  -0.09737  -0.09585  -0.09346
  Beta virt. eigenvalues --   -0.06137  -0.05833  -0.05412  -0.05324  -0.04906

 Mulliken charges and spin densities:
               1          2
     1  H    0.383392  -0.008147
     2  C    0.452911   0.317132
     3  C    0.085136  -0.156550
     4  C   -1.011181   0.390240
     5  C    0.855008  -0.198171
     6  C    0.234734   1.655495
 Sum of Mulliken charges =   1.00000   2.00000

 Dipole moment (field-independent basis, Debye):
    X=              0.0000    Y=              0.0000    Z=             -0.8454  Tot=              0.8454
 Quadrupole moment (field-independent basis, Debye-Ang):
   XX=            -24.9403   YY=            -26.5174   ZZ=              8.6880
   XY=              0.0000   XZ=              0.0000   YZ=              0.0000

  Exact polarizability:  26.898   0.000  27.802  -0.000  -0.000 122.362
 Approx polarizability:  36.785  -0.000  36.432  -0.000  -0.000 320.018

                      1                      2                      3
                     ?A                     ?A                     ?A
 Frequencies --    145.8369               146.5115               310.7849
 Red. masses --      5.6621                 6.4804                 6.5859
 Frc consts  --      0.0710                 0.0820                 0.3748
 IR Inten    --      8.0756                 8.2211                 1.3381

                      4                      5                      6
                     ?A                     ?A                     ?A
 Frequencies --    378.6367               495.2565               547.2878
 Red. masses --      8.7267                 7.9553                 1.2869
 Frc consts  --      0.7371                 1.1497                 0.2271
 IR Inten    --      0.4719                 1.7133                45.0646

                      7                      8                      9
                     ?A                     SG                     ?A
 Frequencies --    642.8792               796.4622               851.9917
 Red. masses --      8.5173                 9.0191                 1.3778
 Frc consts  --      2.0740                 3.3709                 0.5893
 IR Inten    --     10.3583                 0.0452                10.2889

                     10                     11                     12
                     SG                     SG                     SG
 Frequencies --   1591.5173              1947.0865              2053.1033
 Red. masses --      9.0592                11.7643                 7.7778
 Frc consts  --     13.5195                26.2776                19.3165
 IR Inten    --     11.8932               781.0131               162.1172

                     13
                     SG
 Frequencies --   3366.1240
 Red. masses --      1.1419
 Frc consts  --      7.6233
 IR Inten    --    177.6808

 - Thermochemistry -
 -------------------
 Temperature   298.150 Kelvin.  Pressure   1.00000 Atm.
 Atom     1 has atomic number  1 and mass   1.00783

 Molecular mass:    61.00783 amu.
 Principal axes and moments of inertia in atomic units:
                           1         2         3
     Eigenvalues --     0.00000 737.09494 737.09494
           X            0.00000  -0.00000   1.00000
           Y            0.00000   1.00000   0.00000
           Z            1.00000   0.00000   0.00000
 This molecule is a prolate symmetric top.
 Rotational symmetry number  1.
 Warning -- assumption of classical behavior for rotation
           may cause significant error
 Rotational temperature (Kelvin)      0.11751
 Rotational constant (GHZ):           2.448451
 Zero-point vibrational energy      79393.0 (Joules/Mol)
                                   18.97539 (Kcal/Mol)
 Warning -- explicit consideration of   6 degrees of freedom as
           vibrations may cause significant error
 Vibrational temperatures:    209.83   210.80   447.15   544.77   712.56
          (Kelvin)            787.42   924.96  1145.93  1225.82  2289.84
                             2801.42  2953.95  4843.10

 Zero-point correction=                           0.030239 (Hartree/Particle)
 Thermal correction to Energy=                    0.035343
 Thermal correction to Enthalpy=                  0.036287
 Thermal correction to Gibbs Free Energy=         0.004059
 Sum of electronic and zero-point Energies=           -190.517152
 Sum of electronic and thermal Energies=              -190.512048
 Sum of electronic and thermal Enthalpies=            -190.511104
 Sum of electronic and thermal Free Energies=         -190.543332

                     E (Thermal)             CV                S
                      KCal/Mol        Cal/Mol-Kelvin    Cal/Mol-Kelvin
 Total                   22.178             16.603             67.830
 Electronic               0.000              0.000              2.183
 Translational            0.889              2.981             38.245
 Rotational               0.592              1.987             17.565
 Vibrational             20.697             11.635              9.837
 Vibration     1          0.617              1.907              2.726
 Vibration     2          0.617              1.906              2.717
 Vibration     3          0.700              1.653              1.358
 Vibration     4          0.749              1.516              1.045
 Vibration     5          0.851              1.261              0.670
 Vibration     6          0.902              1.146              0.550

 Optimization completed.
    -- Stationary point found.
 Normal termination of Gaussian 09 at Mon Jun 20 14:30:23 2016.
