 Gaussian 09, Revision E.01,
 Gaussian 09:  EM64L-G09RevE.01 30-Nov-2015

 ---------------------------------------------
 #p b3lyp/6-311++G(3df,2p) freq symmetry=Loose
 ---------------------------------------------

 ---------
 b3lyp opt
 ---------
 Symbolic Z-matrix:
 Charge =  2 Multiplicity = 2

                         Standard orientation:
 ---------------------------------------------------------------------
 Center     Atomic      Atomic             Coordinates (Angstroms)
 Number     Number       Type             X           Y           Z
 ---------------------------------------------------------------------
      1          6           0        0.000000   -0.000000    2.165958
      2          6           0        0.000000   -0.000000    0.714787
      3          6           0        0.000000    0.822174   -0.436323
      4          6           0        0.000000    0.000000   -1.564698
      5          6           0       -0.000000   -0.822174   -0.436323
      6          1           0        0.000000    0.000000   -2.660415
 ---------------------------------------------------------------------

 SCF Done:  E(UB3LYP) =  -189.878349059     A.U. after   14 cycles

 The electronic state is 2-B1.
 Alpha  occ. eigenvalues --  -10.87530 -10.83024 -10.83010 -10.82198 -10.81703
 Alpha  occ. eigenvalues --   -1.54971  -1.32585  -1.20238  -1.10999  -1.02568
 Alpha  occ. eigenvalues --   -0.98445  -0.97971  -0.84959  -0.82303  -0.81783
 Alpha virt. eigenvalues --   -0.66948  -0.62919  -0.60984  -0.55324  -0.44353
 Alpha virt. eigenvalues --   -0.37212  -0.32911  -0.31932  -0.28453  -0.28005
 Alpha virt. eigenvalues --   -0.27847  -0.23556  -0.23165  -0.21658  -0.21447

  Beta  occ. eigenvalues --  -10.86918 -10.83079 -10.83066 -10.81616 -10.81187
  Beta  occ. eigenvalues --   -1.54354  -1.30095  -1.18660  -1.10846  -1.02025
  Beta  occ. eigenvalues --   -0.97995  -0.95287  -0.84002  -0.81598
  Beta virt. eigenvalues --   -0.71527  -0.66238  -0.61063  -0.57471  -0.55033
  Beta virt. eigenvalues --   -0.40762  -0.35929  -0.32739  -0.31814  -0.28161
  Beta virt. eigenvalues --   -0.27724  -0.26918  -0.23537  -0.23043  -0.21526

 Mulliken charges and spin densities:
               1          2
     1  C   -0.170813   0.295949
     2  C   -0.097822   0.384233
     3  C    1.246194   0.005481
     4  C   -0.619633   0.316163
     5  C    1.246194   0.005481
     6  H    0.395881  -0.007306
 Sum of Mulliken charges =   2.00000   1.00000

 Dipole moment (field-independent basis, Debye):
    X=             -0.0000    Y=             -0.0000    Z=             -1.1174  Tot=              1.1174
 Quadrupole moment (field-independent basis, Debye-Ang):
   XX=            -22.1100   YY=            -20.7525   ZZ=              2.4703
   XY=             -0.0000   XZ=              0.0000   YZ=             -0.0000

  Exact polarizability:  24.449  -0.000  36.810   0.000  -0.000  65.820
 Approx polarizability:  36.491   0.000  97.155  -0.000  -0.000 118.449

                      1                      2                      3
                     B1                     B2                     B1
 Frequencies --     28.6890               223.4864               447.6518
 Red. masses --      8.2883                 8.6213                 4.2461
 Frc consts  --      0.0040                 0.2537                 0.5013
 IR Inten    --      1.7102                 0.3228                11.2456

                      4                      5                      6
                     A1                     B2                     B1
 Frequencies --    661.5635               700.2424               794.4603
 Red. masses --     10.1810                 8.8084                 1.3832
 Frc consts  --      2.6253                 2.5447                 0.5144
 IR Inten    --     39.3861                60.7167                19.7193

                      7                      8                      9
                     A1                     B2                     B2
 Frequencies --    891.7454              1010.9827              1136.0807
 Red. masses --     11.9876                 1.3769                 4.6418
 Frc consts  --      5.6165                 0.8291                 3.5298
 IR Inten    --     72.1906                10.4004                 4.9405

                     10                     11                     12
                     A1                     A1                     A1
 Frequencies --   1394.1142              1567.3978              3118.7218
 Red. masses --      6.4673                11.8382                 1.1238
 Frc consts  --      7.4057                17.1354                 6.4403
 IR Inten    --    251.8365                34.5589               308.4496

 - Thermochemistry -
 -------------------
 Temperature   298.150 Kelvin.  Pressure   1.00000 Atm.
 Atom     1 has atomic number  6 and mass  12.00000

 Molecular mass:    61.00783 amu.
 Principal axes and moments of inertia in atomic units:
                           1         2         3
     Eigenvalues --    57.93439 369.23006 427.16445
           X            0.00000  -0.00000   1.00000
           Y            0.00000   1.00000   0.00000
           Z            1.00000  -0.00000   0.00000
 This molecule is an asymmetric top.
 Rotational symmetry number  2.
 Rotational temperatures (Kelvin)      1.49503     0.23458     0.20276
 Rotational constants (GHZ):          31.15147     4.88785     4.22493
 Zero-point vibrational energy      71627.2 (Joules/Mol)
                                   17.11932 (Kcal/Mol)
 Warning -- explicit consideration of   3 degrees of freedom as
           vibrations may cause significant error
 Vibrational temperatures:     41.28   321.55   644.07   951.84  1007.49
          (Kelvin)           1143.05  1283.02  1454.58  1634.56  2005.82
                             2255.13  4487.14

 Zero-point correction=                           0.027281 (Hartree/Particle)
 Thermal correction to Energy=                    0.032231
 Thermal correction to Enthalpy=                  0.033175
 Thermal correction to Gibbs Free Energy=        -0.000946
 Sum of electronic and zero-point Energies=           -189.851068
 Sum of electronic and thermal Energies=              -189.846119
 Sum of electronic and thermal Enthalpies=            -189.845174
 Sum of electronic and thermal Free Energies=         -189.879295

                     E (Thermal)             CV                S
                      KCal/Mol        Cal/Mol-Kelvin    Cal/Mol-Kelvin
 Total                   20.225             14.805             71.813
 Electronic               0.000              0.000              1.377
 Translational            0.889              2.981             38.245
 Rotational               0.889              2.981             22.351
 Vibrational             18.448              8.843              9.839
 Vibration     1          0.593              1.984              5.918
 Vibration     2          0.649              1.805              1.931
 Vibration     3          0.807              1.366              0.803

 Optimization completed.
    -- Stationary point found.
 Normal termination of Gaussian 09 at Mon Jun 20 14:39:14 2016.
