 Gaussian 09, Revision E.01,
 Gaussian 09:  EM64L-G09RevE.01 30-Nov-2015

 ---------------------------------------------
 #p b3lyp/6-311++G(3df,2p) freq symmetry=Loose
 ---------------------------------------------

 ---------
 b3lyp opt
 ---------
 Symbolic Z-matrix:
 Charge =  3 Multiplicity = 3

                         Standard orientation:
 ---------------------------------------------------------------------
 Center     Atomic      Atomic             Coordinates (Angstroms)
 Number     Number       Type             X           Y           Z
 ---------------------------------------------------------------------
      1          1           0        0.000000    0.000000   -3.603902
      2          6           0        0.000000    0.000000   -2.476506
      3          6           0        0.000000    0.000000   -1.182346
      4          6           0        0.000000    0.000000    0.115594
      5          6           0        0.000000    0.000000    1.426401
      6          6           0        0.000000    0.000000    2.717507
 ---------------------------------------------------------------------

 SCF Done:  E(UB3LYP) =  -189.114712012     A.U. after   19 cycles

 Unable to determine electronic state:  an orbital has unidentified symmetry.
 Alpha  occ. eigenvalues --  -11.12486 -11.06813 -11.05143 -11.01653 -10.99875
 Alpha  occ. eigenvalues --   -1.59580  -1.56029  -1.48258  -1.39323  -1.23740
 Alpha  occ. eigenvalues --   -1.15213  -1.12970  -1.11755  -1.07015  -1.04874
 Alpha virt. eigenvalues --   -0.90048  -0.89026  -0.74854  -0.73047  -0.58298
 Alpha virt. eigenvalues --   -0.57092  -0.56402  -0.50966  -0.49595  -0.45829
 Alpha virt. eigenvalues --   -0.41086  -0.40772  -0.38233  -0.35909  -0.35855

  Beta  occ. eigenvalues --  -11.09000 -11.06603 -11.05692 -11.00978 -10.99288
  Beta  occ. eigenvalues --   -1.58515  -1.52781  -1.46282  -1.38320  -1.23437
  Beta  occ. eigenvalues --   -1.11672  -1.10245  -1.02953
  Beta virt. eigenvalues --   -0.95454  -0.89181  -0.87454  -0.85368  -0.70621
  Beta virt. eigenvalues --   -0.68582  -0.55988  -0.55572  -0.54697  -0.50692
  Beta virt. eigenvalues --   -0.49129  -0.45359  -0.40868  -0.40820  -0.37941

 Mulliken charges and spin densities:
               1          2
     1  H    0.509895  -0.004751
     2  C    0.601781   0.044929
     3  C    0.630559   0.142576
     4  C   -0.492590   0.119298
     5  C    1.039197   0.243476
     6  C    0.711158   1.454471
 Sum of Mulliken charges =   3.00000   2.00000

 Dipole moment (field-independent basis, Debye):
    X=              0.0000    Y=              0.0000    Z=             -1.2431  Tot=              1.2431
 Quadrupole moment (field-independent basis, Debye-Ang):
   XX=            -19.5480   YY=            -21.0418   ZZ=             63.3529
   XY=              0.0000   XZ=              0.0000   YZ=              0.0000

  Exact polarizability:  19.199   0.000  19.692  -0.000   0.000 112.891
 Approx polarizability:  26.674  -0.000  26.307  -0.000  -0.000 342.432

                      1                      2                      3
                     ?A                     ?A                     ?A
 Frequencies --    151.9809               155.2214               313.8423
 Red. masses --      5.4183                 5.6081                 6.8353
 Frc consts  --      0.0737                 0.0796                 0.3967
 IR Inten    --     25.8446                30.0614                 1.8726

                      4                      5                      6
                     ?A                     ?A                     ?A
 Frequencies --    327.6896               617.6209               641.6397
 Red. masses --      6.0089                 7.3930                 7.7881
 Frc consts  --      0.3802                 1.6615                 1.8891
 IR Inten    --      2.1141                 6.8517                17.3753

                      7                      8                      9
                     SG                     ?A                     ?A
 Frequencies --    757.0327               792.2125               850.4035
 Red. masses --      8.8455                 1.3938                 1.4615
 Frc consts  --      2.9868                 0.5154                 0.6227
 IR Inten    --      0.4890                18.7455                 9.7108

                     10                     11                     12
                     SG                     SG                     SG
 Frequencies --   1315.8538              1876.6310              1926.9382
 Red. masses --      8.7923                 8.0889                 8.5906
 Frc consts  --      8.9695                16.7840                18.7935
 IR Inten    --    369.8549                52.9815              1483.1866

                     13
                     SG
 Frequencies --   2850.4482
 Red. masses --      1.1852
 Frc consts  --      5.6738
 IR Inten    --    587.3891

 - Thermochemistry -
 -------------------
 Temperature   298.150 Kelvin.  Pressure   1.00000 Atm.
 Atom     1 has atomic number  1 and mass   1.00783

 Molecular mass:    61.00783 amu.
 Principal axes and moments of inertia in atomic units:
                           1         2         3
     Eigenvalues --     0.00000 772.94403 772.94403
           X            0.00000  -0.00000   1.00000
           Y            0.00000   1.00000   0.00000
           Z            1.00000   0.00000   0.00000
 This molecule is a prolate symmetric top.
 Rotational symmetry number  1.
 Warning -- assumption of classical behavior for rotation
           may cause significant error
 Rotational temperature (Kelvin)      0.11206
 Rotational constant (GHZ):           2.334892
 Zero-point vibrational energy      75230.2 (Joules/Mol)
                                   17.98046 (Kcal/Mol)
 Warning -- explicit consideration of   5 degrees of freedom as
           vibrations may cause significant error
 Vibrational temperatures:    218.67   223.33   451.55   471.47   888.62
          (Kelvin)            923.18  1089.20  1139.82  1223.54  1893.22
                             2700.05  2772.43  4101.15

 Zero-point correction=                           0.028654 (Hartree/Particle)
 Thermal correction to Energy=                    0.033617
 Thermal correction to Enthalpy=                  0.034561
 Thermal correction to Gibbs Free Energy=         0.002529
 Sum of electronic and zero-point Energies=           -189.086058
 Sum of electronic and thermal Energies=              -189.081095
 Sum of electronic and thermal Enthalpies=            -189.080151
 Sum of electronic and thermal Free Energies=         -189.112183

                     E (Thermal)             CV                S
                      KCal/Mol        Cal/Mol-Kelvin    Cal/Mol-Kelvin
 Total                   21.095             16.107             67.418
 Electronic               0.000              0.000              2.183
 Translational            0.889              2.981             38.245
 Rotational               0.592              1.987             17.659
 Vibrational             19.614             11.139              9.330
 Vibration     1          0.619              1.900              2.647
 Vibration     2          0.620              1.897              2.607
 Vibration     3          0.702              1.647              1.342
 Vibration     4          0.711              1.620              1.271
 Vibration     5          0.977              0.995              0.420

 Optimization completed.
    -- Stationary point found.
 Normal termination of Gaussian 09 at Mon Jun 20 15:15:38 2016.
