 Gaussian 09, Revision E.01,
 Gaussian 09:  EM64L-G09RevE.01 30-Nov-2015

 -------------------------------------------------
 #p b3lyp/6-311++G(3df,2p) opt freq symmetry=Loose
 -------------------------------------------------

 ---------
 b3lyp opt
 ---------
 Symbolic Z-matrix:
 Charge =  0 Multiplicity = 4

 SCF Done:  E(UB3LYP) =  -190.723630923     A.U. after   15 cycles
 SCF Done:  E(UB3LYP) =  -190.724202807     A.U. after   13 cycles
 SCF Done:  E(UB3LYP) =  -190.724323828     A.U. after   12 cycles
 SCF Done:  E(UB3LYP) =  -190.724346719     A.U. after   12 cycles
 SCF Done:  E(UB3LYP) =  -190.724357887     A.U. after   12 cycles
 SCF Done:  E(UB3LYP) =  -190.724359047     A.U. after   10 cycles
 Optimization completed.
    -- Stationary point found.
 Normal termination of Gaussian 09 at Wed Jul  6 11:44:53 2016.

 ----------------------------------------------------------------------
 #P Geom=AllCheck Guess=TCheck SCRF=Check GenChk UB3LYP/6-311++G(3df,2p
 ) Freq
 ----------------------------------------------------------------------

 Structure from the checkpoint file:  "/scratch/sergio/HC5.q0.m4-15.bis.com-2127036/Gau-19645.chk"
 ---------
 b3lyp opt
 ---------
 Charge =  0 Multiplicity = 4

                         Standard orientation:
 ---------------------------------------------------------------------
 Center     Atomic      Atomic             Coordinates (Angstroms)
 Number     Number       Type             X           Y           Z
 ---------------------------------------------------------------------
      1          6           0        0.985673   -0.122344    0.000000
      2          6           0       -0.087909   -0.189858    1.063733
      3          6           0       -0.087909   -0.189858   -1.063733
      4          6           0       -1.064416   -0.406950   -0.000000
      5          6           0       -0.087909    0.909603    0.000000
      6          1           0        2.054813   -0.003566    0.000000
 ---------------------------------------------------------------------

 SCF Done:  E(UB3LYP) =  -190.724359047     A.U. after    1 cycles

 The electronic state is 4-A".
 Alpha  occ. eigenvalues --  -10.28650 -10.28020 -10.27531 -10.26646 -10.26642
 Alpha  occ. eigenvalues --   -1.08388  -0.73443  -0.71680  -0.60426  -0.54293
 Alpha  occ. eigenvalues --   -0.45889  -0.41124  -0.36668  -0.34638  -0.32239
 Alpha  occ. eigenvalues --   -0.29770  -0.26996
 Alpha virt. eigenvalues --   -0.01375  -0.00226   0.02130   0.02701   0.02789
 Alpha virt. eigenvalues --    0.04394   0.06001   0.06511   0.07811   0.08183
 Alpha virt. eigenvalues --    0.08353   0.09261   0.10220   0.11607   0.11687

  Beta  occ. eigenvalues --  -10.27375 -10.26895 -10.26507 -10.25344 -10.25342
  Beta  occ. eigenvalues --   -1.06231  -0.70979  -0.68547  -0.57422  -0.50790
  Beta  occ. eigenvalues --   -0.43403  -0.34517  -0.32932  -0.31845
  Beta virt. eigenvalues --   -0.17453  -0.14870  -0.13356  -0.00105   0.01029
  Beta virt. eigenvalues --    0.02885   0.03279   0.03485   0.06324   0.06675
  Beta virt. eigenvalues --    0.07441   0.08114   0.08754   0.08879   0.09863

 Mulliken charges and spin densities:
               1          2
     1  C   -0.015808   0.393837
     2  C   -0.131811   0.496310
     3  C   -0.131811   0.496310
     4  C    0.063890   0.972655
     5  C   -0.006929   0.612932
     6  H    0.222468   0.027955
 Sum of Mulliken charges =  -0.00000   3.00000

 Dipole moment (field-independent basis, Debye):
    X=              1.4823    Y=              0.3178    Z=             -0.0000  Tot=              1.5160
 Quadrupole moment (field-independent basis, Debye-Ang):
   XX=            -25.4490   YY=            -29.8150   ZZ=            -32.3505
   XY=             -0.0940   XZ=             -0.0000   YZ=              0.0000

  Exact polarizability:  49.358   3.008  41.265   0.000   0.000  58.730
 Approx polarizability:  82.617   8.171  75.963  -0.000  -0.000 106.956

                      1                      2                      3
                     A'                     A"                     A'
 Frequencies --    367.4362               551.1323               593.6846
 Red. masses --      9.4773                 9.3143                 6.9665
 Frc consts  --      0.7539                 1.6669                 1.4467
 IR Inten    --      4.3346                66.5660                 4.6542

                      4                      5                      6
                     A'                     A'                     A"
 Frequencies --    821.1322               875.1036               888.7536
 Red. masses --      1.5593                10.0886                 6.9039
 Frc consts  --      0.6195                 4.5520                 3.2130
 IR Inten    --     31.0014                 9.9481                19.6461

                      7                      8                      9
                     A'                     A"                     A'
 Frequencies --    989.2004              1020.2557              1100.0700
 Red. masses --      4.7172                 1.2674                 7.1124
 Frc consts  --      2.7196                 0.7773                 5.0711
 IR Inten    --     14.5743                 0.0717                 3.2571

                     10                     11                     12
                     A"                     A'                     A'
 Frequencies --   1176.6833              1295.0543              3257.8077
 Red. masses --      8.6643                 9.1763                 1.0992
 Frc consts  --      7.0681                 9.0676                 6.8732
 IR Inten    --      0.0143                 2.2245                 8.0623

 - Thermochemistry -
 -------------------
 Temperature   298.150 Kelvin.  Pressure   1.00000 Atm.
 Atom     1 has atomic number  6 and mass  12.00000

 Molecular mass:    61.00783 amu.
 Principal axes and moments of inertia in atomic units:
                           1         2         3
     Eigenvalues --   141.17303 152.41420 205.19754
           X            0.98356   0.00000  -0.18060
           Y            0.18060   0.00000   0.98356
           Z            0.00000   1.00000  -0.00000
 This molecule is an asymmetric top.
 Rotational symmetry number  1.
 Rotational temperatures (Kelvin)      0.61353     0.56828     0.42210
 Rotational constants (GHZ):          12.78390    11.84103     8.79514
 Zero-point vibrational energy      77376.3 (Joules/Mol)
                                   18.49339 (Kcal/Mol)
 Warning -- explicit consideration of   3 degrees of freedom as
           vibrations may cause significant error
 Vibrational temperatures:    528.66   792.96   854.18  1181.42  1259.08
          (Kelvin)           1278.72  1423.24  1467.92  1582.75  1692.98
                             1863.29  4687.25

 Zero-point correction=                           0.029471 (Hartree/Particle)
 Thermal correction to Energy=                    0.033314
 Thermal correction to Enthalpy=                  0.034258
 Thermal correction to Gibbs Free Energy=         0.002467
 Sum of electronic and zero-point Energies=           -190.694888
 Sum of electronic and thermal Energies=              -190.691045
 Sum of electronic and thermal Enthalpies=            -190.690101
 Sum of electronic and thermal Free Energies=         -190.721892

                     E (Thermal)             CV                S
                      KCal/Mol        Cal/Mol-Kelvin    Cal/Mol-Kelvin
 Total                   20.905             12.746             66.909
 Electronic               0.000              0.000              2.755
 Translational            0.889              2.981             38.245
 Rotational               0.889              2.981             23.006
 Vibrational             19.127              6.785              2.904
 Vibration     1          0.740              1.539              1.090
 Vibration     2          0.906              1.137              0.542
 Vibration     3          0.951              1.045              0.461

 Optimization completed.
    -- Stationary point found.
 Normal termination of Gaussian 09 at Wed Jul  6 11:57:11 2016.
