 Gaussian 09, Revision E.01,
 Gaussian 09:  EM64L-G09RevE.01 30-Nov-2015

 ---------------------------------------------
 #p b3lyp/6-311++G(3df,2p) freq symmetry=Loose
 ---------------------------------------------

 ---------
 b3lyp opt
 ---------
 Symbolic Z-matrix:
 Charge =  2 Multiplicity = 4

                         Standard orientation:
 ---------------------------------------------------------------------
 Center     Atomic      Atomic             Coordinates (Angstroms)
 Number     Number       Type             X           Y           Z
 ---------------------------------------------------------------------
      1          6           0        0.821307    0.756928    0.042371
      2          6           0       -0.474085    0.922021   -0.044004
      3          6           0       -1.296667   -0.243107    0.021729
      4          6           0       -0.011143   -0.811709   -0.011145
      5          6           0        1.352230   -0.533605   -0.013140
      6          1           0       -2.349855   -0.543170    0.025130
 ---------------------------------------------------------------------

 SCF Done:  E(UB3LYP) =  -189.853612005     A.U. after   18 cycles

 The electronic state is 4-A.
 Alpha  occ. eigenvalues --  -10.86158 -10.85348 -10.84480 -10.84369 -10.82493
 Alpha  occ. eigenvalues --   -1.56126  -1.35976  -1.26223  -1.09223  -1.04604
 Alpha  occ. eigenvalues --   -1.03399  -1.01481  -0.94266  -0.83865  -0.82703
 Alpha  occ. eigenvalues --   -0.80562
 Alpha virt. eigenvalues --   -0.66523  -0.57459  -0.54119  -0.50332  -0.38193
 Alpha virt. eigenvalues --   -0.34104  -0.33392  -0.28371  -0.28253  -0.26041
 Alpha virt. eigenvalues --   -0.25222  -0.24176  -0.22099  -0.21683  -0.21456

  Beta  occ. eigenvalues --  -10.85446 -10.83647 -10.83336 -10.82742 -10.81757
  Beta  occ. eigenvalues --   -1.53467  -1.32614  -1.22770  -1.06817  -1.02843
  Beta  occ. eigenvalues --   -1.01579  -0.94089  -0.88486
  Beta virt. eigenvalues --   -0.70039  -0.67958  -0.66651  -0.63318  -0.55597
  Beta virt. eigenvalues --   -0.46350  -0.42295  -0.36251  -0.32798  -0.32309
  Beta virt. eigenvalues --   -0.27679  -0.27026  -0.24928  -0.24697  -0.23366

 Mulliken charges and spin densities:
               1          2
     1  C    0.219142   0.307821
     2  C    0.386844   0.608875
     3  C    0.171610   0.486791
     4  C    0.349871   0.275436
     5  C    0.491732   1.333259
     6  H    0.380801  -0.012181
 Sum of Mulliken charges =   2.00000   3.00000

 Dipole moment (field-independent basis, Debye):
    X=             -1.2919    Y=             -0.0865    Z=             -0.0013  Tot=              1.2948
 Quadrupole moment (field-independent basis, Debye-Ang):
   XX=             -5.4155   YY=            -15.0609   ZZ=            -22.7046
   XY=              1.2662   XZ=             -0.1295   YZ=             -0.0009

  Exact polarizability:  48.435  -1.616  36.817   0.223   0.065  20.726
 Approx polarizability: 109.264  -8.021  90.820   1.773   0.117  30.734

                      1                      2                      3
                      A                      A                      A
 Frequencies --     97.8789               302.6557               398.0545
 Red. masses --      9.9405                 7.4816                 8.9154
 Frc consts  --      0.0561                 0.4038                 0.8323
 IR Inten    --      0.5304                 9.7783                 5.9450

                      4                      5                      6
                      A                      A                      A
 Frequencies --    544.1464               702.9109               823.6130
 Red. masses --      9.6313                 1.2786                 6.1713
 Frc consts  --      1.6802                 0.3722                 2.4665
 IR Inten    --      0.4077                16.6689                 0.4506

                      7                      8                      9
                      A                      A                      A
 Frequencies --   1069.0671              1128.8060              1208.9853
 Red. masses --      1.2538                 7.2636                 9.9951
 Frc consts  --      0.8443                 5.4530                 8.6075
 IR Inten    --     22.7542                25.3908                 7.0679

                     10                     11                     12
                      A                      A                      A
 Frequencies --   1420.3200              1629.5841              3110.2642
 Red. masses --      9.7318                11.4336                 1.1132
 Frc consts  --     11.5669                17.8891                 6.3450
 IR Inten    --     83.0648                54.6809               267.2794

 - Thermochemistry -
 -------------------
 Temperature   298.150 Kelvin.  Pressure   1.00000 Atm.
 Atom     1 has atomic number  6 and mass  12.00000

 Molecular mass:    61.00783 amu.
 Principal axes and moments of inertia in atomic units:
                           1         2         3
     Eigenvalues --   104.98699 208.90422 313.50150
           X            0.99902   0.04427  -0.00103
           Y           -0.04427   0.99902  -0.00051
           Z            0.00101   0.00056   1.00000
 This molecule is an asymmetric top.
 Rotational symmetry number  1.
 Rotational temperatures (Kelvin)      0.82500     0.41461     0.27628
 Rotational constants (GHZ):          17.19014     8.63908     5.75672
 Zero-point vibrational energy      74385.5 (Joules/Mol)
                                   17.77856 (Kcal/Mol)
 Warning -- explicit consideration of   4 degrees of freedom as
           vibrations may cause significant error
 Vibrational temperatures:    140.83   435.45   572.71   782.90  1011.33
          (Kelvin)           1184.99  1538.15  1624.10  1739.46  2043.52
                             2344.61  4474.97

 Zero-point correction=                           0.028332 (Hartree/Particle)
 Thermal correction to Energy=                    0.033084
 Thermal correction to Enthalpy=                  0.034029
 Thermal correction to Gibbs Free Energy=         0.000032
 Sum of electronic and zero-point Energies=           -189.825280
 Sum of electronic and thermal Energies=              -189.820528
 Sum of electronic and thermal Enthalpies=            -189.819583
 Sum of electronic and thermal Free Energies=         -189.853580

                     E (Thermal)             CV                S
                      KCal/Mol        Cal/Mol-Kelvin    Cal/Mol-Kelvin
 Total                   20.761             14.553             71.551
 Electronic               0.000              0.000              2.755
 Translational            0.889              2.981             38.245
 Rotational               0.889              2.981             23.446
 Vibrational             18.983              8.591              7.105
 Vibration     1          0.603              1.951              3.496
 Vibration     2          0.694              1.669              1.402
 Vibration     3          0.764              1.474              0.970
 Vibration     4          0.899              1.153              0.556

 Normal termination of Gaussian 09 at Mon Jun 20 15:01:10 2016.
