 Gaussian 09, Revision E.01,
 Gaussian 09:  EM64L-G09RevE.01 30-Nov-2015

 -------------------------------------------------
 #p b3lyp/6-311++G(3df,2p) opt freq symmetry=Loose
 -------------------------------------------------

 ---------
 b3lyp opt
 ---------
 Symbolic Z-matrix:
 Charge =  0 Multiplicity = 4

 SCF Done:  E(UB3LYP) =  -190.755169699     A.U. after   22 cycles
 SCF Done:  E(UB3LYP) =  -190.750905157     A.U. after   19 cycles
 SCF Done:  E(UB3LYP) =  -190.759028453     A.U. after   16 cycles
 SCF Done:  E(UB3LYP) =  -190.759476471     A.U. after   16 cycles
 SCF Done:  E(UB3LYP) =  -190.759593948     A.U. after   16 cycles
 SCF Done:  E(UB3LYP) =  -190.759596303     A.U. after   15 cycles
 Optimization completed.
    -- Stationary point found.
 Normal termination of Gaussian 09 at Tue Jul  5 16:21:52 2016.

 ----------------------------------------------------------------------
 #P Geom=AllCheck Guess=TCheck SCRF=Check GenChk UB3LYP/6-311++G(3df,2p
 ) Freq
 ----------------------------------------------------------------------

 Structure from the checkpoint file:  "/scratch/sergio/HC5.q0.m4-12.bis.com-2105450/Gau-18166.chk"
 ---------
 b3lyp opt
 ---------
 Charge =  0 Multiplicity = 4

                         Standard orientation:
 ---------------------------------------------------------------------
 Center     Atomic      Atomic             Coordinates (Angstroms)
 Number     Number       Type             X           Y           Z
 ---------------------------------------------------------------------
      1          6           0        0.490817    2.004923    0.000000
      2          6           0        0.258834    0.645455    0.000000
      3          6           0       -0.229628   -0.392931    0.913758
      4          6           0       -0.229628   -0.392931   -0.913758
      5          6           0       -0.229628   -1.445904   -0.000000
      6          1           0       -0.364598   -2.511665   -0.000000
 ---------------------------------------------------------------------

 SCF Done:  E(UB3LYP) =  -190.759596303     A.U. after    1 cycles

 The electronic state is 4-A'.
 Alpha  occ. eigenvalues --  -10.27955 -10.27618 -10.26925 -10.26922 -10.24789
 Alpha  occ. eigenvalues --   -0.99027  -0.79397  -0.66708  -0.63099  -0.51762
 Alpha  occ. eigenvalues --   -0.47096  -0.46802  -0.34891  -0.34387  -0.30590
 Alpha  occ. eigenvalues --   -0.26516  -0.22350
 Alpha virt. eigenvalues --   -0.10447  -0.08750  -0.01058   0.00918   0.03733
 Alpha virt. eigenvalues --    0.03781   0.04426   0.06582   0.07351   0.07830
 Alpha virt. eigenvalues --    0.08671   0.09349   0.09351   0.10083   0.11401

  Beta  occ. eigenvalues --  -10.27487 -10.27060 -10.25933 -10.25930 -10.22803
  Beta  occ. eigenvalues --   -0.97106  -0.75247  -0.64135  -0.60001  -0.50064
  Beta  occ. eigenvalues --   -0.44750  -0.41754  -0.31070  -0.29398
  Beta virt. eigenvalues --   -0.19994  -0.13238  -0.08980  -0.05989  -0.05951
  Beta virt. eigenvalues --   -0.00917   0.02643   0.04201   0.04272   0.05585
  Beta virt. eigenvalues --    0.06894   0.08065   0.08196   0.08899   0.09639

 Mulliken charges and spin densities:
               1          2
     1  C   -0.632052   1.310301
     2  C    0.754840   0.347641
     3  C   -0.367319   0.536608
     4  C   -0.367319   0.536608
     5  C    0.316085   0.271092
     6  H    0.295765  -0.002250
 Sum of Mulliken charges =  -0.00000   3.00000

 Dipole moment (field-independent basis, Debye):
    X=              0.1942    Y=             -3.8290    Z=              0.0000  Tot=              3.8340
 Quadrupole moment (field-independent basis, Debye-Ang):
   XX=            -28.7997   YY=            -29.5102   ZZ=            -32.5095
   XY=              0.0142   XZ=              0.0000   YZ=              0.0000

  Exact polarizability:  40.342  17.241 101.169  -0.000  -0.000  60.037
 Approx polarizability:  56.682  21.917 175.224   0.000  -0.000 128.703

                      1                      2                      3
                     A'                     A"                     A'
 Frequencies --    246.3198               369.2672               586.0355
 Red. masses --      5.1078                 8.5021                 7.6112
 Frc consts  --      0.1826                 0.6831                 1.5401
 IR Inten    --     17.9711                 0.0103                13.7249

                      4                      5                      6
                     A'                     A"                     A'
 Frequencies --    681.6360               707.4595               827.2408
 Red. masses --      7.5507                 8.0287                 1.4591
 Frc consts  --      2.0670                 2.3676                 0.5883
 IR Inten    --      0.9944                52.4189                19.2779

                      7                      8                      9
                     A'                     A"                     A"
 Frequencies --    926.1228               952.7309              1127.7009
 Red. masses --      8.5426                 3.7273                 1.5128
 Frc consts  --      4.3170                 1.9933                 1.1335
 IR Inten    --      5.3777                26.9582                 0.2851

                     10                     11                     12
                     A'                     A'                     A'
 Frequencies --   1311.4267              1423.6342              3290.4689
 Red. masses --      9.8690                 8.2534                 1.1048
 Frc consts  --     10.0003                 9.8556                 7.0480
 IR Inten    --    312.9971                28.9605                14.7065

 - Thermochemistry -
 -------------------
 Temperature   298.150 Kelvin.  Pressure   1.00000 Atm.
 Atom     1 has atomic number  6 and mass  12.00000

 Molecular mass:    61.00783 amu.
 Principal axes and moments of inertia in atomic units:
                           1         2         3
     Eigenvalues --    74.23319 335.71555 404.60268
           X            0.23193   0.00000   0.97273
           Y            0.97273   0.00000  -0.23193
           Z            0.00000   1.00000   0.00000
 This molecule is an asymmetric top.
 Rotational symmetry number  1.
 Rotational temperatures (Kelvin)      1.16678     0.25800     0.21407
 Rotational constants (GHZ):          24.31178     5.37580     4.46053
 Zero-point vibrational energy      74467.8 (Joules/Mol)
                                   17.79823 (Kcal/Mol)
 Warning -- explicit consideration of   3 degrees of freedom as
           vibrations may cause significant error
 Vibrational temperatures:    354.40   531.29   843.17   980.72  1017.88
          (Kelvin)           1190.21  1332.48  1370.77  1622.51  1886.85
                             2048.29  4734.24

 Zero-point correction=                           0.028363 (Hartree/Particle)
 Thermal correction to Energy=                    0.032630
 Thermal correction to Enthalpy=                  0.033574
 Thermal correction to Gibbs Free Energy=         0.000652
 Sum of electronic and zero-point Energies=           -190.731233
 Sum of electronic and thermal Energies=              -190.726967
 Sum of electronic and thermal Enthalpies=            -190.726023
 Sum of electronic and thermal Free Energies=         -190.758944

                     E (Thermal)             CV                S
                      KCal/Mol        Cal/Mol-Kelvin    Cal/Mol-Kelvin
 Total                   20.475             14.009             69.289
 Electronic               0.000              0.000              2.755
 Translational            0.889              2.981             38.245
 Rotational               0.889              2.981             23.826
 Vibrational             18.698              8.047              4.463
 Vibration     1          0.661              1.769              1.757
 Vibration     2          0.742              1.535              1.083
 Vibration     3          0.943              1.062              0.474

 Optimization completed.
    -- Stationary point found.
 Normal termination of Gaussian 09 at Tue Jul  5 16:29:10 2016.
