 Gaussian 09, Revision E.01,
 Gaussian 09:  EM64L-G09RevE.01 30-Nov-2015

 ---------------------------------------------
 #p b3lyp/6-311++G(3df,2p) freq symmetry=Loose
 ---------------------------------------------

 ---------
 b3lyp opt
 ---------
 Symbolic Z-matrix:
 Charge =  1 Multiplicity = 1

                         Standard orientation:
 ---------------------------------------------------------------------
 Center     Atomic      Atomic             Coordinates (Angstroms)
 Number     Number       Type             X           Y           Z
 ---------------------------------------------------------------------
      1          6           0        0.000000   -0.000000    2.095805
      2          6           0        0.000000   -0.000000    0.758805
      3          6           0        0.000000    0.782707   -0.433709
      4          6           0        0.000000    0.000000   -1.549382
      5          6           0       -0.000000   -0.782707   -0.433709
      6          1           0        0.000000    0.000000   -2.626858
 ---------------------------------------------------------------------

 SCF Done:  E(RB3LYP) =  -190.510827088     A.U. after   11 cycles

 The electronic state is 1-A1.
 Alpha  occ. eigenvalues --  -10.57330 -10.57311 -10.53642 -10.53503 -10.50521
 Alpha  occ. eigenvalues --   -1.30108  -1.05960  -0.94250  -0.84790  -0.79467
 Alpha  occ. eigenvalues --   -0.72437  -0.72191  -0.59033  -0.55741  -0.54642
 Alpha virt. eigenvalues --   -0.40377  -0.35891  -0.33524  -0.27625  -0.15913
 Alpha virt. eigenvalues --   -0.15515  -0.14347  -0.12270  -0.11430  -0.09796
 Alpha virt. eigenvalues --   -0.07163  -0.06866  -0.06213  -0.05326  -0.04844

 Mulliken charges:
               1
     1  C   -0.828107
     2  C    0.301853
     3  C    0.848167
     4  C   -0.506076
     5  C    0.848167
     6  H    0.335996
 Sum of Mulliken charges =   1.00000

 Dipole moment (field-independent basis, Debye):
    X=             -0.0000    Y=             -0.0000    Z=             -3.0690  Tot=              3.0690
 Quadrupole moment (field-independent basis, Debye-Ang):
   XX=            -25.6324   YY=            -24.2953   ZZ=            -14.7311
   XY=             -0.0000   XZ=              0.0000   YZ=             -0.0000

  Exact polarizability:  26.894  -0.000  39.312  -0.000   0.000  69.379
 Approx polarizability:  41.011   0.000  91.597   0.000  -0.000 139.458

                      1                      2                      3
                     B2                     B1                     B1
 Frequencies --    193.3953               213.4743               569.8301
 Red. masses --      8.8386                 6.3731                11.9813
 Frc consts  --      0.1948                 0.1711                 2.2922
 IR Inten    --      5.4227                 0.4166                 4.4975

                      4                      5                      6
                     B2                     B1                     A1
 Frequencies --    670.0227               748.9856               761.5861
 Red. masses --      7.3139                 1.1932                 9.8393
 Frc consts  --      1.9346                 0.3944                 3.3624
 IR Inten    --     66.8037                20.6657                 1.3539

                      7                      8                      9
                     B2                     A1                     B2
 Frequencies --    937.0356              1010.0060              1061.5774
 Red. masses --      5.5804                11.9435                 1.3493
 Frc consts  --      2.8869                 7.1784                 0.8959
 IR Inten    --      3.0247                12.3017                 8.9973

                     10                     11                     12
                     A1                     A1                     A1
 Frequencies --   1573.1111              1790.7261              3286.2702
 Red. masses --      6.6487                11.9880                 1.1219
 Frc consts  --      9.6941                22.6493                 7.1384
 IR Inten    --     42.3670               253.0554               166.3026

 - Thermochemistry -
 -------------------
 Temperature   298.150 Kelvin.  Pressure   1.00000 Atm.
 Atom     1 has atomic number  6 and mass  12.00000

 Molecular mass:    61.00783 amu.
 Principal axes and moments of inertia in atomic units:
                           1         2         3
     Eigenvalues --    52.50582 356.33063 408.83644
           X            0.00000   0.00000   1.00000
           Y            0.00000   1.00000   0.00000
           Z            1.00000   0.00000   0.00000
 This molecule is an asymmetric top.
 Rotational symmetry number  2.
 Rotational temperatures (Kelvin)      1.64960     0.24307     0.21185
 Rotational constants (GHZ):          34.37221     5.06479     4.41434
 Zero-point vibrational energy      76656.8 (Joules/Mol)
                                   18.32142 (Kcal/Mol)
 Warning -- explicit consideration of   3 degrees of freedom as
           vibrations may cause significant error
 Vibrational temperatures:    278.25   307.14   819.86   964.01  1077.62
          (Kelvin)           1095.75  1348.18  1453.17  1527.37  2263.35
                             2576.45  4728.20

 Zero-point correction=                           0.029197 (Hartree/Particle)
 Thermal correction to Energy=                    0.033744
 Thermal correction to Enthalpy=                  0.034689
 Thermal correction to Gibbs Free Energy=         0.003204
 Sum of electronic and zero-point Energies=           -190.481630
 Sum of electronic and thermal Energies=              -190.477083
 Sum of electronic and thermal Enthalpies=            -190.476138
 Sum of electronic and thermal Free Energies=         -190.507623

                     E (Thermal)             CV                S
                      KCal/Mol        Cal/Mol-Kelvin    Cal/Mol-Kelvin
 Total                   21.175             14.286             66.265
 Electronic               0.000              0.000              0.000
 Translational            0.889              2.981             38.245
 Rotational               0.889              2.981             22.174
 Vibrational             19.397              8.325              5.846
 Vibration     1          0.635              1.849              2.195
 Vibration     2          0.644              1.820              2.014
 Vibration     3          0.926              1.097              0.505

 Optimization completed.
    -- Stationary point found.
 Normal termination of Gaussian 09 at Mon Jun 20 14:12:42 2016.
