 Gaussian 09, Revision E.01,
 Gaussian 09:  EM64L-G09RevE.01 30-Nov-2015

 ---------------------------------------------
 #p b3lyp/6-311++G(3df,2p) freq symmetry=Loose
 ---------------------------------------------

 ---------
 b3lyp opt
 ---------
 Symbolic Z-matrix:
 Charge =  2 Multiplicity = 2

                         Standard orientation:
 ---------------------------------------------------------------------
 Center     Atomic      Atomic             Coordinates (Angstroms)
 Number     Number       Type             X           Y           Z
 ---------------------------------------------------------------------
      1          6           0       -0.387152    0.558628   -1.095861
      2          6           0       -0.000000    0.851873    0.231379
      3          6           0        0.000000   -0.000000    1.325329
      4          6           0        0.387152   -0.558628   -1.095861
      5          6           0       -0.000000   -0.851873    0.231379
      6          1           0        0.000000   -0.000000    2.421814
 ---------------------------------------------------------------------

 SCF Done:  E(UB3LYP) =  -189.857391378     A.U. after   17 cycles

 The electronic state is 2-A.
 Alpha  occ. eigenvalues --  -10.88042 -10.88035 -10.85377 -10.85308 -10.80403
 Alpha  occ. eigenvalues --   -1.57475  -1.35924  -1.23463  -1.08785  -1.05739
 Alpha  occ. eigenvalues --   -1.02723  -0.99713  -0.92670  -0.83570  -0.83227
 Alpha virt. eigenvalues --   -0.68727  -0.64843  -0.60479  -0.55217  -0.50215
 Alpha virt. eigenvalues --   -0.37291  -0.32042  -0.31258  -0.28629  -0.28444
 Alpha virt. eigenvalues --   -0.25710  -0.24896  -0.23058  -0.22373  -0.21579

  Beta  occ. eigenvalues --  -10.87267 -10.87260 -10.84675 -10.84608 -10.80855
  Beta  occ. eigenvalues --   -1.56980  -1.36136  -1.21496  -1.08517  -1.04307
  Beta  occ. eigenvalues --   -1.02172  -0.98589  -0.89163  -0.81339
  Beta virt. eigenvalues --   -0.70909  -0.66524  -0.63128  -0.57627  -0.53304
  Beta virt. eigenvalues --   -0.50545  -0.37104  -0.31697  -0.30741  -0.28355
  Beta virt. eigenvalues --   -0.28219  -0.25210  -0.24656  -0.22279  -0.22270

 Mulliken charges and spin densities:
               1          2
     1  C    0.408070   0.273767
     2  C    0.334452   0.354467
     3  C    0.127466  -0.263353
     4  C    0.408070   0.273767
     5  C    0.334452   0.354467
     6  H    0.387490   0.006883
 Sum of Mulliken charges =   2.00000   1.00000

 Dipole moment (field-independent basis, Debye):
    X=             -0.0000    Y=              0.0000    Z=              1.2873  Tot=              1.2873
 Quadrupole moment (field-independent basis, Debye-Ang):
   XX=            -22.6994   YY=            -15.9875   ZZ=             -5.6518
   XY=             -0.8584   XZ=              0.0000   YZ=              0.0000

  Exact polarizability:  27.489  -4.436  36.701  -0.000  -0.000  52.071
 Approx polarizability:  48.686 -15.701  97.140  -0.000   0.000 120.521

                      1                      2                      3
                      B                      B                      A
 Frequencies --    181.4704               358.9245               531.2109
 Red. masses --      7.1399                 8.9520                11.9815
 Frc consts  --      0.1385                 0.6795                 1.9920
 IR Inten    --     29.4473                 5.4193                11.5444

                      4                      5                      6
                      B                      A                      B
 Frequencies --    600.0605               633.6519               753.1126
 Red. masses --      4.6019                10.0458                 2.9303
 Frc consts  --      0.9763                 2.3765                 0.9792
 IR Inten    --     32.9801                 0.0014                20.6409

                      7                      8                      9
                      B                      B                      A
 Frequencies --    771.9178              1043.2891              1096.3581
 Red. masses --      1.9441                 1.2455                11.2192
 Frc consts  --      0.6825                 0.7987                 7.9454
 IR Inten    --     18.7190                29.8866                 3.1302

                     10                     11                     12
                      A                      A                      A
 Frequencies --   1175.6941              1465.2484              3092.0588
 Red. masses --     10.3617                 7.6424                 1.1181
 Frc consts  --      8.4386                 9.6672                 6.2982
 IR Inten    --     37.7811                40.2279               384.3181

 - Thermochemistry -
 -------------------
 Temperature   298.150 Kelvin.  Pressure   1.00000 Atm.
 Atom     1 has atomic number  6 and mass  12.00000

 Molecular mass:    61.00783 amu.
 Principal axes and moments of inertia in atomic units:
                           1         2         3
     Eigenvalues --   101.78729 212.12600 296.77093
           X           -0.00000  -0.22473   0.97442
           Y            0.00000   0.97442   0.22473
           Z            1.00000  -0.00000   0.00000
 This molecule is an asymmetric top.
 Rotational symmetry number  2.
 Rotational temperatures (Kelvin)      0.85093     0.40831     0.29185
 Rotational constants (GHZ):          17.73052     8.50787     6.08126
 Zero-point vibrational energy      69999.5 (Joules/Mol)
                                   16.73027 (Kcal/Mol)
 Warning -- explicit consideration of   4 degrees of freedom as
           vibrations may cause significant error
 Vibrational temperatures:    261.10   516.41   764.29   863.35   911.68
          (Kelvin)           1083.56  1110.62  1501.06  1577.41  1691.56
                             2108.16  4448.78

 Zero-point correction=                           0.026661 (Hartree/Particle)
 Thermal correction to Energy=                    0.031201
 Thermal correction to Enthalpy=                  0.032145
 Thermal correction to Gibbs Free Energy=         0.000229
 Sum of electronic and zero-point Energies=           -189.830730
 Sum of electronic and thermal Energies=              -189.826191
 Sum of electronic and thermal Enthalpies=            -189.825247
 Sum of electronic and thermal Free Energies=         -189.857162

                     E (Thermal)             CV                S
                      KCal/Mol        Cal/Mol-Kelvin    Cal/Mol-Kelvin
 Total                   19.579             14.908             67.172
 Electronic               0.000              0.000              1.377
 Translational            0.889              2.981             38.245
 Rotational               0.889              2.981             21.998
 Vibrational             17.801              8.946              5.551
 Vibration     1          0.630              1.865              2.313
 Vibration     2          0.734              1.557              1.127
 Vibration     3          0.886              1.181              0.585
 Vibration     4          0.958              1.032              0.450

 Optimization completed.
    -- Stationary point found.
 Normal termination of Gaussian 09 at Wed Jul 20 10:37:08 2016.
