 Gaussian 09, Revision E.01,
 Gaussian 09:  EM64L-G09RevE.01 30-Nov-2015

 ---------------------------------------------
 #p b3lyp/6-311++G(3df,2p) freq symmetry=Loose
 ---------------------------------------------

 ---------
 b3lyp opt
 ---------
 Symbolic Z-matrix:
 Charge =  0 Multiplicity = 4

                         Standard orientation:
 ---------------------------------------------------------------------
 Center     Atomic      Atomic             Coordinates (Angstroms)
 Number     Number       Type             X           Y           Z
 ---------------------------------------------------------------------
      1          1           0        0.000000    0.000000   -3.481617
      2          6           0        0.000000    0.000000   -2.419744
      3          6           0        0.000000    0.000000   -1.189747
      4          6           0        0.000000    0.000000    0.120757
      5          6           0        0.000000    0.000000    1.407801
      6          6           0        0.000000    0.000000    2.661202
 ---------------------------------------------------------------------

 SCF Done:  E(UB3LYP) =  -190.865699525     A.U. after   18 cycles

 The electronic state is 4-SG.
 Alpha  occ. eigenvalues --  -10.26967 -10.23373 -10.22316 -10.21559 -10.21250
 Alpha  occ. eigenvalues --   -0.84416  -0.79922  -0.73526  -0.63211  -0.54620
 Alpha  occ. eigenvalues --   -0.43196  -0.40440  -0.40440  -0.33729  -0.33729
 Alpha  occ. eigenvalues --   -0.23454  -0.23454
 Alpha virt. eigenvalues --   -0.01220  -0.01220  -0.00215   0.02101   0.04242
 Alpha virt. eigenvalues --    0.05206   0.05206   0.07048   0.07754   0.07754
 Alpha virt. eigenvalues --    0.09806   0.09806   0.10318   0.13100   0.17213

  Beta  occ. eigenvalues --  -10.23525 -10.22671 -10.21888 -10.21787 -10.20362
  Beta  occ. eigenvalues --   -0.82293  -0.77954  -0.68994  -0.61245  -0.53689
  Beta  occ. eigenvalues --   -0.37547  -0.37547  -0.30452  -0.30452
  Beta virt. eigenvalues --   -0.20032  -0.11536  -0.11536  -0.00071   0.01467
  Beta virt. eigenvalues --    0.01467   0.02613   0.05260   0.05360   0.05360
  Beta virt. eigenvalues --    0.07346   0.09358   0.09358   0.10581   0.10581

 Mulliken charges and spin densities:
               1          2
     1  H    0.323255  -0.022492
     2  C    0.333472   0.757286
     3  C   -0.250263  -0.260097
     4  C   -1.015754   0.899637
     5  C    0.675252  -0.386773
     6  C   -0.065962   2.012438
 Sum of Mulliken charges =  -0.00000   3.00000

 Dipole moment (field-independent basis, Debye):
    X=              0.0000    Y=              0.0000    Z=             -0.8621  Tot=              0.8621
 Quadrupole moment (field-independent basis, Debye-Ang):
   XX=            -29.4935   YY=            -29.4935   ZZ=            -19.0004
   XY=              0.0000   XZ=              0.0000   YZ=              0.0000

  Exact polarizability:  35.115  -0.000  35.115  -0.000  -0.000 136.280
 Approx polarizability:  46.236  -0.000  46.236  -0.000  -0.000 268.040

                      1                      2                      3
                     PI                     PI                     PI
 Frequencies --    144.1806               144.1806               402.5713
 Red. masses --      6.6382                 6.6382                 8.9760
 Frc consts  --      0.0813                 0.0813                 0.8571
 IR Inten    --      3.0559                 3.0559                 0.7052

                      4                      5                      6
                     PI                     PI                     PI
 Frequencies --    402.5713               482.5547               482.5547
 Red. masses --      8.9760                 7.2981                 7.2981
 Frc consts  --      0.8571                 1.0013                 1.0013
 IR Inten    --      0.7052                 0.3707                 0.3707

                      7                      8                      9
                     PI                     PI                     SG
 Frequencies --    505.7812               505.7812               780.3464
 Red. masses --      1.2935                 1.2935                 9.1043
 Frc consts  --      0.1950                 0.1950                 3.2664
 IR Inten    --     45.4745                45.4745                 0.0969

                     10                     11                     12
                     SG                     SG                     SG
 Frequencies --   1562.5514              1727.4081              1974.3725
 Red. masses --      9.4080                11.8446                 8.0276
 Frc consts  --     13.5336                20.8239                18.4371
 IR Inten    --      7.4968                 4.4396                 0.6237

                     13
                     SG
 Frequencies --   3448.5222
 Red. masses --      1.1294
 Frc consts  --      7.9134
 IR Inten    --    107.8466

 - Thermochemistry -
 -------------------
 Temperature   298.150 Kelvin.  Pressure   1.00000 Atm.
 Atom     1 has atomic number  1 and mass   1.00783

 Molecular mass:    61.00783 amu.
 Principal axes and moments of inertia in atomic units:
                           1         2         3
     Eigenvalues --     0.00000 743.53359 743.53359
           X            0.00000  -0.00000   1.00000
           Y            0.00000   1.00000   0.00000
           Z            1.00000   0.00000   0.00000
 This molecule is a prolate symmetric top.
 Rotational symmetry number  1.
 Warning -- assumption of classical behavior for rotation
           may cause significant error
 Rotational temperature (Kelvin)      0.11649
 Rotational constant (GHZ):           2.427249
 Zero-point vibrational energy      75145.7 (Joules/Mol)
                                   17.96025 (Kcal/Mol)
 Warning -- explicit consideration of   8 degrees of freedom as
           vibrations may cause significant error
 Vibrational temperatures:    207.44   207.44   579.21   579.21   694.29
          (Kelvin)            694.29   727.71   727.71  1122.74  2248.16
                             2485.35  2840.68  4961.65

 Zero-point correction=                           0.028621 (Hartree/Particle)
 Thermal correction to Energy=                    0.033908
 Thermal correction to Enthalpy=                  0.034852
 Thermal correction to Gibbs Free Energy=         0.002107
 Sum of electronic and zero-point Energies=           -190.837078
 Sum of electronic and thermal Energies=              -190.831792
 Sum of electronic and thermal Enthalpies=            -190.830848
 Sum of electronic and thermal Free Energies=         -190.863592

                     E (Thermal)             CV                S
                      KCal/Mol        Cal/Mol-Kelvin    Cal/Mol-Kelvin
 Total                   21.277             17.557             68.917
 Electronic               0.000              0.000              2.755
 Translational            0.889              2.981             38.245
 Rotational               0.592              1.987             17.582
 Vibrational             19.796             12.589             10.335
 Vibration     1          0.616              1.909              2.748
 Vibration     2          0.616              1.909              2.748
 Vibration     3          0.768              1.465              0.953
 Vibration     4          0.768              1.465              0.953
 Vibration     5          0.839              1.289              0.703
 Vibration     6          0.839              1.289              0.703
 Vibration     7          0.861              1.237              0.644
 Vibration     8          0.861              1.237              0.644

 Optimization completed.
    -- Stationary point found.
 Normal termination of Gaussian 09 at Mon Jun 20 14:04:41 2016.
