 Gaussian 09, Revision E.01,
 Gaussian 09:  EM64L-G09RevE.01 30-Nov-2015

 ---------------------------------------------
 #p b3lyp/6-311++G(3df,2p) freq symmetry=Loose
 ---------------------------------------------

 ---------
 b3lyp opt
 ---------
 Symbolic Z-matrix:
 Charge =  0 Multiplicity = 4

                         Standard orientation:
 ---------------------------------------------------------------------
 Center     Atomic      Atomic             Coordinates (Angstroms)
 Number     Number       Type             X           Y           Z
 ---------------------------------------------------------------------
      1          6           0        1.837545   -0.103133    0.089193
      2          6           0        0.543487   -0.051847   -0.034532
      3          6           0       -0.591109    0.882970   -0.192506
      4          6           0       -1.576484    0.054187    0.280183
      5          6           0       -0.661152   -0.874161   -0.168828
      6          1           0        2.686273    0.551901    0.158943
 ---------------------------------------------------------------------

 SCF Done:  E(UB3LYP) =  -190.774540274     A.U. after   17 cycles

 The electronic state is 4-A.
 Alpha  occ. eigenvalues --  -10.26834 -10.26747 -10.26145 -10.26083 -10.24260
 Alpha  occ. eigenvalues --   -0.98879  -0.80074  -0.64370  -0.61810  -0.53537
 Alpha  occ. eigenvalues --   -0.45739  -0.45455  -0.37642  -0.32681  -0.30139
 Alpha  occ. eigenvalues --   -0.29235  -0.23293
 Alpha virt. eigenvalues --   -0.07900  -0.06500  -0.00116   0.01810   0.03994
 Alpha virt. eigenvalues --    0.04872   0.05268   0.05423   0.05904   0.07799
 Alpha virt. eigenvalues --    0.09447   0.09741   0.10796   0.11446   0.11920

  Beta  occ. eigenvalues --  -10.26002 -10.25438 -10.25421 -10.24953 -10.22555
  Beta  occ. eigenvalues --   -0.96954  -0.77267  -0.61230  -0.57678  -0.51614
  Beta  occ. eigenvalues --   -0.42824  -0.42334  -0.32088  -0.28368
  Beta virt. eigenvalues --   -0.16978  -0.14710  -0.09788  -0.05262  -0.03760
  Beta virt. eigenvalues --    0.00180   0.02655   0.04448   0.05686   0.06135
  Beta virt. eigenvalues --    0.06244   0.06787   0.08120   0.10076   0.10352

 Mulliken charges and spin densities:
               1          2
     1  C   -0.328402   1.113445
     2  C    0.531305  -0.106845
     3  C   -0.189136   0.687404
     4  C   -0.074368   0.630144
     5  C   -0.164555   0.662049
     6  H    0.225155   0.013803
 Sum of Mulliken charges =  -0.00000   3.00000

 Dipole moment (field-independent basis, Debye):
    X=              1.5988    Y=              0.5139    Z=              0.3738  Tot=              1.7204
 Quadrupole moment (field-independent basis, Debye-Ang):
   XX=            -26.0707   YY=            -30.7571   ZZ=            -29.8337
   XY=              1.6278   XZ=              0.4193   YZ=              0.1096

  Exact polarizability:  87.167  -0.619  54.804  -3.071   0.128  35.975
 Approx polarizability: 153.338  -1.804 108.824 -10.940  -0.136  53.523

                      1                      2                      3
                      A                      A                      A
 Frequencies --    261.7877               336.3101               551.3583
 Red. masses --      7.1263                 2.9725                 2.0131
 Frc consts  --      0.2877                 0.1981                 0.3606
 IR Inten    --      0.6571                 4.9913                41.8328

                      4                      5                      6
                      A                      A                      A
 Frequencies --    576.7848               602.7374               724.8156
 Red. masses --      8.6532                10.8095                 1.9713
 Frc consts  --      1.6961                 2.3137                 0.6102
 IR Inten    --     10.8306                 7.2525                25.2114

                      7                      8                      9
                      A                      A                      A
 Frequencies --    782.6581               961.5786              1087.8125
 Red. masses --      1.8807                 9.5212                11.0172
 Frc consts  --      0.6787                 5.1869                 7.6812
 IR Inten    --     28.4241                 0.7613                 4.1550

                     10                     11                     12
                      A                      A                      A
 Frequencies --   1323.8671              1705.9266              3283.2638
 Red. masses --     11.3427                 8.7038                 1.1041
 Frc consts  --     11.7126                14.9238                 7.0127
 IR Inten    --     64.5102                 2.1090                10.6327

 - Thermochemistry -
 -------------------
 Temperature   298.150 Kelvin.  Pressure   1.00000 Atm.
 Atom     1 has atomic number  6 and mass  12.00000

 Molecular mass:    61.00783 amu.
 Principal axes and moments of inertia in atomic units:
                           1         2         3
     Eigenvalues --    74.46734 329.87994 391.05600
           X            0.99977   0.02087   0.00495
           Y           -0.02090   0.99977   0.00559
           Z           -0.00483  -0.00569   0.99997
 This molecule is an asymmetric top.
 Rotational symmetry number  1.
 Rotational temperatures (Kelvin)      1.16311     0.26256     0.22149
 Rotational constants (GHZ):          24.23534     5.47090     4.61505
 Zero-point vibrational energy      72965.6 (Joules/Mol)
                                   17.43920 (Kcal/Mol)
 Warning -- explicit consideration of   5 degrees of freedom as
           vibrations may cause significant error
 Vibrational temperatures:    376.65   483.87   793.28   829.86   867.20
          (Kelvin)           1042.85  1126.07  1383.50  1565.12  1904.75
                             2454.44  4723.88

 Zero-point correction=                           0.027791 (Hartree/Particle)
 Thermal correction to Energy=                    0.032259
 Thermal correction to Enthalpy=                  0.033203
 Thermal correction to Gibbs Free Energy=         0.000020
 Sum of electronic and zero-point Energies=           -190.746749
 Sum of electronic and thermal Energies=              -190.742282
 Sum of electronic and thermal Enthalpies=            -190.741337
 Sum of electronic and thermal Free Energies=         -190.774520

                     E (Thermal)             CV                S
                      KCal/Mol        Cal/Mol-Kelvin    Cal/Mol-Kelvin
 Total                   20.243             14.898             69.839
 Electronic               0.000              0.000              2.755
 Translational            0.889              2.981             38.245
 Rotational               0.889              2.981             23.778
 Vibrational             18.465              8.937              5.061
 Vibration     1          0.669              1.743              1.650
 Vibration     2          0.717              1.603              1.230
 Vibration     3          0.907              1.137              0.541
 Vibration     4          0.933              1.081              0.491
 Vibration     5          0.961              1.026              0.445

 Optimization completed.
    -- Stationary point found.
 Normal termination of Gaussian 09 at Mon Jun 20 14:08:27 2016.
