 Gaussian 09, Revision E.01,
 Gaussian 09:  EM64L-G09RevE.01 30-Nov-2015

 ---------------------------------------------
 #p b3lyp/6-311++G(3df,2p) freq symmetry=Loose
 ---------------------------------------------

 ---------
 b3lyp opt
 ---------
 Symbolic Z-matrix:
 Charge =  2 Multiplicity = 4

                         Standard orientation:
 ---------------------------------------------------------------------
 Center     Atomic      Atomic             Coordinates (Angstroms)
 Number     Number       Type             X           Y           Z
 ---------------------------------------------------------------------
      1          6           0        0.000000   -0.000000    2.098205
      2          6           0        0.000000   -0.000000    0.732193
      3          6           0        0.000000    0.838961   -0.425278
      4          6           0        0.000000    0.000000   -1.540613
      5          6           0       -0.000000   -0.838961   -0.425278
      6          1           0        0.000000    0.000000   -2.635368
 ---------------------------------------------------------------------

 SCF Done:  E(UB3LYP) =  -189.851055659     A.U. after   17 cycles

 The electronic state is 4-A2.
 Alpha  occ. eigenvalues --  -10.85271 -10.83773 -10.81584 -10.81573 -10.80605
 Alpha  occ. eigenvalues --   -1.53328  -1.34014  -1.19957  -1.10726  -1.01796
 Alpha  occ. eigenvalues --   -0.98505  -0.97075  -0.93073  -0.83384  -0.81375
 Alpha  occ. eigenvalues --   -0.78692
 Alpha virt. eigenvalues --   -0.62333  -0.60498  -0.55994  -0.43447  -0.35015
 Alpha virt. eigenvalues --   -0.32390  -0.31677  -0.28216  -0.27551  -0.25646
 Alpha virt. eigenvalues --   -0.23475  -0.22456  -0.21683  -0.21261  -0.20717

  Beta  occ. eigenvalues --  -10.83083 -10.81410 -10.81400 -10.80855 -10.80074
  Beta  occ. eigenvalues --   -1.52502  -1.28386  -1.15956  -1.09795  -1.00536
  Beta  occ. eigenvalues --   -0.96855  -0.94043  -0.80737
  Beta virt. eigenvalues --   -0.70907  -0.67244  -0.60786  -0.60016  -0.54214
  Beta virt. eigenvalues --   -0.52049  -0.38490  -0.33629  -0.31988  -0.30550
  Beta virt. eigenvalues --   -0.27181  -0.27171  -0.23935  -0.22778  -0.21959

 Mulliken charges and spin densities:
               1          2
     1  C   -0.072078   2.145441
     2  C   -0.153798   0.336391
     3  C    1.236955   0.111669
     4  C   -0.642648   0.300931
     5  C    1.236955   0.111669
     6  H    0.394613  -0.006101
 Sum of Mulliken charges =   2.00000   3.00000

 Dipole moment (field-independent basis, Debye):
    X=             -0.0000    Y=              0.0000    Z=              0.1819  Tot=              0.1819
 Quadrupole moment (field-independent basis, Debye-Ang):
   XX=            -21.6864   YY=            -21.6441   ZZ=              7.2257
   XY=             -0.0000   XZ=              0.0000   YZ=              0.0000

  Exact polarizability:  21.576   0.000  35.348   0.000  -0.000  62.725
 Approx polarizability:  33.262   0.000  92.903  -0.000  -0.000 118.150

                      1                      2                      3
                     B1                     B2                     B1
 Frequencies --    260.6964               412.5168               572.4945
 Red. masses --      4.9259                 7.9984                 6.4555
 Frc consts  --      0.1972                 0.8019                 1.2466
 IR Inten    --      8.4227                11.0869                 0.2115

                      4                      5                      6
                     A1                     B2                     B1
 Frequencies --    692.8861               725.9898               815.4368
 Red. masses --     10.0972                 7.6906                 1.3897
 Frc consts  --      2.8561                 2.3882                 0.5444
 IR Inten    --      1.3180                26.9436                16.1879

                      7                      8                      9
                     A1                     B2                     B2
 Frequencies --    968.9075              1026.6880              1135.7025
 Red. masses --     11.7400                 1.4251                 4.6786
 Frc consts  --      6.4936                 0.8850                 3.5555
 IR Inten    --     25.6247                 8.1821                10.0498

                     10                     11                     12
                     A1                     A1                     A1
 Frequencies --   1411.3620              1590.0308              3127.4228
 Red. masses --      6.5535                11.9939                 1.1231
 Frc consts  --      7.6913                17.8657                 6.4722
 IR Inten    --    213.5123                23.9521               273.0093

 - Thermochemistry -
 -------------------
 Temperature   298.150 Kelvin.  Pressure   1.00000 Atm.
 Atom     1 has atomic number  6 and mass  12.00000

 Molecular mass:    61.00783 amu.
 Principal axes and moments of inertia in atomic units:
                           1         2         3
     Eigenvalues --    60.32433 353.43839 413.76272
           X            0.00000  -0.00000   1.00000
           Y            0.00000   1.00000   0.00000
           Z            1.00000  -0.00000   0.00000
 This molecule is an asymmetric top.
 Rotational symmetry number  2.
 Rotational temperatures (Kelvin)      1.43580     0.24506     0.20933
 Rotational constants (GHZ):          29.91730     5.10624     4.36178
 Zero-point vibrational energy      76202.9 (Joules/Mol)
                                   18.21294 (Kcal/Mol)
 Warning -- explicit consideration of   3 degrees of freedom as
           vibrations may cause significant error
 Vibrational temperatures:    375.08   593.52   823.69   996.91  1044.54
          (Kelvin)           1173.23  1394.04  1477.17  1634.02  2030.63
                             2287.70  4499.66

 Zero-point correction=                           0.029024 (Hartree/Particle)
 Thermal correction to Energy=                    0.033201
 Thermal correction to Enthalpy=                  0.034145
 Thermal correction to Gibbs Free Energy=         0.002099
 Sum of electronic and zero-point Energies=           -189.822031
 Sum of electronic and thermal Energies=              -189.817855
 Sum of electronic and thermal Enthalpies=            -189.816911
 Sum of electronic and thermal Free Energies=         -189.848956

                     E (Thermal)             CV                S
                      KCal/Mol        Cal/Mol-Kelvin    Cal/Mol-Kelvin
 Total                   20.834             13.658             67.446
 Electronic               0.000              0.000              2.755
 Translational            0.889              2.981             38.245
 Rotational               0.889              2.981             22.316
 Vibrational             19.056              7.696              4.130
 Vibration     1          0.669              1.745              1.657
 Vibration     2          0.776              1.443              0.918
 Vibration     3          0.929              1.091              0.499

 Optimization completed.
    -- Stationary point found.
 Normal termination of Gaussian 09 at Mon Jun 20 14:49:07 2016.
