 Gaussian 09, Revision E.01,
 Gaussian 09:  EM64L-G09RevE.01 30-Nov-2015

 ---------------------------------------------
 #p b3lyp/6-311++G(3df,2p) freq symmetry=Loose
 ---------------------------------------------

 ---------
 b3lyp opt
 ---------
 Symbolic Z-matrix:
 Charge =  2 Multiplicity = 2

                         Standard orientation:
 ---------------------------------------------------------------------
 Center     Atomic      Atomic             Coordinates (Angstroms)
 Number     Number       Type             X           Y           Z
 ---------------------------------------------------------------------
      1          6           0       -0.090638   -0.713018    0.000000
      2          6           0        1.131969   -0.072260    0.000000
      3          6           0       -0.579366    2.018887    0.000000
      4          6           0        0.000000    0.718025    0.000000
      5          6           0       -0.833291   -1.927981    0.000000
      6          1           0        2.227956   -0.141911    0.000000
 ---------------------------------------------------------------------

 SCF Done:  E(UB3LYP) =  -189.844105159     A.U. after   35 cycles

 The electronic state is 2-A".
 Alpha  occ. eigenvalues --  -10.84726 -10.84725 -10.80773 -10.78203 -10.78165
 Alpha  occ. eigenvalues --   -1.48638  -1.27858  -1.24836  -1.08741  -0.96882
 Alpha  occ. eigenvalues --   -0.94609  -0.92981  -0.81952  -0.81904  -0.78763
 Alpha virt. eigenvalues --   -0.67301  -0.65070  -0.61128  -0.50537  -0.47428
 Alpha virt. eigenvalues --   -0.36327  -0.32267  -0.32183  -0.29931  -0.27230
 Alpha virt. eigenvalues --   -0.25848  -0.25378  -0.24385  -0.23166  -0.21202

  Beta  occ. eigenvalues --  -10.84191 -10.84190 -10.81010 -10.77839 -10.77799
  Beta  occ. eigenvalues --   -1.48407  -1.25458  -1.22944  -1.08852  -0.96688
  Beta  occ. eigenvalues --   -0.92426  -0.92304  -0.81648  -0.80483
  Beta virt. eigenvalues --   -0.68649  -0.64702  -0.63376  -0.60072  -0.48706
  Beta virt. eigenvalues --   -0.43316  -0.36028  -0.32219  -0.31768  -0.28925
  Beta virt. eigenvalues --   -0.26975  -0.25918  -0.24912  -0.23658  -0.22984

 Mulliken charges and spin densities:
               1          2
     1  C    0.553285   0.309057
     2  C    0.061063  -0.087273
     3  C    0.227158   0.233641
     4  C    0.550820   0.309326
     5  C    0.228480   0.233029
     6  H    0.379195   0.002221
 Sum of Mulliken charges =   2.00000   1.00000

 Dipole moment (field-independent basis, Debye):
    X=              1.5695    Y=             -0.1017    Z=              0.0000  Tot=              1.5728
 Quadrupole moment (field-independent basis, Debye-Ang):
   XX=            -11.1593   YY=             -7.2530   ZZ=            -22.2910
   XY=              0.2530   XZ=              0.0000   YZ=              0.0000

  Exact polarizability:  40.043   3.688  96.616  -0.000  -0.000  28.395
 Approx polarizability:  68.210   8.394 198.518  -0.000  -0.000  40.336

                      1                      2                      3
                     A"                     A'                     A"
 Frequencies --    130.8990               157.6965               231.4877
 Red. masses --      5.8590                11.1497                11.9934
 Frc consts  --      0.0591                 0.1634                 0.3787
 IR Inten    --      1.5962                 3.8745                 0.0001

                      4                      5                      6
                     A'                     A'                     A'
 Frequencies --    279.9564               737.8543               800.7061
 Red. masses --      5.5480                11.9835                 5.9583
 Frc consts  --      0.2562                 3.8439                 2.2507
 IR Inten    --      2.0927                25.1158                 0.5691

                      7                      8                      9
                     A"                     A'                     A'
 Frequencies --    889.2974               980.9344              1111.2593
 Red. masses --      1.3431                 1.3418                 7.8071
 Frc consts  --      0.6258                 0.7607                 5.6803
 IR Inten    --     25.7545                 2.9743                 2.4374

                     10                     11                     12
                     A'                     A'                     A'
 Frequencies --   1280.7185              1676.3409              3087.5653
 Red. masses --     10.0149                 8.2131                 1.1267
 Frc consts  --      9.6784                13.5982                 6.3281
 IR Inten    --   1016.8978               171.9059               243.2326

 - Thermochemistry -
 -------------------
 Temperature   298.150 Kelvin.  Pressure   1.00000 Atm.
 Atom     1 has atomic number  6 and mass  12.00000

 Molecular mass:    61.00783 amu.
 Principal axes and moments of inertia in atomic units:
                           1         2         3
     Eigenvalues --   115.89547 379.21160 495.10707
           X            0.06419   0.99794   0.00000
           Y            0.99794  -0.06419   0.00000
           Z            0.00000  -0.00000   1.00000
 This molecule is an asymmetric top.
 Rotational symmetry number  1.
 Rotational temperatures (Kelvin)      0.74734     0.22840     0.17494
 Rotational constants (GHZ):          15.57215     4.75919     3.64515
 Zero-point vibrational energy      67976.1 (Joules/Mol)
                                   16.24668 (Kcal/Mol)
 Warning -- explicit consideration of   4 degrees of freedom as
           vibrations may cause significant error
 Vibrational temperatures:    188.33   226.89   333.06   402.79  1061.61
          (Kelvin)           1152.04  1279.50  1411.34  1598.85  1842.67
                             2411.88  4442.31

 Zero-point correction=                           0.025891 (Hartree/Particle)
 Thermal correction to Energy=                    0.031300
 Thermal correction to Enthalpy=                  0.032244
 Thermal correction to Gibbs Free Energy=        -0.002885
 Sum of electronic and zero-point Energies=           -189.818214
 Sum of electronic and thermal Energies=              -189.812805
 Sum of electronic and thermal Enthalpies=            -189.811861
 Sum of electronic and thermal Free Energies=         -189.846991

                     E (Thermal)             CV                S
                      KCal/Mol        Cal/Mol-Kelvin    Cal/Mol-Kelvin
 Total                   19.641             16.071             73.937
 Electronic               0.000              0.000              1.377
 Translational            0.889              2.981             38.245
 Rotational               0.889              2.981             24.590
 Vibrational             17.864             10.110              9.724
 Vibration     1          0.612              1.922              2.933
 Vibration     2          0.621              1.894              2.577
 Vibration     3          0.653              1.793              1.867
 Vibration     4          0.680              1.711              1.534

 Normal termination of Gaussian 09 at Mon Jun 20 14:51:15 2016.
