 Gaussian 09, Revision E.01,
 Gaussian 09:  EM64L-G09RevE.01 30-Nov-2015

 ---------------------------------------------
 #p b3lyp/6-311++G(3df,2p) freq symmetry=Loose
 ---------------------------------------------

 ---------
 b3lyp opt
 ---------
 Symbolic Z-matrix:
 Charge =  2 Multiplicity = 2

                         Standard orientation:
 ---------------------------------------------------------------------
 Center     Atomic      Atomic             Coordinates (Angstroms)
 Number     Number       Type             X           Y           Z
 ---------------------------------------------------------------------
      1          1           0        0.998486   -1.570660    0.084957
      2          6           0        0.812293   -0.470220    0.076493
      3          6           0       -0.555502    0.051663    0.013710
      4          6           0       -1.525187   -0.971235   -0.052759
      5          6           0       -0.913146    1.412914    0.015298
      6          6           0        2.015129    0.238654   -0.066903
 ---------------------------------------------------------------------

 SCF Done:  E(UB3LYP) =  -189.744968265     A.U. after   42 cycles

 The electronic state is 2-A.
 Alpha  occ. eigenvalues --  -10.86362 -10.85888 -10.83539 -10.78379 -10.75522
 Alpha  occ. eigenvalues --   -1.40536  -1.30594  -1.20235  -1.10246  -1.00296
 Alpha  occ. eigenvalues --   -0.90952  -0.85189  -0.83245  -0.81415  -0.80271
 Alpha virt. eigenvalues --   -0.67011  -0.65559  -0.62737  -0.61967  -0.57051
 Alpha virt. eigenvalues --   -0.44182  -0.34713  -0.31897  -0.27101  -0.26543
 Alpha virt. eigenvalues --   -0.25886  -0.23829  -0.22726  -0.22229  -0.21481

  Beta  occ. eigenvalues --  -10.86214 -10.85757 -10.82843 -10.77711 -10.75516
  Beta  occ. eigenvalues --   -1.39662  -1.28139  -1.19783  -1.09090  -0.99713
  Beta  occ. eigenvalues --   -0.88294  -0.84958  -0.82204  -0.79953
  Beta virt. eigenvalues --   -0.70244  -0.66669  -0.64052  -0.62465  -0.61182
  Beta virt. eigenvalues --   -0.52721  -0.41897  -0.34471  -0.31595  -0.26659
  Beta virt. eigenvalues --   -0.26254  -0.25320  -0.23665  -0.22382  -0.22119

 Mulliken charges and spin densities:
               1          2
     1  H    0.285514  -0.012249
     2  C    0.039189   0.452943
     3  C    1.095634   0.030892
     4  C    0.260558   0.073462
     5  C    0.144538   0.068521
     6  C    0.174567   0.386431
 Sum of Mulliken charges =   2.00000   1.00000

 Dipole moment (field-independent basis, Debye):
    X=              0.2016    Y=             -1.1073    Z=              0.2694  Tot=              1.1573
 Quadrupole moment (field-independent basis, Debye-Ang):
   XX=             -6.3578   YY=            -15.3350   ZZ=            -23.2989
   XY=             -2.5387   XZ=              0.6966   YZ=             -0.0412

  Exact polarizability:  72.467   5.099  49.924   3.077   1.292  29.975
 Approx polarizability: 129.976  17.481 114.478  -0.440   0.420  44.106

                      1                      2                      3
                      A                      A                      A
 Frequencies --     89.9779               174.2466               272.8879
 Red. masses --      4.8213                10.4160                 7.4922
 Frc consts  --      0.0230                 0.1863                 0.3287
 IR Inten    --     16.1888                 5.8247                 2.3418

                      4                      5                      6
                      A                      A                      A
 Frequencies --    314.3786               342.6826               519.6568
 Red. masses --      3.8175                 8.1112                 1.9169
 Frc consts  --      0.2223                 0.5612                 0.3050
 IR Inten    --     11.8623                25.3229                39.0947

                      7                      8                      9
                      A                      A                      A
 Frequencies --    833.0941               965.7304              1161.1961
 Red. masses --      7.4947                 1.7840                 3.5033
 Frc consts  --      3.0648                 0.9803                 2.7832
 IR Inten    --      7.5097                38.2868               299.6664

                     10                     11                     12
                      A                      A                      A
 Frequencies --   1353.1072              1368.6861              2864.6858
 Red. masses --      3.9004                11.4926                 1.0820
 Frc consts  --      4.2075                12.6846                 5.2315
 IR Inten    --     58.2891               528.9670               191.0570

 - Thermochemistry -
 -------------------
 Temperature   298.150 Kelvin.  Pressure   1.00000 Atm.
 Atom     1 has atomic number  1 and mass   1.00783

 Molecular mass:    61.00783 amu.
 Principal axes and moments of inertia in atomic units:
                           1         2         3
     Eigenvalues --   147.18953 355.21714 501.19909
           X            0.99963  -0.02715   0.00087
           Y            0.02715   0.99963  -0.00314
           Z           -0.00079   0.00317   0.99999
 This molecule is an asymmetric top.
 Rotational symmetry number  1.
 Rotational temperatures (Kelvin)      0.58845     0.24383     0.17281
 Rotational constants (GHZ):          12.26134     5.08067     3.60085
 Zero-point vibrational energy      61370.4 (Joules/Mol)
                                   14.66788 (Kcal/Mol)
 Warning -- explicit consideration of   6 degrees of freedom as
           vibrations may cause significant error
 Vibrational temperatures:    129.46   250.70   392.62   452.32   493.04
          (Kelvin)            747.67  1198.64  1389.47  1670.70  1946.82
                             1969.23  4121.64

 Zero-point correction=                           0.023375 (Hartree/Particle)
 Thermal correction to Energy=                    0.029149
 Thermal correction to Enthalpy=                  0.030093
 Thermal correction to Gibbs Free Energy=        -0.005805
 Sum of electronic and zero-point Energies=           -189.721594
 Sum of electronic and thermal Energies=              -189.715819
 Sum of electronic and thermal Enthalpies=            -189.714875
 Sum of electronic and thermal Free Energies=         -189.750774

                     E (Thermal)             CV                S
                      KCal/Mol        Cal/Mol-Kelvin    Cal/Mol-Kelvin
 Total                   18.291             17.446             75.555
 Electronic               0.000              0.000              1.377
 Translational            0.889              2.981             38.245
 Rotational               0.889              2.981             24.775
 Vibrational             16.514             11.484             11.157
 Vibration     1          0.602              1.956              3.661
 Vibration     2          0.627              1.874              2.389
 Vibration     3          0.676              1.723              1.578
 Vibration     4          0.702              1.646              1.339
 Vibration     5          0.722              1.590              1.200
 Vibration     6          0.875              1.206              0.611

 Normal termination of Gaussian 09 at Mon Jun 20 14:52:55 2016.
