 Gaussian 09, Revision E.01,
 Gaussian 09:  EM64L-G09RevE.01 30-Nov-2015

 ---------------------------------------------
 #p b3lyp/6-311++G(3df,2p) freq symmetry=Loose
 ---------------------------------------------

 ---------
 b3lyp opt
 ---------
 Symbolic Z-matrix:
 Charge =  2 Multiplicity = 2

                         Standard orientation:
 ---------------------------------------------------------------------
 Center     Atomic      Atomic             Coordinates (Angstroms)
 Number     Number       Type             X           Y           Z
 ---------------------------------------------------------------------
      1          6           0       -0.000000    0.651239    0.000000
      2          6           0        0.500385   -0.838159    0.000000
      3          6           0       -0.885910   -0.590138   -0.000000
      4          6           0       -1.425789    0.602923   -0.000000
      5          6           0        1.405753    0.095107    0.000000
      6          1           0        2.433366    0.474167    0.000000
 ---------------------------------------------------------------------

 SCF Done:  E(UB3LYP) =  -189.878789948     A.U. after   18 cycles

 The electronic state is 2-A'.
 Alpha  occ. eigenvalues --  -10.89630 -10.86350 -10.86047 -10.84862 -10.80628
 Alpha  occ. eigenvalues --   -1.61100  -1.40814  -1.21946  -1.09949  -1.03901
 Alpha  occ. eigenvalues --   -1.01613  -1.00943  -0.95746  -0.85004  -0.83350
 Alpha virt. eigenvalues --   -0.66082  -0.64591  -0.54871  -0.49074  -0.46548
 Alpha virt. eigenvalues --   -0.40116  -0.34080  -0.33308  -0.28548  -0.28101
 Alpha virt. eigenvalues --   -0.26639  -0.24731  -0.23704  -0.21890  -0.21684

  Beta  occ. eigenvalues --  -10.89403 -10.86414 -10.85711 -10.82692 -10.80803
  Beta  occ. eigenvalues --   -1.60684  -1.40163  -1.21250  -1.09012  -1.03785
  Beta  occ. eigenvalues --   -1.01313  -0.99839  -0.91640  -0.82472
  Beta virt. eigenvalues --   -0.68608  -0.65870  -0.63441  -0.53134  -0.47520
  Beta virt. eigenvalues --   -0.45367  -0.39784  -0.33990  -0.32960  -0.28532
  Beta virt. eigenvalues --   -0.27339  -0.26249  -0.24496  -0.22885  -0.21861

 Mulliken charges and spin densities:
               1          2
     1  C    0.207049   0.043538
     2  C    0.324257   0.174312
     3  C    0.133328  -0.191745
     4  C    0.626995   1.032058
     5  C    0.310093  -0.066866
     6  H    0.398278   0.008704
 Sum of Mulliken charges =   2.00000   1.00000

 Dipole moment (field-independent basis, Debye):
    X=              1.1942    Y=             -0.0391    Z=              0.0000  Tot=              1.1948
 Quadrupole moment (field-independent basis, Debye-Ang):
   XX=             -3.6979   YY=            -16.5631   ZZ=            -22.5161
   XY=              0.2767   XZ=              0.0000   YZ=             -0.0000

  Exact polarizability:  49.293  -2.514  31.396  -0.000  -0.000  20.992
 Approx polarizability: 100.137  -5.880  73.902   0.000   0.000  31.675

                      1                      2                      3
                     A"                     A"                     A'
 Frequencies --    377.9991               452.1553               510.8183
 Red. masses --      8.5586                 9.1341                11.8968
 Frc consts  --      0.7205                 1.1002                 1.8290
 IR Inten    --      0.0317                 3.3708                 5.8779

                      4                      5                      6
                     A'                     A'                     A"
 Frequencies --    590.3960               731.8025               738.9418
 Red. masses --      8.9382                 5.1297                 1.2322
 Frc consts  --      1.8356                 1.6186                 0.3964
 IR Inten    --     14.6189                29.5910                50.8880

                      7                      8                      9
                     A'                     A'                     A'
 Frequencies --    820.4783              1011.9532              1217.1828
 Red. masses --      7.7090                 1.3451                10.1744
 Frc consts  --      3.0576                 0.8116                 8.8812
 IR Inten    --      9.3484                20.9667                 5.0964

                     10                     11                     12
                     A'                     A'                     A'
 Frequencies --   1678.5771              1720.2779              3118.4894
 Red. masses --      9.5992                 8.0446                 1.1344
 Frc consts  --     15.9356                14.0266                 6.4999
 IR Inten    --     47.3070                27.6049               354.9237

 - Thermochemistry -
 -------------------
 Temperature   298.150 Kelvin.  Pressure   1.00000 Atm.
 Atom     1 has atomic number  6 and mass  12.00000

 Molecular mass:    61.00783 amu.
 Principal axes and moments of inertia in atomic units:
                           1         2         3
     Eigenvalues --    76.78159 240.31207 317.09366
           X            0.99022   0.13951   0.00000
           Y           -0.13951   0.99022   0.00000
           Z            0.00000  -0.00000   1.00000
 This molecule is an asymmetric top.
 Rotational symmetry number  1.
 Rotational temperatures (Kelvin)      1.12805     0.36042     0.27315
 Rotational constants (GHZ):          23.50487     7.50999     5.69151
 Zero-point vibrational energy      77572.3 (Joules/Mol)
                                   18.54022 (Kcal/Mol)
 Warning -- explicit consideration of   4 degrees of freedom as
           vibrations may cause significant error
 Vibrational temperatures:    543.86   650.55   734.95   849.45  1052.90
          (Kelvin)           1063.17  1180.48  1455.97  1751.25  2415.10
                             2475.09  4486.81

 Zero-point correction=                           0.029546 (Hartree/Particle)
 Thermal correction to Energy=                    0.033679
 Thermal correction to Enthalpy=                  0.034624
 Thermal correction to Gibbs Free Energy=         0.002930
 Sum of electronic and zero-point Energies=           -189.849244
 Sum of electronic and thermal Energies=              -189.845110
 Sum of electronic and thermal Enthalpies=            -189.844166
 Sum of electronic and thermal Free Energies=         -189.875860

                     E (Thermal)             CV                S
                      KCal/Mol        Cal/Mol-Kelvin    Cal/Mol-Kelvin
 Total                   21.134             13.889             66.705
 Electronic               0.000              0.000              1.377
 Translational            0.889              2.981             38.245
 Rotational               0.889              2.981             23.285
 Vibrational             19.357              7.927              3.797
 Vibration     1          0.748              1.517              1.047
 Vibration     2          0.811              1.356              0.789
 Vibration     3          0.866              1.226              0.632
 Vibration     4          0.948              1.052              0.466

 Optimization completed.
    -- Stationary point found.
 Normal termination of Gaussian 09 at Wed Jul 20 10:50:37 2016.
