 Gaussian 09, Revision E.01,
 Gaussian 09:  EM64L-G09RevE.01 30-Nov-2015

 ---------------------------------------------
 #p b3lyp/6-311++G(3df,2p) freq symmetry=Loose
 ---------------------------------------------

 ---------
 b3lyp opt
 ---------
 Symbolic Z-matrix:
 Charge =  1 Multiplicity = 3

                         Standard orientation:
 ---------------------------------------------------------------------
 Center     Atomic      Atomic             Coordinates (Angstroms)
 Number     Number       Type             X           Y           Z
 ---------------------------------------------------------------------
      1          1           0       -1.949370   -0.688103   -0.000000
      2          6           0       -0.860251   -0.789566   -0.000000
      3          6           0        0.000000    0.316591    0.000000
      4          6           0        0.214836    1.700743    0.000000
      5          6           0        1.282214    0.884865    0.000000
      6          6           0       -0.311904   -1.997950   -0.000000
 ---------------------------------------------------------------------

 SCF Done:  E(UB3LYP) =  -190.454116369     A.U. after   20 cycles

 The electronic state is 3-A'.
 Alpha  occ. eigenvalues --  -10.56208 -10.56020 -10.55760 -10.51941 -10.44857
 Alpha  occ. eigenvalues --   -1.25007  -1.07815  -0.88785  -0.82260  -0.75908
 Alpha  occ. eigenvalues --   -0.73065  -0.69435  -0.62903  -0.56793  -0.55822
 Alpha  occ. eigenvalues --   -0.53741
 Alpha virt. eigenvalues --   -0.35460  -0.33718  -0.30464  -0.18909  -0.15653
 Alpha virt. eigenvalues --   -0.13228  -0.11860  -0.10782  -0.10551  -0.08825
 Alpha virt. eigenvalues --   -0.07330  -0.06584  -0.06368  -0.04338  -0.04164

  Beta  occ. eigenvalues --  -10.55388 -10.54335 -10.54206 -10.51927 -10.44844
  Beta  occ. eigenvalues --   -1.22708  -1.07387  -0.87740  -0.78047  -0.71736
  Beta  occ. eigenvalues --   -0.69391  -0.68352  -0.55426  -0.54559
  Beta virt. eigenvalues --   -0.45088  -0.40116  -0.35215  -0.33025  -0.26784
  Beta virt. eigenvalues --   -0.18597  -0.14914  -0.12181  -0.11229  -0.10718
  Beta virt. eigenvalues --   -0.09829  -0.07179  -0.06307  -0.06307  -0.05531

 Mulliken charges and spin densities:
               1          2
     1  H    0.237952   0.023994
     2  C    0.244694   0.027033
     3  C    0.389454   0.001109
     4  C    0.173087   0.942308
     5  C    0.338023   0.975472
     6  C   -0.383209   0.030083
 Sum of Mulliken charges =   1.00000   2.00000

 Dipole moment (field-independent basis, Debye):
    X=             -0.9469    Y=              1.6426    Z=              0.0000  Tot=              1.8959
 Quadrupole moment (field-independent basis, Debye-Ang):
   XX=            -18.1753   YY=            -19.9522   ZZ=            -25.8109
   XY=              4.2462   XZ=              0.0000   YZ=             -0.0000

  Exact polarizability:  45.443  10.612  68.325  -0.000  -0.000  29.340
 Approx polarizability:  80.720  14.989 126.279  -0.000   0.000  43.467

                      1                      2                      3
                     A"                     A'                     A'
 Frequencies --    144.2128               154.0408               407.2388
 Red. masses --      7.1183                10.7281                 6.3857
 Frc consts  --      0.0872                 0.1500                 0.6240
 IR Inten    --      4.2665                11.3731                 3.7268

                      4                      5                      6
                     A"                     A"                     A'
 Frequencies --    448.2260               704.8001               835.7806
 Red. masses --      3.0846                 1.8218                 8.7166
 Frc consts  --      0.3651                 0.5332                 3.5874
 IR Inten    --      8.7405                25.2024                 0.7138

                      7                      8                      9
                     A'                     A'                     A'
 Frequencies --    989.7064              1122.0995              1380.2483
 Red. masses --      1.5066                 3.7846                10.6140
 Frc consts  --      0.8695                 2.8076                11.9137
 IR Inten    --     16.9835                51.7668                83.6819

                     10                     11                     12
                     A'                     A'                     A'
 Frequencies --   1599.5130              1694.5632              3070.2941
 Red. masses --      8.5328                11.9849                 1.0864
 Frc consts  --     12.8623                20.2768                 6.0337
 IR Inten    --    188.3726               178.2582               117.0180

 - Thermochemistry -
 -------------------
 Temperature   298.150 Kelvin.  Pressure   1.00000 Atm.
 Atom     1 has atomic number  1 and mass   1.00783

 Molecular mass:    61.00783 amu.
 Principal axes and moments of inertia in atomic units:
                           1         2         3
     Eigenvalues --    68.52887 414.49348 483.02236
           X            0.39229   0.91984   0.00000
           Y            0.91984  -0.39229   0.00000
           Z            0.00000   0.00000   1.00000
 This molecule is an asymmetric top.
 Rotational symmetry number  1.
 Rotational temperatures (Kelvin)      1.26390     0.20896     0.17932
 Rotational constants (GHZ):          26.33549     4.35409     3.73635
 Zero-point vibrational energy      75070.0 (Joules/Mol)
                                   17.94216 (Kcal/Mol)
 Warning -- explicit consideration of   4 degrees of freedom as
           vibrations may cause significant error
 Vibrational temperatures:    207.49   221.63   585.93   644.90  1014.05
          (Kelvin)           1202.50  1423.97  1614.45  1985.87  2301.34
                             2438.10  4417.46

 Zero-point correction=                           0.028593 (Hartree/Particle)
 Thermal correction to Energy=                    0.033537
 Thermal correction to Enthalpy=                  0.034481
 Thermal correction to Gibbs Free Energy=         0.000113
 Sum of electronic and zero-point Energies=           -190.425524
 Sum of electronic and thermal Energies=              -190.420580
 Sum of electronic and thermal Enthalpies=            -190.419635
 Sum of electronic and thermal Free Energies=         -190.454004

                     E (Thermal)             CV                S
                      KCal/Mol        Cal/Mol-Kelvin    Cal/Mol-Kelvin
 Total                   21.045             14.855             72.334
 Electronic               0.000              0.000              2.183
 Translational            0.889              2.981             38.245
 Rotational               0.889              2.981             24.132
 Vibrational             19.267              8.894              7.774
 Vibration     1          0.616              1.909              2.747
 Vibration     2          0.620              1.898              2.622
 Vibration     3          0.772              1.454              0.936
 Vibration     4          0.807              1.365              0.801

 Optimization completed.
    -- Stationary point found.
 Normal termination of Gaussian 09 at Thu Jul 21 02:16:37 2016.
