 Gaussian 09, Revision E.01,
 Gaussian 09:  EM64L-G09RevE.01 30-Nov-2015

 ---------------------------------------------
 #p b3lyp/6-311++G(3df,2p) freq symmetry=Loose
 ---------------------------------------------

 ---------
 b3lyp opt
 ---------
 Symbolic Z-matrix:
 Charge =  1 Multiplicity = 1

                         Standard orientation:
 ---------------------------------------------------------------------
 Center     Atomic      Atomic             Coordinates (Angstroms)
 Number     Number       Type             X           Y           Z
 ---------------------------------------------------------------------
      1          1           0        0.000000    0.000000    2.072261
      2          6           0        0.000000    0.000000    0.989604
      3          6           0        0.000000    0.960572   -0.092120
      4          6           0        1.061167   -0.000000   -0.575371
      5          6           0       -1.061167    0.000000   -0.575371
      6          6           0       -0.000000   -0.960572   -0.092120
 ---------------------------------------------------------------------

 SCF Done:  E(RB3LYP) =  -190.414832069     A.U. after   11 cycles

 The electronic state is 1-A1.
 Alpha  occ. eigenvalues --  -10.57891 -10.57890 -10.56512 -10.55836 -10.55834
 Alpha  occ. eigenvalues --   -1.33541  -0.95561  -0.94622  -0.93505  -0.77689
 Alpha  occ. eigenvalues --   -0.68298  -0.67483  -0.62606  -0.58018  -0.57207
 Alpha virt. eigenvalues --   -0.40129  -0.39630  -0.36726  -0.29288  -0.15633
 Alpha virt. eigenvalues --   -0.14386  -0.12860  -0.12064  -0.11817  -0.09719
 Alpha virt. eigenvalues --   -0.08753  -0.07423  -0.07172  -0.06809  -0.06309

 Mulliken charges:
               1
     1  H    0.378350
     2  C    0.234017
     3  C    0.324011
     4  C   -0.130195
     5  C   -0.130195
     6  C    0.324011
 Sum of Mulliken charges =   1.00000

 Dipole moment (field-independent basis, Debye):
    X=             -0.0000    Y=             -0.0000    Z=              2.0377  Tot=              2.0377
 Quadrupole moment (field-independent basis, Debye-Ang):
   XX=            -24.8156   YY=            -24.2560   ZZ=            -18.5914
   XY=             -0.0000   XZ=             -0.0000   YZ=             -0.0000

  Exact polarizability:  47.850  -0.000  44.678   0.000  -0.000  40.748
 Approx polarizability: 138.872   0.000 143.255   0.000  -0.000  84.932

                      1                      2                      3
                     A2                     B2                     A1
 Frequencies --    468.5344               496.3911               529.0382
 Red. masses --     12.0000                 9.0384                10.4060
 Frc consts  --      1.5521                 1.3122                 1.7160
 IR Inten    --      0.0000                41.5968                 0.7140

                      4                      5                      6
                     B1                     A1                     B1
 Frequencies --    548.1377               716.5057               768.4607
 Red. masses --      3.3855                11.8723                 1.7487
 Frc consts  --      0.5993                 3.5911                 0.6084
 IR Inten    --     11.0833                 0.1890                26.8445

                      7                      8                      9
                     B2                     B1                     B2
 Frequencies --    930.5222               938.0437              1034.3046
 Red. masses --      3.7969                 5.0686                 1.4660
 Frc consts  --      1.9370                 2.6278                 0.9240
 IR Inten    --     41.2462                20.2288                 1.1478

                     10                     11                     12
                     A1                     A1                     A1
 Frequencies --   1071.7817              1313.2827              3221.3837
 Red. masses --     10.1816                 7.8091                 1.1063
 Frc consts  --      6.8909                 7.9354                 6.7638
 IR Inten    --      4.0505                 1.9241               165.3699

 - Thermochemistry -
 -------------------
 Temperature   298.150 Kelvin.  Pressure   1.00000 Atm.
 Atom     1 has atomic number  1 and mass   1.00783

 Molecular mass:    61.00783 amu.
 Principal axes and moments of inertia in atomic units:
                           1         2         3
     Eigenvalues --   165.35475 175.59132 182.78527
           X            1.00000   0.00000   0.00000
           Y           -0.00000   0.00000   1.00000
           Z           -0.00000   1.00000  -0.00000
 This molecule is an asymmetric top.
 Rotational symmetry number  2.
 Rotational temperatures (Kelvin)      0.52381     0.49327     0.47386
 Rotational constants (GHZ):          10.91436    10.27808     9.87356
 Zero-point vibrational energy      71993.6 (Joules/Mol)
                                   17.20688 (Kcal/Mol)
 Warning -- explicit consideration of   4 degrees of freedom as
           vibrations may cause significant error
 Vibrational temperatures:    674.12   714.20   761.17   788.65  1030.89
          (Kelvin)           1105.64  1338.81  1349.63  1488.13  1542.05
                             1889.52  4634.85

 Zero-point correction=                           0.027421 (Hartree/Particle)
 Thermal correction to Energy=                    0.031483
 Thermal correction to Enthalpy=                  0.032427
 Thermal correction to Gibbs Free Energy=         0.002235
 Sum of electronic and zero-point Energies=           -190.387411
 Sum of electronic and thermal Energies=              -190.383349
 Sum of electronic and thermal Enthalpies=            -190.382405
 Sum of electronic and thermal Free Energies=         -190.412597

                     E (Thermal)             CV                S
                      KCal/Mol        Cal/Mol-Kelvin    Cal/Mol-Kelvin
 Total                   19.756             14.069             63.545
 Electronic               0.000              0.000              0.000
 Translational            0.889              2.981             38.245
 Rotational               0.889              2.981             21.811
 Vibrational             17.978              8.107              3.489
 Vibration     1          0.826              1.320              0.742
 Vibration     2          0.852              1.258              0.667
 Vibration     3          0.884              1.186              0.589
 Vibration     4          0.903              1.144              0.548

 Optimization completed.
    -- Stationary point found.
 Normal termination of Gaussian 09 at Thu Jul 21 00:56:32 2016.
