 Gaussian 09, Revision E.01,
 Gaussian 09:  EM64L-G09RevE.01 30-Nov-2015

 ---------------------------------------------
 #p b3lyp/6-311++G(3df,2p) freq symmetry=Loose
 ---------------------------------------------

 ---------
 b3lyp opt
 ---------
 Symbolic Z-matrix:
 Charge =  0 Multiplicity = 4

                         Standard orientation:
 ---------------------------------------------------------------------
 Center     Atomic      Atomic             Coordinates (Angstroms)
 Number     Number       Type             X           Y           Z
 ---------------------------------------------------------------------
      1          6           0       -0.192788   -1.023206   -0.225696
      2          6           0       -1.092072    0.036631    0.132488
      3          6           0       -0.122774    1.027813   -0.246702
      4          6           0        0.781814   -0.034859   -0.698867
      5          6           0        0.475291   -0.004547    0.750032
      6          1           0        0.903173   -0.010994    1.732474
 ---------------------------------------------------------------------

 SCF Done:  E(UB3LYP) =  -190.708240327     A.U. after   17 cycles

 The electronic state is 4-A.
 Alpha  occ. eigenvalues --  -10.27559 -10.27191 -10.27138 -10.26396 -10.26386
 Alpha  occ. eigenvalues --   -1.08329  -0.71616  -0.70761  -0.65123  -0.49935
 Alpha  occ. eigenvalues --   -0.46231  -0.41759  -0.37734  -0.34423  -0.34373
 Alpha  occ. eigenvalues --   -0.26472  -0.26419
 Alpha virt. eigenvalues --   -0.01186   0.00215   0.02190   0.02632   0.02771
 Alpha virt. eigenvalues --    0.05629   0.06473   0.06508   0.07127   0.07953
 Alpha virt. eigenvalues --    0.08023   0.08272   0.10144   0.11639   0.11883

  Beta  occ. eigenvalues --  -10.27713 -10.25621 -10.25335 -10.24808 -10.24806
  Beta  occ. eigenvalues --   -1.06172  -0.68242  -0.67248  -0.64130  -0.47938
  Beta  occ. eigenvalues --   -0.43326  -0.33972  -0.32642  -0.31469
  Beta virt. eigenvalues --   -0.20319  -0.11757  -0.11694  -0.00762   0.01813
  Beta virt. eigenvalues --    0.03573   0.03745   0.03809   0.06635   0.07479
  Beta virt. eigenvalues --    0.07704   0.07748   0.08069   0.08297   0.08401

 Mulliken charges and spin densities:
               1          2
     1  C   -0.200023   0.698547
     2  C   -0.156599   0.788074
     3  C   -0.203693   0.702173
     4  C   -0.263151   0.898050
     5  C    0.473286  -0.078163
     6  H    0.350179  -0.008682
 Sum of Mulliken charges =  -0.00000   3.00000

 Dipole moment (field-independent basis, Debye):
    X=              0.8146    Y=             -0.0104    Z=              1.4715  Tot=              1.6820
 Quadrupole moment (field-independent basis, Debye-Ang):
   XX=            -29.5534   YY=            -31.3216   ZZ=            -26.5378
   XY=             -0.0376   XZ=              2.0553   YZ=             -0.0127

  Exact polarizability:  50.956   0.067  53.200  -2.567   0.004  42.184
 Approx polarizability:  90.380   0.067  91.023  -2.638   0.014  68.621

                      1                      2                      3
                      A                      A                      A
 Frequencies --    182.4900               194.4877               569.7679
 Red. masses --     11.7359                11.4528                11.4484
 Frc consts  --      0.2303                 0.2552                 2.1897
 IR Inten    --      0.4035                 0.7919                 1.6183

                      4                      5                      6
                      A                      A                      A
 Frequencies --    847.1698               857.8669               869.7356
 Red. masses --      2.3062                 1.1982                 1.9828
 Frc consts  --      0.9752                 0.5195                 0.8837
 IR Inten    --      1.8079                23.4294                20.6516

                      7                      8                      9
                      A                      A                      A
 Frequencies --   1002.2335              1104.6342              1177.1893
 Red. masses --      7.5251                 7.7978                 8.8579
 Frc consts  --      4.4535                 5.6061                 7.2323
 IR Inten    --      2.7496                 1.3095                 0.2062

                     10                     11                     12
                      A                      A                      A
 Frequencies --   1247.1345              1358.7963              3303.3951
 Red. masses --     10.5964                 9.6852                 1.0999
 Frc consts  --      9.7103                10.5358                 7.0718
 IR Inten    --      4.6001                 2.4877                20.6536

 - Thermochemistry -
 -------------------
 Temperature   298.150 Kelvin.  Pressure   1.00000 Atm.
 Atom     1 has atomic number  6 and mass  12.00000

 Molecular mass:    61.00783 amu.
 Principal axes and moments of inertia in atomic units:
                           1         2         3
     Eigenvalues --   150.45897 153.31739 183.34881
           X            0.98472  -0.00759   0.17396
           Y            0.00814   0.99996  -0.00246
           Z           -0.17393   0.00384   0.98475
 This molecule is an asymmetric top.
 Rotational symmetry number  1.
 Rotational temperatures (Kelvin)      0.57566     0.56493     0.47240
 Rotational constants (GHZ):          11.99491    11.77127     9.84321
 Zero-point vibrational energy      76052.0 (Joules/Mol)
                                   18.17686 (Kcal/Mol)
 Warning -- explicit consideration of   3 degrees of freedom as
           vibrations may cause significant error
 Vibrational temperatures:    262.56   279.82   819.77  1218.89  1234.28
          (Kelvin)           1251.35  1441.99  1589.32  1693.71  1794.35
                             1955.00  4752.84

 Zero-point correction=                           0.028967 (Hartree/Particle)
 Thermal correction to Energy=                    0.033426
 Thermal correction to Enthalpy=                  0.034371
 Thermal correction to Gibbs Free Energy=         0.001252
 Sum of electronic and zero-point Energies=           -190.679274
 Sum of electronic and thermal Energies=              -190.674814
 Sum of electronic and thermal Enthalpies=            -190.673870
 Sum of electronic and thermal Free Energies=         -190.706989

                     E (Thermal)             CV                S
                      KCal/Mol        Cal/Mol-Kelvin    Cal/Mol-Kelvin
 Total                   20.975             13.617             69.704
 Electronic               0.000              0.000              2.755
 Translational            0.889              2.981             38.245
 Rotational               0.889              2.981             22.963
 Vibrational             19.198              7.656              5.741
 Vibration     1          0.630              1.864              2.303
 Vibration     2          0.635              1.848              2.185
 Vibration     3          0.926              1.097              0.505

 Normal termination of Gaussian 09 at Mon Jun 20 14:08:51 2016.
