 Gaussian 09, Revision E.01,
 Gaussian 09:  EM64L-G09RevE.01 30-Nov-2015

 ---------------------------------------------
 #p b3lyp/6-311++G(3df,2p) freq symmetry=Loose
 ---------------------------------------------

 ---------
 b3lyp opt
 ---------
 Symbolic Z-matrix:
 Charge =  3 Multiplicity = 1

                         Standard orientation:
 ---------------------------------------------------------------------
 Center     Atomic      Atomic             Coordinates (Angstroms)
 Number     Number       Type             X           Y           Z
 ---------------------------------------------------------------------
      1          6           0       -0.092635    2.097017    0.000000
      2          6           0        0.513574    0.585357    0.000000
      3          6           0       -0.092635   -0.614540   -0.770745
      4          6           0       -0.509864   -1.564428   -0.000000
      5          6           0       -0.092635   -0.614540    0.770745
      6          1           0        1.645174    0.666815    0.000000
 ---------------------------------------------------------------------

 SCF Done:  E(RB3LYP) =  -188.899054206     A.U. after   13 cycles

 The electronic state is 1-A'.
 Alpha  occ. eigenvalues --  -11.20434 -11.13473 -11.13454 -11.10846 -11.07690
 Alpha  occ. eigenvalues --   -1.82240  -1.56361  -1.41743  -1.36452  -1.27664
 Alpha  occ. eigenvalues --   -1.22025  -1.19241  -1.13907  -1.08808
 Alpha virt. eigenvalues --   -0.97663  -0.93022  -0.90988  -0.86306  -0.79734
 Alpha virt. eigenvalues --   -0.77335  -0.62540  -0.57466  -0.53936  -0.51974
 Alpha virt. eigenvalues --   -0.48934  -0.46258  -0.44071  -0.43745  -0.41936

 Mulliken charges:
               1
     1  C    0.663700
     2  C    0.263290
     3  C    0.734157
     4  C    0.238117
     5  C    0.734157
     6  H    0.366579
 Sum of Mulliken charges =   3.00000

 Dipole moment (field-independent basis, Debye):
    X=              0.3729    Y=              1.7477    Z=              0.0000  Tot=              1.7871
 Quadrupole moment (field-independent basis, Debye-Ang):
   XX=            -14.1519   YY=              9.6716   ZZ=            -15.2534
   XY=              5.4285   XZ=             -0.0000   YZ=             -0.0000

  Exact polarizability:  25.273   4.605  50.505  -0.000  -0.000  27.815
 Approx polarizability:  44.507  16.347 104.452   0.000   0.000  62.795

                      1                      2                      3
                     A'                     A"                     A'
 Frequencies --    265.2838               309.7900               444.9181
 Red. masses --     10.3358                11.3899                10.7243
 Frc consts  --      0.4286                 0.6440                 1.2508
 IR Inten    --      1.9476                 0.5357                53.6671

                      4                      5                      6
                     A"                     A'                     A'
 Frequencies --    519.7735               603.8579               762.6974
 Red. masses --     10.3054                 6.3027                 8.2500
 Frc consts  --      1.6404                 1.3541                 2.8275
 IR Inten    --     10.2197               142.2054                39.9885

                      7                      8                      9
                     A"                     A'                     A'
 Frequencies --   1008.0167              1039.2871              1191.9336
 Red. masses --      1.1777                 4.4815                 1.3776
 Frc consts  --      0.7051                 2.8520                 1.1532
 IR Inten    --     21.0374                15.5230                57.9003

                     10                     11                     12
                     A"                     A'                     A'
 Frequencies --   1524.6984              1803.4302              2668.5278
 Red. masses --     11.9277                11.7809                 1.0843
 Frc consts  --     16.3371                22.5750                 4.5491
 IR Inten    --     20.4213                15.7186               367.7867

 - Thermochemistry -
 -------------------
 Temperature   298.150 Kelvin.  Pressure   1.00000 Atm.
 Atom     1 has atomic number  6 and mass  12.00000

 Molecular mass:    61.00783 amu.
 Principal axes and moments of inertia in atomic units:
                           1         2         3
     Eigenvalues --    76.90239 375.08012 400.00419
           X            0.14868  -0.00000   0.98889
           Y            0.98889  -0.00000  -0.14868
           Z            0.00000   1.00000   0.00000
 This molecule is an asymmetric top.
 Rotational symmetry number  1.
 Rotational temperatures (Kelvin)      1.12628     0.23092     0.21653
 Rotational constants (GHZ):          23.46795     4.81162     4.51181
 Zero-point vibrational energy      72626.6 (Joules/Mol)
                                   17.35817 (Kcal/Mol)
 Warning -- explicit consideration of   5 degrees of freedom as
           vibrations may cause significant error
 Vibrational temperatures:    381.68   445.72   640.14   747.84   868.82
          (Kelvin)           1097.35  1450.31  1495.30  1714.92  2193.70
                             2594.73  3839.41

 Zero-point correction=                           0.027662 (Hartree/Particle)
 Thermal correction to Energy=                    0.032184
 Thermal correction to Enthalpy=                  0.033128
 Thermal correction to Gibbs Free Energy=         0.001044
 Sum of electronic and zero-point Energies=           -188.871392
 Sum of electronic and thermal Energies=              -188.866870
 Sum of electronic and thermal Enthalpies=            -188.865926
 Sum of electronic and thermal Free Energies=         -188.898010

                     E (Thermal)             CV                S
                      KCal/Mol        Cal/Mol-Kelvin    Cal/Mol-Kelvin
 Total                   20.196             14.679             67.527
 Electronic               0.000              0.000              0.000
 Translational            0.889              2.981             38.245
 Rotational               0.889              2.981             23.960
 Vibrational             18.418              8.717              5.322
 Vibration     1          0.671              1.737              1.627
 Vibration     2          0.699              1.655              1.363
 Vibration     3          0.804              1.372              0.811
 Vibration     4          0.875              1.206              0.610
 Vibration     5          0.962              1.024              0.443

 Optimization completed.
    -- Stationary point found.
 Normal termination of Gaussian 09 at Mon Jun 20 14:57:20 2016.
