 Gaussian 09, Revision E.01,
 Gaussian 09:  EM64L-G09RevE.01 30-Nov-2015

 ---------------------------------------------
 #p b3lyp/6-311++G(3df,2p) freq symmetry=Loose
 ---------------------------------------------

 ---------
 b3lyp opt
 ---------
 Symbolic Z-matrix:
 Charge =  3 Multiplicity = 1

                         Standard orientation:
 ---------------------------------------------------------------------
 Center     Atomic      Atomic             Coordinates (Angstroms)
 Number     Number       Type             X           Y           Z
 ---------------------------------------------------------------------
      1          1           0        2.529449    0.159883   -0.000000
      2          6           0        1.441860   -0.149776   -0.000000
      3          6           0        0.403346   -0.931897   -0.000000
      4          6           0       -0.964530   -0.516435    0.000000
      5          6           0       -1.302251    0.733237    0.000000
      6          6           0        0.000000    0.838225    0.000000
 ---------------------------------------------------------------------

 SCF Done:  E(RB3LYP) =  -188.942419198     A.U. after   13 cycles

 The electronic state is 1-A'.
 Alpha  occ. eigenvalues --  -11.19930 -11.19771 -11.15052 -11.13996 -11.09237
 Alpha  occ. eigenvalues --   -1.84790  -1.64643  -1.48726  -1.39158  -1.29159
 Alpha  occ. eigenvalues --   -1.27306  -1.26405  -1.19481  -1.09898
 Alpha virt. eigenvalues --   -1.01128  -0.94685  -0.92858  -0.81652  -0.79400
 Alpha virt. eigenvalues --   -0.74422  -0.72572  -0.58425  -0.54053  -0.50403
 Alpha virt. eigenvalues --   -0.46045  -0.44200  -0.43962  -0.42832  -0.41945

 Mulliken charges:
               1
     1  H    0.469270
     2  C    0.352397
     3  C    0.679806
     4  C    0.364094
     5  C    0.848053
     6  C    0.286381
 Sum of Mulliken charges =   3.00000

 Dipole moment (field-independent basis, Debye):
    X=              0.5989    Y=              0.1831    Z=             -0.0000  Tot=              0.6263
 Quadrupole moment (field-independent basis, Debye-Ang):
   XX=              7.7478   YY=             -8.7128   ZZ=            -20.8261
   XY=             -2.9017   XZ=             -0.0000   YZ=              0.0000

  Exact polarizability:  44.369  -4.091  31.703  -0.000  -0.000  19.104
 Approx polarizability: 101.290 -10.817  85.028  -0.000   0.000  27.070

                      1                      2                      3
                     A'                     A"                     A"
 Frequencies --    183.5330               205.8841               342.0948
 Red. masses --      9.7982                 6.2529                 8.5273
 Frc consts  --      0.1945                 0.1562                 0.5880
 IR Inten    --     30.8025                50.0058                 0.1861

                      4                      5                      6
                     A'                     A'                     A"
 Frequencies --    447.4878               526.5823               752.0561
 Red. masses --      9.6634                11.2754                 1.3179
 Frc consts  --      1.1401                 1.8421                 0.4392
 IR Inten    --      8.7143                21.2155                57.6983

                      7                      8                      9
                     A'                     A'                     A'
 Frequencies --    915.2081              1090.1233              1412.3945
 Red. masses --      1.1533                 8.8190                11.5828
 Frc consts  --      0.5692                 6.1747                13.6137
 IR Inten    --     27.5636                24.8638                24.8322

                     10                     11                     12
                     A'                     A'                     A'
 Frequencies --   1653.9430              1731.8693              2779.0783
 Red. masses --      6.2423                11.5309                 1.1562
 Frc consts  --     10.0608                20.3771                 5.2613
 IR Inten    --    131.2769                40.0135               689.7297

 - Thermochemistry -
 -------------------
 Temperature   298.150 Kelvin.  Pressure   1.00000 Atm.
 Atom     1 has atomic number  1 and mass   1.00783

 Molecular mass:    61.00783 amu.
 Principal axes and moments of inertia in atomic units:
                           1         2         3
     Eigenvalues --    89.49482 244.60725 334.10208
           X            0.95600   0.29336   0.00000
           Y           -0.29336   0.95600   0.00000
           Z           -0.00000   0.00000   1.00000
 This molecule is an asymmetric top.
 Rotational symmetry number  1.
 Rotational temperatures (Kelvin)      0.96781     0.35409     0.25924
 Rotational constants (GHZ):          20.16587     7.37812     5.40177
 Zero-point vibrational energy      72016.7 (Joules/Mol)
                                   17.21241 (Kcal/Mol)
 Warning -- explicit consideration of   5 degrees of freedom as
           vibrations may cause significant error
 Vibrational temperatures:    264.06   296.22   492.20   643.83   757.63
          (Kelvin)           1082.04  1316.78  1568.44  2032.12  2379.65
                             2491.77  3998.47

 Zero-point correction=                           0.027430 (Hartree/Particle)
 Thermal correction to Energy=                    0.032424
 Thermal correction to Enthalpy=                  0.033368
 Thermal correction to Gibbs Free Energy=         0.000490
 Sum of electronic and zero-point Energies=           -188.914989
 Sum of electronic and thermal Energies=              -188.909995
 Sum of electronic and thermal Enthalpies=            -188.909051
 Sum of electronic and thermal Free Energies=         -188.941930

                     E (Thermal)             CV                S
                      KCal/Mol        Cal/Mol-Kelvin    Cal/Mol-Kelvin
 Total                   20.346             15.483             69.199
 Electronic               0.000              0.000              0.000
 Translational            0.889              2.981             38.245
 Rotational               0.889              2.981             23.507
 Vibrational             18.569              9.522              7.447
 Vibration     1          0.631              1.862              2.292
 Vibration     2          0.640              1.832              2.080
 Vibration     3          0.721              1.591              1.202
 Vibration     4          0.807              1.366              0.803
 Vibration     5          0.882              1.191              0.595

 Optimization completed.
    -- Stationary point found.
 Normal termination of Gaussian 09 at Mon Jun 20 15:07:38 2016.
