 Gaussian 09, Revision E.01,
 Gaussian 09:  EM64L-G09RevE.01 30-Nov-2015

 ---------------------------------------------
 #p b3lyp/6-311++G(3df,2p) freq symmetry=Loose
 ---------------------------------------------

 ---------
 b3lyp opt
 ---------
 Symbolic Z-matrix:
 Charge =  2 Multiplicity = 4

                         Standard orientation:
 ---------------------------------------------------------------------
 Center     Atomic      Atomic             Coordinates (Angstroms)
 Number     Number       Type             X           Y           Z
 ---------------------------------------------------------------------
      1          6           0        0.010106    1.924792    0.000000
      2          6           0        0.000000    0.563698    0.000000
      3          6           0       -0.793218   -0.639984    0.000000
      4          6           0        0.042364   -1.724570    0.000000
      5          6           0        0.830188   -0.603342    0.000000
      6          1           0       -0.536642    2.876435    0.000000
 ---------------------------------------------------------------------

 SCF Done:  E(UB3LYP) =  -189.857685767     A.U. after   17 cycles

 The electronic state is 4-A".
 Alpha  occ. eigenvalues --  -10.83791 -10.83526 -10.83217 -10.83073 -10.81020
 Alpha  occ. eigenvalues --   -1.55219  -1.34227  -1.20813  -1.11267  -1.03336
 Alpha  occ. eigenvalues --   -0.99008  -0.98282  -0.89960  -0.83647  -0.81492
 Alpha  occ. eigenvalues --   -0.79381
 Alpha virt. eigenvalues --   -0.61903  -0.61032  -0.56465  -0.43848  -0.36094
 Alpha virt. eigenvalues --   -0.33355  -0.30058  -0.28514  -0.27560  -0.26644
 Alpha virt. eigenvalues --   -0.24053  -0.23129  -0.22107  -0.21348  -0.20563

  Beta  occ. eigenvalues --  -10.83149 -10.82662 -10.82644 -10.81140 -10.78788
  Beta  occ. eigenvalues --   -1.54052  -1.29475  -1.16639  -1.09323  -1.01008
  Beta  occ. eigenvalues --   -0.96711  -0.94820  -0.82981
  Beta virt. eigenvalues --   -0.71328  -0.66442  -0.62378  -0.59980  -0.54372
  Beta virt. eigenvalues --   -0.52077  -0.38248  -0.33441  -0.32825  -0.28523
  Beta virt. eigenvalues --   -0.27258  -0.27214  -0.25407  -0.23298  -0.21868

 Mulliken charges and spin densities:
               1          2
     1  C   -0.428859   1.186345
     2  C    0.056589   0.279834
     3  C    1.245435   0.292777
     4  C   -0.490109   1.020687
     5  C    1.216285   0.235236
     6  H    0.400658  -0.014879
 Sum of Mulliken charges =   2.00000   3.00000

 Dipole moment (field-independent basis, Debye):
    X=             -0.5110    Y=              2.5285    Z=              0.0000  Tot=              2.5796
 Quadrupole moment (field-independent basis, Debye-Ang):
   XX=            -20.4549   YY=              5.4269   ZZ=            -21.6284
   XY=             -2.4162   XZ=              0.0000   YZ=              0.0000

  Exact polarizability:  33.595  -0.975  65.128   0.000  -0.001  21.821
 Approx polarizability:  79.051   0.680 121.830  -0.000  -0.000  33.306

                      1                      2                      3
                     A"                     A'                     A'
 Frequencies --    247.9501               350.7179               524.6456
 Red. masses --      5.5403                 2.0214                 2.1431
 Frc consts  --      0.2007                 0.1465                 0.3476
 IR Inten    --      2.8857                26.2914                31.2878

                      4                      5                      6
                     A"                     A'                     A"
 Frequencies --    574.7317               617.2890               725.7452
 Red. masses --      5.5401                 8.7960                 1.4444
 Frc consts  --      1.0782                 1.9748                 0.4482
 IR Inten    --      6.2920                57.2346                12.3113

                      7                      8                      9
                     A'                     A'                     A'
 Frequencies --    772.0996               957.2815              1175.2958
 Red. masses --     10.6695                 8.7952                11.9706
 Frc consts  --      3.7475                 4.7487                 9.7423
 IR Inten    --     19.7764                19.5604                 3.4627

                     10                     11                     12
                     A'                     A'                     A'
 Frequencies --   1502.5705              1586.9774              3088.8295
 Red. masses --     11.9311                 8.4987                 1.1093
 Frc consts  --     15.8708                12.6109                 6.2359
 IR Inten    --    177.7398                 2.7667               396.0088

 - Thermochemistry -
 -------------------
 Temperature   298.150 Kelvin.  Pressure   1.00000 Atm.
 Atom     1 has atomic number  6 and mass  12.00000

 Molecular mass:    61.00783 amu.
 Principal axes and moments of inertia in atomic units:
                           1         2         3
     Eigenvalues --    57.41531 362.46414 419.87945
           X           -0.02451   0.99970   0.00000
           Y            0.99970   0.02451   0.00000
           Z           -0.00000   0.00000   1.00000
 This molecule is an asymmetric top.
 Rotational symmetry number  1.
 Rotational temperatures (Kelvin)      1.50855     0.23896     0.20628
 Rotational constants (GHZ):          31.43310     4.97909     4.29824
 Zero-point vibrational energy      72518.4 (Joules/Mol)
                                   17.33232 (Kcal/Mol)
 Warning -- explicit consideration of   5 degrees of freedom as
           vibrations may cause significant error
 Vibrational temperatures:    356.74   504.60   754.85   826.91   888.14
          (Kelvin)           1044.18  1110.88  1377.31  1690.99  2161.86
                             2283.30  4444.13

 Zero-point correction=                           0.027621 (Hartree/Particle)
 Thermal correction to Energy=                    0.032095
 Thermal correction to Enthalpy=                  0.033039
 Thermal correction to Gibbs Free Energy=        -0.000122
 Sum of electronic and zero-point Energies=           -189.830065
 Sum of electronic and thermal Energies=              -189.825591
 Sum of electronic and thermal Enthalpies=            -189.824647
 Sum of electronic and thermal Free Energies=         -189.857807

                     E (Thermal)             CV                S
                      KCal/Mol        Cal/Mol-Kelvin    Cal/Mol-Kelvin
 Total                   20.140             14.834             69.792
 Electronic               0.000              0.000              2.755
 Translational            0.889              2.981             38.245
 Rotational               0.889              2.981             23.684
 Vibrational             18.362              8.873              5.108
 Vibration     1          0.662              1.766              1.745
 Vibration     2          0.728              1.574              1.163
 Vibration     3          0.880              1.195              0.599
 Vibration     4          0.931              1.086              0.495
 Vibration     5          0.977              0.995              0.421

 Optimization completed.
    -- Stationary point found.
 Normal termination of Gaussian 09 at Mon Jun 20 14:50:20 2016.
