 Gaussian 09, Revision E.01,
 Gaussian 09:  EM64L-G09RevE.01 30-Nov-2015

 ---------------------------------------------
 #p b3lyp/6-311++G(3df,2p) freq symmetry=Loose
 ---------------------------------------------

 ---------
 b3lyp opt
 ---------
 Symbolic Z-matrix:
 Charge =  2 Multiplicity = 2

                         Standard orientation:
 ---------------------------------------------------------------------
 Center     Atomic      Atomic             Coordinates (Angstroms)
 Number     Number       Type             X           Y           Z
 ---------------------------------------------------------------------
      1          1           0        0.000000   -0.000000    3.129554
      2          6           0        0.000000   -0.000000    2.039464
      3          6           0        0.000000   -0.000000    0.794946
      4          6           0        0.000000    0.000000   -0.612937
      5          6           0        0.000000    1.194270   -1.371533
      6          6           0       -0.000000   -1.194270   -1.371533
 ---------------------------------------------------------------------

 SCF Done:  E(UB3LYP) =  -189.826648387     A.U. after   22 cycles

 The electronic state is 2-B2.
 Alpha  occ. eigenvalues --  -10.86270 -10.86269 -10.76520 -10.75917 -10.75631
 Alpha  occ. eigenvalues --   -1.39418  -1.29964  -1.18303  -1.13342  -1.00805
 Alpha  occ. eigenvalues --   -0.89361  -0.86613  -0.85428  -0.80801  -0.78890
 Alpha virt. eigenvalues --   -0.67268  -0.64253  -0.61246  -0.53314  -0.49664
 Alpha virt. eigenvalues --   -0.38689  -0.34085  -0.31769  -0.27804  -0.25814
 Alpha virt. eigenvalues --   -0.25485  -0.24499  -0.22585  -0.20874  -0.20492

  Beta  occ. eigenvalues --  -10.86105 -10.86104 -10.75867 -10.75613 -10.75229
  Beta  occ. eigenvalues --   -1.38724  -1.26901  -1.17587  -1.12577  -1.00066
  Beta  occ. eigenvalues --   -0.89104  -0.83879  -0.82318  -0.78140
  Beta virt. eigenvalues --   -0.70872  -0.67177  -0.64104  -0.60636  -0.52912
  Beta virt. eigenvalues --   -0.44690  -0.38217  -0.33400  -0.30912  -0.27399
  Beta virt. eigenvalues --   -0.25779  -0.24954  -0.24123  -0.22422  -0.20811

 Mulliken charges and spin densities:
               1          2
     1  H    0.446481  -0.013034
     2  C    0.474327   0.324588
     3  C   -0.652029   0.467803
     4  C    1.174052  -0.035415
     5  C    0.278585   0.128029
     6  C    0.278585   0.128029
 Sum of Mulliken charges =   2.00000   1.00000

 Dipole moment (field-independent basis, Debye):
    X=             -0.0000    Y=             -0.0000    Z=              1.7597  Tot=              1.7597
 Quadrupole moment (field-independent basis, Debye-Ang):
   XX=            -24.0545   YY=            -17.3110   ZZ=              8.4182
   XY=              0.0000   XZ=              0.0000   YZ=             -0.0000

  Exact polarizability:  25.897   0.000  47.417   0.000   0.000  83.770
 Approx polarizability:  38.499   0.000 127.424   0.000   0.000 157.845

                      1                      2                      3
                     B2                     B1                     A1
 Frequencies --    206.5104               235.1581               327.1969
 Red. masses --      4.8591                 6.2552                11.0994
 Frc consts  --      0.1221                 0.2038                 0.7001
 IR Inten    --      1.0432                 6.5019                 4.7994

                      4                      5                      6
                     B1                     B2                     B1
 Frequencies --    442.4737               502.3137               717.3049
 Red. masses --      9.7512                 6.6158                 1.2466
 Frc consts  --      1.1248                 0.9835                 0.3779
 IR Inten    --      5.2417                33.9066                39.4862

                      7                      8                      9
                     B2                     A1                     A1
 Frequencies --    794.8181               805.9130              1233.6763
 Red. masses --      1.3788                 9.5445                10.6241
 Frc consts  --      0.5132                 3.6524                 9.5268
 IR Inten    --      9.6257                 3.1622               218.8686

                     10                     11                     12
                     B2                     A1                     A1
 Frequencies --   1265.2276              2031.4375              3196.9075
 Red. masses --     11.9494                 6.0895                 1.1664
 Frc consts  --     11.2703                14.8061                 7.0235
 IR Inten    --    383.6624               165.0408               357.2466

 - Thermochemistry -
 -------------------
 Temperature   298.150 Kelvin.  Pressure   1.00000 Atm.
 Atom     1 has atomic number  1 and mass   1.00783

 Molecular mass:    61.00783 amu.
 Principal axes and moments of inertia in atomic units:
                           1         2         3
     Eigenvalues --   122.24019 417.32788 539.56808
           X            0.00000   0.00000   1.00000
           Y            0.00000   1.00000   0.00000
           Z            1.00000   0.00000   0.00000
 This molecule is an asymmetric top.
 Rotational symmetry number  2.
 Rotational temperatures (Kelvin)      0.70855     0.20754     0.16052
 Rotational constants (GHZ):          14.76389     4.32452     3.34479
 Zero-point vibrational energy      70334.1 (Joules/Mol)
                                   16.81025 (Kcal/Mol)
 Warning -- explicit consideration of   5 degrees of freedom as
           vibrations may cause significant error
 Vibrational temperatures:    297.12   338.34   470.76   636.62   722.72
          (Kelvin)           1032.04  1143.56  1159.53  1774.98  1820.38
                             2922.78  4599.63

 Zero-point correction=                           0.026789 (Hartree/Particle)
 Thermal correction to Energy=                    0.031850
 Thermal correction to Enthalpy=                  0.032794
 Thermal correction to Gibbs Free Energy=        -0.000701
 Sum of electronic and zero-point Energies=           -189.799860
 Sum of electronic and thermal Energies=              -189.794798
 Sum of electronic and thermal Enthalpies=            -189.793854
 Sum of electronic and thermal Free Energies=         -189.827349

                     E (Thermal)             CV                S
                      KCal/Mol        Cal/Mol-Kelvin    Cal/Mol-Kelvin
 Total                   19.986             16.280             70.497
 Electronic               0.000              0.000              1.377
 Translational            0.889              2.981             38.245
 Rotational               0.889              2.981             23.447
 Vibrational             18.209             10.318              7.428
 Vibration     1          0.641              1.831              2.074
 Vibration     2          0.655              1.787              1.839
 Vibration     3          0.711              1.621              1.274
 Vibration     4          0.802              1.377              0.819
 Vibration     5          0.858              1.245              0.652

 Optimization completed.
    -- Stationary point found.
 Normal termination of Gaussian 09 at Mon Jun 20 14:39:45 2016.
