 Gaussian 09, Revision E.01,
 Gaussian 09:  EM64L-G09RevE.01 30-Nov-2015

 ---------------------------------------------
 #p b3lyp/6-311++G(3df,2p) freq symmetry=Loose
 ---------------------------------------------

 ---------
 b3lyp opt
 ---------
 Symbolic Z-matrix:
 Charge =  3 Multiplicity = 3

                         Standard orientation:
 ---------------------------------------------------------------------
 Center     Atomic      Atomic             Coordinates (Angstroms)
 Number     Number       Type             X           Y           Z
 ---------------------------------------------------------------------
      1          6           0       -0.000000    0.000000    1.916543
      2          6           0       -0.000000    0.000000    0.526793
      3          6           0       -0.858517    0.000000   -0.611681
      4          6           0        0.000000    0.000000   -1.731764
      5          6           0        0.858517   -0.000000   -0.611681
      6          1           0       -0.000000    0.000000    3.070745
 ---------------------------------------------------------------------

 SCF Done:  E(UB3LYP) =  -188.979077480     A.U. after   16 cycles

 The electronic state is 3-B2.
 Alpha  occ. eigenvalues --  -11.18919 -11.12066 -11.11158 -11.10160 -11.10153
 Alpha  occ. eigenvalues --   -1.79230  -1.61360  -1.45567  -1.37397  -1.31738
 Alpha  occ. eigenvalues --   -1.24337  -1.22465  -1.13395  -1.10630  -1.05517
 Alpha virt. eigenvalues --   -0.96681  -0.89403  -0.86409  -0.82400  -0.69125
 Alpha virt. eigenvalues --   -0.65754  -0.55141  -0.53583  -0.49923  -0.47669
 Alpha virt. eigenvalues --   -0.45056  -0.44952  -0.44338  -0.41902  -0.39187

  Beta  occ. eigenvalues --  -11.17752 -11.10922 -11.09837 -11.09827 -11.09536
  Beta  occ. eigenvalues --   -1.78196  -1.58393  -1.42824  -1.36477  -1.30452
  Beta  occ. eigenvalues --   -1.23026  -1.19438  -1.06894
  Beta virt. eigenvalues --   -0.98158  -0.95105  -0.89699  -0.85217  -0.82151
  Beta virt. eigenvalues --   -0.80625  -0.64486  -0.63854  -0.53834  -0.53080
  Beta virt. eigenvalues --   -0.49356  -0.46841  -0.44469  -0.43571  -0.43459

 Mulliken charges and spin densities:
               1          2
     1  C    0.038281   0.517302
     2  C   -0.133149   0.049207
     3  C    1.398295   0.201700
     4  C   -0.246425   1.046341
     5  C    1.398295   0.201700
     6  H    0.544702  -0.016250
 Sum of Mulliken charges =   3.00000   2.00000

 Dipole moment (field-independent basis, Debye):
    X=             -0.0000    Y=             -0.0000    Z=              5.4087  Tot=              5.4087
 Quadrupole moment (field-independent basis, Debye-Ang):
   XX=            -16.3299   YY=            -20.0452   ZZ=             25.1468
   XY=             -0.0000   XZ=              0.0000   YZ=              0.0000

  Exact polarizability:  34.925   0.000  19.982   0.000   0.000  59.565
 Approx polarizability:  98.863  -0.000  29.701   0.000  -0.000 118.946

                      1                      2                      3
                     B1                     B2                     B1
 Frequencies --    241.1460               252.5904               432.7418
 Red. masses --      4.0075                 5.3685                 4.9869
 Frc consts  --      0.1373                 0.2018                 0.5502
 IR Inten    --     43.2100                11.7334                27.3116

                      4                      5                      6
                     B2                     A1                     B2
 Frequencies --    529.0382               536.0651               566.9415
 Red. masses --      1.2828                10.4500                11.0686
 Frc consts  --      0.2115                 1.7693                 2.0961
 IR Inten    --     52.9665                54.6406                 0.0425

                      7                      8                      9
                     A1                     B1                     B1
 Frequencies --    902.5405               933.4554              1170.9181
 Red. masses --      7.4293                 1.6469                10.4978
 Frc consts  --      3.5656                 0.8455                 8.4801
 IR Inten    --     49.6157                23.7053                 7.3316

                     10                     11                     12
                     A1                     A1                     A1
 Frequencies --   1337.1794              1495.8900              2575.1276
 Red. masses --     11.4275                 9.5052                 1.1267
 Frc consts  --     12.0388                12.5318                 4.4021
 IR Inten    --    376.9298                 5.3946               975.6723

 - Thermochemistry -
 -------------------
 Temperature   298.150 Kelvin.  Pressure   1.00000 Atm.
 Atom     1 has atomic number  6 and mass  12.00000

 Molecular mass:    61.00783 amu.
 Principal axes and moments of inertia in atomic units:
                           1         2         3
     Eigenvalues --    63.16948 363.27247 426.44195
           X            0.00000   1.00000  -0.00000
           Y            0.00000   0.00000   1.00000
           Z            1.00000   0.00000  -0.00000
 This molecule is an asymmetric top.
 Rotational symmetry number  2.
 Rotational temperatures (Kelvin)      1.37113     0.23843     0.20311
 Rotational constants (GHZ):          28.56983     4.96801     4.23209
 Zero-point vibrational energy      65636.9 (Joules/Mol)
                                   15.68760 (Kcal/Mol)
 Warning -- explicit consideration of   6 degrees of freedom as
           vibrations may cause significant error
 Vibrational temperatures:    346.95   363.42   622.62   761.17   771.28
          (Kelvin)            815.70  1298.55  1343.03  1684.69  1923.90
                             2152.25  3705.03

 Zero-point correction=                           0.025000 (Hartree/Particle)
 Thermal correction to Energy=                    0.029809
 Thermal correction to Enthalpy=                  0.030753
 Thermal correction to Gibbs Free Energy=        -0.002135
 Sum of electronic and zero-point Energies=           -188.954078
 Sum of electronic and thermal Energies=              -188.949269
 Sum of electronic and thermal Enthalpies=            -188.948324
 Sum of electronic and thermal Free Energies=         -188.981213

                     E (Thermal)             CV                S
                      KCal/Mol        Cal/Mol-Kelvin    Cal/Mol-Kelvin
 Total                   18.705             15.740             69.220
 Electronic               0.000              0.000              2.183
 Translational            0.889              2.981             38.245
 Rotational               0.889              2.981             22.419
 Vibrational             16.928              9.779              6.372
 Vibration     1          0.658              1.777              1.794
 Vibration     2          0.664              1.758              1.712
 Vibration     3          0.794              1.399              0.850
 Vibration     4          0.884              1.186              0.589
 Vibration     5          0.891              1.170              0.574
 Vibration     6          0.923              1.103              0.510

 Optimization completed.
    -- Stationary point found.
 Normal termination of Gaussian 09 at Wed Jul 20 20:50:41 2016.
