 Gaussian 09, Revision E.01,
 Gaussian 09:  EM64L-G09RevE.01 30-Nov-2015

 ---------------------------------------------
 #p b3lyp/6-311++G(3df,2p) freq symmetry=Loose
 ---------------------------------------------

 ---------
 b3lyp opt
 ---------
 Symbolic Z-matrix:
 Charge =  1 Multiplicity = 3

                         Standard orientation:
 ---------------------------------------------------------------------
 Center     Atomic      Atomic             Coordinates (Angstroms)
 Number     Number       Type             X           Y           Z
 ---------------------------------------------------------------------
      1          1           0        0.000000    0.000000    3.236160
      2          6           0        0.000000    0.000000    2.165228
      3          6           0        0.000000    0.000000    0.955063
      4          6           0        0.000000   -0.000000   -0.394107
      5          6           0        0.000000    0.674765   -1.632772
      6          6           0       -0.000000   -0.674765   -1.632772
 ---------------------------------------------------------------------

 SCF Done:  E(UB3LYP) =  -190.541087035     A.U. after   16 cycles

 The electronic state is 3-B2.
 Alpha  occ. eigenvalues --  -10.55273 -10.55193 -10.54774 -10.46341 -10.43913
 Alpha  occ. eigenvalues --   -1.23732  -1.04119  -0.93051  -0.80351  -0.76990
 Alpha  occ. eigenvalues --   -0.73250  -0.68288  -0.61722  -0.59399  -0.55401
 Alpha  occ. eigenvalues --   -0.51526
 Alpha virt. eigenvalues --   -0.34069  -0.29446  -0.23071  -0.14488  -0.13550
 Alpha virt. eigenvalues --   -0.12297  -0.10748  -0.10585  -0.10045  -0.07008
 Alpha virt. eigenvalues --   -0.06688  -0.06414  -0.05236  -0.04815  -0.03086

  Beta  occ. eigenvalues --  -10.54428 -10.53523 -10.53460 -10.46038 -10.44012
  Beta  occ. eigenvalues --   -1.21395  -1.03632  -0.92027  -0.76482  -0.74089
  Beta  occ. eigenvalues --   -0.69409  -0.67335  -0.54953  -0.54788
  Beta virt. eigenvalues --   -0.44314  -0.39402  -0.33176  -0.26006  -0.21052
  Beta virt. eigenvalues --   -0.14146  -0.13368  -0.11821  -0.10118  -0.10109
  Beta virt. eigenvalues --   -0.10003  -0.06599  -0.06237  -0.05294  -0.04688

 Mulliken charges and spin densities:
               1          2
     1  H    0.370417  -0.005684
     2  C    0.441704   0.108953
     3  C   -0.264453   0.037401
     4  C    0.193378  -0.092260
     5  C    0.129478   0.975795
     6  C    0.129478   0.975795
 Sum of Mulliken charges =   1.00000   2.00000

 Dipole moment (field-independent basis, Debye):
    X=             -0.0000    Y=             -0.0000    Z=              0.8369  Tot=              0.8369
 Quadrupole moment (field-independent basis, Debye-Ang):
   XX=            -25.1254   YY=            -24.0752   ZZ=             -3.8170
   XY=             -0.0000   XZ=              0.0000   YZ=             -0.0000

  Exact polarizability:  27.524   0.000  37.849  -0.000  -0.000  90.810
 Approx polarizability:  39.811   0.000  68.718   0.000   0.000 189.507

                      1                      2                      3
                     B2                     B1                     B2
 Frequencies --    196.5180               203.8047               505.4766
 Red. masses --      5.3411                 4.7387                 8.8429
 Frc consts  --      0.1215                 0.1160                 1.3312
 IR Inten    --      7.8364                 7.9507                 1.3341

                      4                      5                      6
                     B1                     B2                     A1
 Frequencies --    567.3077               728.1029               756.9355
 Red. masses --      9.7722                 1.2844                 9.0777
 Frc consts  --      1.8530                 0.4012                 3.0644
 IR Inten    --      3.8800                30.5768                 0.0350

                      7                      8                      9
                     B1                     B2                     A1
 Frequencies --    818.2679              1027.7673              1344.7135
 Red. masses --      1.3133                11.8834                11.1648
 Frc consts  --      0.5181                 7.3957                11.8949
 IR Inten    --     18.2315                26.7006                43.0980

                     10                     11                     12
                     A1                     A1                     A1
 Frequencies --   1651.9807              2156.4925              3384.7135
 Red. masses --     11.0958                 6.2294                 1.1626
 Frc consts  --     17.8410                17.0683                 7.8471
 IR Inten    --    114.9032               619.2666               106.1593

 - Thermochemistry -
 -------------------
 Temperature   298.150 Kelvin.  Pressure   1.00000 Atm.
 Atom     1 has atomic number  1 and mass   1.00783

 Molecular mass:    61.00783 amu.
 Principal axes and moments of inertia in atomic units:
                           1         2         3
     Eigenvalues --    39.02241 512.22103 551.24344
           X            0.00000  -0.00000   1.00000
           Y            0.00000   1.00000   0.00000
           Z            1.00000  -0.00000   0.00000
 This molecule is an asymmetric top.
 Rotational symmetry number  2.
 Rotational temperatures (Kelvin)      2.21959     0.16909     0.15712
 Rotational constants (GHZ):          46.24884     3.52336     3.27395
 Zero-point vibrational energy      79803.4 (Joules/Mol)
                                   19.07346 (Kcal/Mol)
 Warning -- explicit consideration of   4 degrees of freedom as
           vibrations may cause significant error
 Vibrational temperatures:    282.75   293.23   727.27   816.23  1047.58
          (Kelvin)           1089.06  1177.30  1478.73  1934.74  2376.83
                             3102.71  4869.84

 Zero-point correction=                           0.030395 (Hartree/Particle)
 Thermal correction to Energy=                    0.035060
 Thermal correction to Enthalpy=                  0.036004
 Thermal correction to Gibbs Free Energy=         0.003121
 Sum of electronic and zero-point Energies=           -190.510692
 Sum of electronic and thermal Energies=              -190.506027
 Sum of electronic and thermal Enthalpies=            -190.505083
 Sum of electronic and thermal Free Energies=         -190.537966

                     E (Thermal)             CV                S
                      KCal/Mol        Cal/Mol-Kelvin    Cal/Mol-Kelvin
 Total                   22.001             14.628             69.209
 Electronic               0.000              0.000              2.183
 Translational            0.889              2.981             38.245
 Rotational               0.889              2.981             22.537
 Vibrational             20.223              8.666              6.244
 Vibration     1          0.636              1.845              2.165
 Vibration     2          0.639              1.834              2.098
 Vibration     3          0.861              1.238              0.645
 Vibration     4          0.923              1.102              0.509

 Optimization completed.
    -- Stationary point found.
 Normal termination of Gaussian 09 at Mon Jun 20 14:29:49 2016.
