 Gaussian 09, Revision E.01,
 Gaussian 09:  EM64L-G09RevE.01 30-Nov-2015

 ---------------------------------------------
 #p b3lyp/6-311++G(3df,2p) freq symmetry=Loose
 ---------------------------------------------

 ---------
 b3lyp opt
 ---------
 Symbolic Z-matrix:
 Charge =  3 Multiplicity = 1

                         Standard orientation:
 ---------------------------------------------------------------------
 Center     Atomic      Atomic             Coordinates (Angstroms)
 Number     Number       Type             X           Y           Z
 ---------------------------------------------------------------------
      1          6           0       -0.000000    0.000000    1.372130
      2          6           0        0.000000   -0.000000   -2.527757
      3          6           0        0.000000   -0.000000   -1.222988
      4          6           0       -0.000000    0.000000    0.079969
      5          6           0       -0.000000    0.000000    2.907978
      6          1           0        0.000000   -0.000000   -3.655996
 ---------------------------------------------------------------------

 SCF Done:  E(RB3LYP) =  -189.065105513     A.U. after   14 cycles

 Unable to determine electronic state:  an orbital has unidentified symmetry.
 Alpha  occ. eigenvalues --  -11.11618 -11.07074 -11.03546 -11.02505 -11.01188
 Alpha  occ. eigenvalues --   -1.58120  -1.52591  -1.44511  -1.37972  -1.23807
 Alpha  occ. eigenvalues --   -1.10750  -1.10079  -1.04389  -1.01867
 Alpha virt. eigenvalues --   -0.96833  -0.86755  -0.86109  -0.74784  -0.74476
 Alpha virt. eigenvalues --   -0.60202  -0.58423  -0.58319  -0.54373  -0.50297
 Alpha virt. eigenvalues --   -0.46432  -0.41103  -0.40713  -0.40298  -0.37450

 Mulliken charges:
               1
     1  C    0.995644
     2  C    0.573001
     3  C    0.481309
     4  C   -0.080245
     5  C    0.517932
     6  H    0.512360
 Sum of Mulliken charges =   3.00000

 Dipole moment (field-independent basis, Debye):
    X=              0.0000    Y=             -0.0000    Z=             -2.4082  Tot=              2.4082
 Quadrupole moment (field-independent basis, Debye-Ang):
   XX=            -21.7847   YY=            -18.7943   ZZ=             61.0209
   XY=              0.0000   XZ=             -0.0000   YZ=              0.0000

  Exact polarizability:  21.973  -0.000  21.430   0.000   0.000 120.419
 Approx polarizability:  31.124  -0.000  32.715  -0.000   0.000 375.114

                      1                      2                      3
                     ?A                     ?A                     ?A
 Frequencies --    119.5314               133.6298               248.1849
 Red. masses --      6.7981                 6.7223                 5.4454
 Frc consts  --      0.0572                 0.0707                 0.1976
 IR Inten    --      5.9727                15.0696                24.2977

                      4                      5                      6
                     ?A                     ?A                     ?A
 Frequencies --    267.5341               493.0760               589.7075
 Red. masses --      6.8263                 5.6850                 9.3562
 Frc consts  --      0.2879                 0.8143                 1.9170
 IR Inten    --      8.3091                 0.0781                 8.6228

                      7                      8                      9
                     SG                     ?A                     ?A
 Frequencies --    628.5936               710.3472               903.3075
 Red. masses --     10.4149                 1.2977                 1.5013
 Frc consts  --      2.4246                 0.3858                 0.7218
 IR Inten    --    300.5706                36.8657                 7.6311

                     10                     11                     12
                     SG                     SG                     SG
 Frequencies --   1029.4964              1628.5218              1998.0988
 Red. masses --      8.1309                 8.8754                 7.6225
 Frc consts  --      5.0774                13.8683                17.9301
 IR Inten    --   1047.0131                 5.8181               818.9347

                     13
                     SG
 Frequencies --   2837.9540
 Red. masses --      1.1797
 Frc consts  --      5.5979
 IR Inten    --    671.9943

 - Thermochemistry -
 -------------------
 Temperature   298.150 Kelvin.  Pressure   1.00000 Atm.
 Atom     1 has atomic number  6 and mass  12.00000

 Molecular mass:    61.00783 amu.
 Principal axes and moments of inertia in atomic units:
                           1         2         3
     Eigenvalues --     0.00000 828.57246 828.57246
           X           -0.00000  -0.65601   0.75475
           Y            0.00000   0.75475   0.65601
           Z            1.00000  -0.00000   0.00000
 This molecule is a prolate symmetric top.
 Rotational symmetry number  1.
 Warning -- assumption of classical behavior for rotation
           may cause significant error
 Rotational temperature (Kelvin)      0.10453
 Rotational constant (GHZ):           2.178133
 Zero-point vibrational energy      69311.5 (Joules/Mol)
                                   16.56585 (Kcal/Mol)
 Warning -- explicit consideration of   6 degrees of freedom as
           vibrations may cause significant error
 Vibrational temperatures:    171.98   192.26   357.08   384.92   709.43
          (Kelvin)            848.46   904.40  1022.03  1299.66  1481.21
                             2343.08  2874.81  4083.18

 Zero-point correction=                           0.026399 (Hartree/Particle)
 Thermal correction to Energy=                    0.031819
 Thermal correction to Enthalpy=                  0.032764
 Thermal correction to Gibbs Free Energy=         0.000707
 Sum of electronic and zero-point Energies=           -189.038706
 Sum of electronic and thermal Energies=              -189.033286
 Sum of electronic and thermal Enthalpies=            -189.032342
 Sum of electronic and thermal Free Energies=         -189.064398

                     E (Thermal)             CV                S
                      KCal/Mol        Cal/Mol-Kelvin    Cal/Mol-Kelvin
 Total                   19.967             17.321             67.468
 Electronic               0.000              0.000              0.000
 Translational            0.889              2.981             38.245
 Rotational               0.592              1.987             17.797
 Vibrational             18.486             12.353             11.426
 Vibration     1          0.609              1.933              3.108
 Vibration     2          0.613              1.920              2.893
 Vibration     3          0.662              1.766              1.743
 Vibration     4          0.673              1.733              1.612
 Vibration     5          0.849              1.265              0.676
 Vibration     6          0.947              1.054              0.468

 Optimization completed.
    -- Stationary point found.
 Normal termination of Gaussian 09 at Mon Jun 20 15:06:18 2016.
