 Gaussian 09, Revision E.01,
 Gaussian 09:  EM64L-G09RevE.01 30-Nov-2015

 ---------------------------------------------
 #p b3lyp/6-311++G(3df,2p) freq symmetry=Loose
 ---------------------------------------------

 ---------
 b3lyp opt
 ---------
 Symbolic Z-matrix:
 Charge =  2 Multiplicity = 4

                         Standard orientation:
 ---------------------------------------------------------------------
 Center     Atomic      Atomic             Coordinates (Angstroms)
 Number     Number       Type             X           Y           Z
 ---------------------------------------------------------------------
      1          1           0        0.000000   -0.000000    3.305649
      2          6           0        0.000000   -0.000000    2.212591
      3          6           0        0.000000   -0.000000    0.959423
      4          6           0        0.000000    0.000000   -0.428410
      5          6           0        0.000000    0.692243   -1.647272
      6          6           0       -0.000000   -0.692243   -1.647272
 ---------------------------------------------------------------------

 SCF Done:  E(UB3LYP) =  -189.904178243     A.U. after   15 cycles

 The electronic state is 4-A2.
 Alpha  occ. eigenvalues --  -10.81176 -10.81115 -10.79040 -10.78282 -10.77489
 Alpha  occ. eigenvalues --   -1.47696  -1.33467  -1.19842  -1.04538  -1.02635
 Alpha  occ. eigenvalues --   -0.96451  -0.92829  -0.85130  -0.84864  -0.84837
 Alpha  occ. eigenvalues --   -0.77063
 Alpha virt. eigenvalues --   -0.59839  -0.53533  -0.50240  -0.41984  -0.35548
 Alpha virt. eigenvalues --   -0.32791  -0.29715  -0.29608  -0.26403  -0.25649
 Alpha virt. eigenvalues --   -0.25100  -0.21911  -0.21335  -0.20590  -0.19873

  Beta  occ. eigenvalues --  -10.79059 -10.79004 -10.78895 -10.77398 -10.76822
  Beta  occ. eigenvalues --   -1.45118  -1.29878  -1.18014  -1.01546  -0.98266
  Beta  occ. eigenvalues --   -0.91885  -0.89824  -0.81264
  Beta virt. eigenvalues --   -0.72395  -0.65878  -0.62180  -0.55811  -0.48085
  Beta virt. eigenvalues --   -0.47618  -0.37718  -0.33606  -0.32140  -0.28749
  Beta virt. eigenvalues --   -0.26823  -0.25997  -0.24438  -0.23457  -0.21412

 Mulliken charges and spin densities:
               1          2
     1  H    0.449112  -0.015192
     2  C    0.620403   0.432819
     3  C    0.030720   0.487711
     4  C    0.293072  -0.099498
     5  C    0.303346   1.097080
     6  C    0.303346   1.097080
 Sum of Mulliken charges =   2.00000   3.00000

 Dipole moment (field-independent basis, Debye):
    X=             -0.0000    Y=              0.0000    Z=              2.8649  Tot=              2.8649
 Quadrupole moment (field-independent basis, Debye-Ang):
   XX=            -21.4383   YY=            -20.5935   ZZ=             16.2463
   XY=             -0.0000   XZ=              0.0000   YZ=              0.0000

  Exact polarizability:  22.350   0.000  30.452   0.000  -0.000  77.845
 Approx polarizability:  33.289   0.000  54.304   0.000   0.000 143.938

                      1                      2                      3
                     B2                     B1                     B2
 Frequencies --    202.4394               211.5443               499.4628
 Red. masses --      5.5902                 4.7024                10.0433
 Frc consts  --      0.1350                 0.1240                 1.4762
 IR Inten    --      9.8711                 6.9072                 2.4034

                      4                      5                      6
                     B1                     B2                     A1
 Frequencies --    532.7846               706.5583               710.5487
 Red. masses --      6.4192                 1.2503                 8.8710
 Frc consts  --      1.0736                 0.3678                 2.6388
 IR Inten    --      0.6889                40.6734                 6.8630

                      7                      8                      9
                     B1                     B2                     A1
 Frequencies --    809.1925              1093.5713              1278.5423
 Red. masses --      1.4173                11.8820                11.3426
 Frc consts  --      0.5468                 8.3721                10.9243
 IR Inten    --     10.7634                59.4433                 2.1433

                     10                     11                     12
                     A1                     A1                     A1
 Frequencies --   1483.7493              1978.1054              3168.0106
 Red. masses --     11.5393                 6.1362                 1.1627
 Frc consts  --     14.9676                14.1464                 6.8755
 IR Inten    --     80.0756               160.4665               399.4159

 - Thermochemistry -
 -------------------
 Temperature   298.150 Kelvin.  Pressure   1.00000 Atm.
 Atom     1 has atomic number  1 and mass   1.00783

 Molecular mass:    61.00783 amu.
 Principal axes and moments of inertia in atomic units:
                           1         2         3
     Eigenvalues --    41.07013 528.35927 569.42940
           X            0.00000  -0.00000   1.00000
           Y            0.00000   1.00000   0.00000
           Z            1.00000  -0.00000   0.00000
 This molecule is an asymmetric top.
 Rotational symmetry number  2.
 Rotational temperatures (Kelvin)      2.10892     0.16393     0.15211
 Rotational constants (GHZ):          43.94291     3.41575     3.16939
 Zero-point vibrational energy      75810.4 (Joules/Mol)
                                   18.11912 (Kcal/Mol)
 Warning -- explicit consideration of   4 degrees of freedom as
           vibrations may cause significant error
 Vibrational temperatures:    291.26   304.36   718.61   766.56  1016.58
          (Kelvin)           1022.32  1164.25  1573.40  1839.53  2134.78
                             2846.05  4558.05

 Zero-point correction=                           0.028875 (Hartree/Particle)
 Thermal correction to Energy=                    0.033570
 Thermal correction to Enthalpy=                  0.034515
 Thermal correction to Gibbs Free Energy=         0.001288
 Sum of electronic and zero-point Energies=           -189.875304
 Sum of electronic and thermal Energies=              -189.870608
 Sum of electronic and thermal Enthalpies=            -189.869664
 Sum of electronic and thermal Free Energies=         -189.902891

                     E (Thermal)             CV                S
                      KCal/Mol        Cal/Mol-Kelvin    Cal/Mol-Kelvin
 Total                   21.066             14.848             69.932
 Electronic               0.000              0.000              2.755
 Translational            0.889              2.981             38.245
 Rotational               0.889              2.981             22.651
 Vibrational             19.288              8.887              6.282
 Vibration     1          0.639              1.836              2.111
 Vibration     2          0.643              1.823              2.030
 Vibration     3          0.855              1.251              0.659
 Vibration     4          0.888              1.177              0.581

 Optimization completed.
    -- Stationary point found.
 Normal termination of Gaussian 09 at Mon Jun 20 14:48:37 2016.
