 Gaussian 09, Revision E.01,
 Gaussian 09:  EM64L-G09RevE.01 30-Nov-2015

 ---------------------------------------------
 #p b3lyp/6-311++G(3df,2p) freq symmetry=Loose
 ---------------------------------------------

 ---------
 b3lyp opt
 ---------
 Symbolic Z-matrix:
 Charge =  0 Multiplicity = 1

                         Standard orientation:
 ---------------------------------------------------------------------
 Center     Atomic      Atomic             Coordinates (Angstroms)
 Number     Number       Type             X           Y           Z
 ---------------------------------------------------------------------
      1          1           0       -1.027687    0.960315    0.000000
      2          6           0        0.068512    0.720234    0.000000
      3          9           0        0.068512   -0.586858   -0.000000
 ---------------------------------------------------------------------

 SCF Done:  E(RB3LYP) =  -138.460360162     A.U. after    9 cycles

 The electronic state is 1-A'.
 Alpha  occ. eigenvalues --  -24.75810 -10.30704  -1.29789  -0.69935  -0.55426
 Alpha  occ. eigenvalues --   -0.52286  -0.48047  -0.26265
 Alpha virt. eigenvalues --   -0.11715  -0.00140   0.03097   0.06624   0.06831
 Alpha virt. eigenvalues --    0.11321   0.14103   0.18664   0.21922   0.23950
 Alpha virt. eigenvalues --    0.24284   0.30074   0.33737   0.37546   0.43147

 Mulliken charges:
               1
     1  H    0.149747
     2  C   -0.042115
     3  F   -0.107633
 Sum of Mulliken charges =  -0.00000

 Dipole moment (field-independent basis, Debye):
    X=             -1.4903    Y=             -0.2104    Z=              0.0000  Tot=              1.5051
 Quadrupole moment (field-independent basis, Debye-Ang):
   XX=            -12.0782   YY=            -12.8735   ZZ=            -10.5787
   XY=             -1.8375   XZ=              0.0000   YZ=             -0.0000

  Exact polarizability:  17.640  -1.132  16.861  -0.000  -0.000  13.684
 Approx polarizability:  20.801  -2.398  22.578  -0.000   0.000  19.691

                      1                      2                      3
                     A'                     A'                     A'
 Frequencies --   1201.8541              1437.5035              2767.6350
 Red. masses --     13.6575                 1.1518                 1.0835
 Frc consts  --     11.6232                 1.4023                 4.8897
 IR Inten    --    170.2610                24.3830               166.6026

 - Thermochemistry -
 -------------------
 Temperature   298.150 Kelvin.  Pressure   1.00000 Atm.
 Atom     1 has atomic number  1 and mass   1.00783

 Molecular mass:    32.00623 amu.
 Principal axes and moments of inertia in atomic units:
                           1         2         3
     Eigenvalues --     3.83541  49.00311  52.83852
           X           -0.08843   0.99608   0.00000
           Y            0.99608   0.08843   0.00000
           Z            0.00000   0.00000   1.00000
 This molecule is an asymmetric top.
 Rotational symmetry number  1.
 Rotational temperatures (Kelvin)     22.58266     1.76752     1.63922
 Rotational constants (GHZ):         470.54689    36.82912    34.15579
 Zero-point vibrational energy      32341.0 (Joules/Mol)
                                    7.72968 (Kcal/Mol)
 Vibrational temperatures:   1729.20  2068.24  3982.00
          (Kelvin)

 Zero-point correction=                           0.012318 (Hartree/Particle)
 Thermal correction to Energy=                    0.015174
 Thermal correction to Enthalpy=                  0.016118
 Thermal correction to Gibbs Free Energy=        -0.009219
 Sum of electronic and zero-point Energies=           -138.448042
 Sum of electronic and thermal Energies=              -138.445187
 Sum of electronic and thermal Enthalpies=            -138.444242
 Sum of electronic and thermal Free Energies=         -138.469579

                     E (Thermal)             CV                S
                      KCal/Mol        Cal/Mol-Kelvin    Cal/Mol-Kelvin
 Total                    9.522              6.259             53.326
 Electronic               0.000              0.000              0.000
 Translational            0.889              2.981             36.322
 Rotational               0.889              2.981             16.947
 Vibrational              7.744              0.297              0.056

 Optimization completed.
    -- Stationary point found.
 Normal termination of Gaussian 09 at Sun Jun 19 04:46:53 2016.
