 Gaussian 09, Revision C.01,
 Gaussian 09:  AM64L-G09RevC.01 23-Sep-2011

 ------------------------------
 #p b3lyp/6-311++G(3df,2p) freq
 ------------------------------

 (Enter /home/nestor/.gaussian09/l101.exe)
 ---------
 b3lyp opt
 ---------
 Charge =  1 Multiplicity = 2

                         Standard orientation:
 ---------------------------------------------------------------------
 Center     Atomic      Atomic             Coordinates (Angstroms)
 Number     Number       Type             X           Y           Z
 ---------------------------------------------------------------------
      1          6           0        0.057459    0.635235    0.000000
      2          9           0        0.057459   -0.564387    0.000000
      3          1           0       -0.861885    1.268075    0.000000
 ---------------------------------------------------------------------

 SCF Done:  E(UB3LYP) =  -138.093916943     A.U. after   11 cycles

 The electronic state is 2-A'.
 Alpha  occ. eigenvalues --  -25.16127 -10.73774  -1.72483  -1.07415  -0.95595
 Alpha  occ. eigenvalues --   -0.91203  -0.89660  -0.64850
 Alpha virt. eigenvalues --   -0.46731  -0.20660  -0.20307  -0.12992  -0.12175
 Alpha virt. eigenvalues --   -0.08716  -0.05323  -0.04531   0.02054   0.02060
 Alpha virt. eigenvalues --    0.02780   0.03082   0.10645   0.12582   0.14982

  Beta  occ. eigenvalues --  -25.15625 -10.72118  -1.71443  -1.05394  -0.92779
  Beta  occ. eigenvalues --   -0.90820  -0.85829
  Beta virt. eigenvalues --   -0.46475  -0.44271  -0.19748  -0.19604  -0.11963
  Beta virt. eigenvalues --   -0.11576  -0.07737  -0.04385  -0.04013   0.02458
  Beta virt. eigenvalues --    0.02513   0.03470   0.03892   0.11258   0.13300

 Mulliken atomic charges:
              1
     1  C    0.529353
     2  F    0.162772
     3  H    0.307875
 Sum of Mulliken atomic charges =   1.00000

 Dipole moment (field-independent basis, Debye):
    X=             -0.9975    Y=              2.6083    Z=              0.0000  Tot=              2.7926
 Quadrupole moment (field-independent basis, Debye-Ang):
   XX=             -7.9979   YY=             -5.6515   ZZ=             -8.2691
   XY=             -1.6986   XZ=              0.0000   YZ=              0.0000

  Exact polarizability:   9.074  -0.898  11.983   0.000   0.000   8.046
 Approx polarizability:  10.662  -0.857  17.642   0.000   0.000  10.391

                     1                      2                      3
                    A'                     A'                     A'
 Frequencies --  1112.9797              1653.3703              2879.3163
 Red. masses --     1.2321                10.0789                 1.0992
 Frc consts  --     0.8992                16.2332                 5.3689
 IR Inten    --    47.9632               164.2215                79.8751

 - Thermochemistry -
 -------------------
 Temperature   298.150 Kelvin.  Pressure   1.00000 Atm.
 Atom     1 has atomic number  6 and mass  12.00000

 Molecular mass:    32.00623 amu.
 Principal axes and moments of inertia in atomic units:
                           1         2         3
     Eigenvalues --     2.48664  44.77926  47.26590
           X           -0.10423   0.99455   0.00000
           Y            0.99455   0.10423   0.00000
           Z            0.00000   0.00000   1.00000
 This molecule is an asymmetric top.
 Rotational symmetry number  1.
 Rotational temperatures (Kelvin)     34.83167     1.93424     1.83248
 Rotational constants (GHZ):         725.77513    40.30306    38.18273
 Zero-point vibrational energy      33768.6 (Joules/Mol)
                                    8.07089 (Kcal/Mol)
 Vibrational temperatures:   1601.33  2378.83  4142.69
          (Kelvin)

 Zero-point correction=                           0.012862 (Hartree/Particle)
 Thermal correction to Energy=                    0.015721
 Thermal correction to Enthalpy=                  0.016665
 Thermal correction to Gibbs Free Energy=        -0.009031
 Sum of electronic and zero-point Energies=           -138.081055
 Sum of electronic and thermal Energies=              -138.078196
 Sum of electronic and thermal Enthalpies=            -138.077252
 Sum of electronic and thermal Free Energies=         -138.102948

                     E (Thermal)             CV                S
                      KCal/Mol        Cal/Mol-Kelvin    Cal/Mol-Kelvin
 Total                    9.865              6.274             54.081
 Electronic               0.000              0.000              1.377
 Translational            0.889              2.981             36.322
 Rotational               0.889              2.981             16.317
 Vibrational              8.087              0.313              0.065

 Optimization completed.
    -- Stationary point found.
 Normal termination of Gaussian 09 at Mon Oct 17 01:35:17 2016.
