 Gaussian 09, Revision E.01,
 Gaussian 09:  EM64L-G09RevE.01 30-Nov-2015

 ---------------------------------------------
 #p b3lyp/6-311++G(3df,2p) freq symmetry=Loose
 ---------------------------------------------

 ---------
 b3lyp opt
 ---------
 Symbolic Z-matrix:
 Charge =  0 Multiplicity = 2

                         Standard orientation:
 ---------------------------------------------------------------------
 Center     Atomic      Atomic             Coordinates (Angstroms)
 Number     Number       Type             X           Y           Z
 ---------------------------------------------------------------------
      1          1           0        0.717360    1.298229   -0.000000
      2          6           0       -0.029890    0.507897   -0.000000
      3          9           0       -0.029890   -0.241423    1.095003
      4          9           0       -0.029890   -0.241423   -1.095003
 ---------------------------------------------------------------------

 SCF Done:  E(UB3LYP) =  -238.409897706     A.U. after   11 cycles

 The electronic state is 2-A'.
 Alpha  occ. eigenvalues --  -24.72870 -24.72870 -10.34748  -1.30008  -1.24360
 Alpha  occ. eigenvalues --   -0.71606  -0.58654  -0.58612  -0.54349  -0.47151
 Alpha  occ. eigenvalues --   -0.44506  -0.43789  -0.24736
 Alpha virt. eigenvalues --   -0.00020   0.03257   0.03461   0.05387   0.11074
 Alpha virt. eigenvalues --    0.14210   0.16771   0.17276   0.20672   0.21905
 Alpha virt. eigenvalues --    0.23404   0.24807   0.29003   0.31797   0.33537

  Beta  occ. eigenvalues --  -24.72486 -24.72486 -10.33214  -1.29080  -1.23572
  Beta  occ. eigenvalues --   -0.69451  -0.57901  -0.57608  -0.51034  -0.45138
  Beta  occ. eigenvalues --   -0.44123  -0.42928
  Beta virt. eigenvalues --   -0.08373   0.00166   0.03482   0.03646   0.06526
  Beta virt. eigenvalues --    0.11349   0.15067   0.17975   0.19293   0.20819
  Beta virt. eigenvalues --    0.22170   0.23527   0.25013   0.29423   0.31815

 Mulliken charges and spin densities:
               1          2
     1  H    0.170941   0.014338
     2  C    0.380882   0.884935
     3  F   -0.275912   0.050363
     4  F   -0.275912   0.050363
 Sum of Mulliken charges =  -0.00000   1.00000

 Dipole moment (field-independent basis, Debye):
    X=              0.7316    Y=              1.1893    Z=             -0.0000  Tot=              1.3963
 Quadrupole moment (field-independent basis, Debye-Ang):
   XX=            -15.5620   YY=            -15.1076   ZZ=            -17.7600
   XY=              1.0042   XZ=             -0.0000   YZ=             -0.0000

  Exact polarizability:  14.590   0.796  16.762   0.000  -0.000  18.410
 Approx polarizability:  17.599   1.045  20.502  -0.000  -0.000  23.849

                      1                      2                      3
                     A'                     A'                     A'
 Frequencies --    547.1155               985.3527              1170.3965
 Red. masses --     15.1932                 1.4409                 8.8289
 Frc consts  --      2.6795                 0.8243                 7.1257
 IR Inten    --      4.0198                 6.3434                93.9916

                      4                      5                      6
                     A"                     A"                     A'
 Frequencies --   1175.8647              1327.3545              3114.2506
 Red. masses --      4.2482                 1.2987                 1.0871
 Frc consts  --      3.4607                 1.3481                 6.2120
 IR Inten    --    258.8751                46.5171                18.8356

 - Thermochemistry -
 -------------------
 Temperature   298.150 Kelvin.  Pressure   1.00000 Atm.
 Atom     1 has atomic number  1 and mass   1.00783

 Molecular mass:    51.00463 amu.
 Principal axes and moments of inertia in atomic units:
                           1         2         3
     Eigenvalues --    26.77921 164.11603 188.05426
           X            0.00000   0.15150   0.98846
           Y            0.00000   0.98846  -0.15150
           Z            1.00000  -0.00000  -0.00000
 This molecule is an asymmetric top.
 Rotational symmetry number  1.
 Rotational temperatures (Kelvin)      3.23437     0.52776     0.46058
 Rotational constants (GHZ):          67.39336    10.99674     9.59692
 Zero-point vibrational energy      49766.7 (Joules/Mol)
                                   11.89452 (Kcal/Mol)
 Warning -- explicit consideration of   1 degrees of freedom as
           vibrations may cause significant error
 Vibrational temperatures:    787.18  1417.70  1683.94  1691.80  1909.76
          (Kelvin)           4480.71

 Zero-point correction=                           0.018955 (Hartree/Particle)
 Thermal correction to Energy=                    0.022066
 Thermal correction to Enthalpy=                  0.023010
 Thermal correction to Gibbs Free Energy=        -0.006066
 Sum of electronic and zero-point Energies=           -238.390943
 Sum of electronic and thermal Energies=              -238.387832
 Sum of electronic and thermal Enthalpies=            -238.386888
 Sum of electronic and thermal Free Energies=         -238.415964

                     E (Thermal)             CV                S
                      KCal/Mol        Cal/Mol-Kelvin    Cal/Mol-Kelvin
 Total                   13.846              8.083             61.196
 Electronic               0.000              0.000              1.377
 Translational            0.889              2.981             37.711
 Rotational               0.889              2.981             21.341
 Vibrational             12.069              2.121              0.766
 Vibration     1          0.902              1.146              0.550

 Optimization completed.
    -- Stationary point found.
 Normal termination of Gaussian 09 at Sat Jul  2 15:40:53 2016.
