 Gaussian 09, Revision E.01,
 Gaussian 09:  EM64L-G09RevE.01 30-Nov-2015

 ---------------------------------------------
 #p b3lyp/6-311++G(3df,2p) freq symmetry=Loose
 ---------------------------------------------

 ---------
 b3lyp opt
 ---------
 Symbolic Z-matrix:
 Charge =  1 Multiplicity = 3

                         Standard orientation:
 ---------------------------------------------------------------------
 Center     Atomic      Atomic             Coordinates (Angstroms)
 Number     Number       Type             X           Y           Z
 ---------------------------------------------------------------------
      1          1           0       -1.684637   -0.111657    0.714966
      2          6           0        0.223929    0.547908   -0.001116
      3          9           0       -1.169224   -0.136031   -0.096363
      4          9           0        1.207120   -0.216835    0.017666
 ---------------------------------------------------------------------

 SCF Done:  E(UB3LYP) =  -237.886791761     A.U. after   13 cycles

 The electronic state is 3-A.
 Alpha  occ. eigenvalues --  -25.12078 -25.05834 -10.68355  -1.64702  -1.60885
 Alpha  occ. eigenvalues --   -1.04885  -0.95188  -0.90059  -0.85737  -0.82856
 Alpha  occ. eigenvalues --   -0.79845  -0.68977  -0.53245
 Alpha virt. eigenvalues --   -0.31965  -0.24448  -0.15864  -0.12369  -0.11202
 Alpha virt. eigenvalues --   -0.08935  -0.07575  -0.03223  -0.00142   0.00291
 Alpha virt. eigenvalues --    0.03907   0.05096   0.09276   0.10976   0.11417

  Beta  occ. eigenvalues --  -25.11449 -25.04978 -10.64702  -1.63166  -1.59058
  Beta  occ. eigenvalues --   -1.01652  -0.92688  -0.87480  -0.83847  -0.78659
  Beta  occ. eigenvalues --   -0.78182
  Beta virt. eigenvalues --   -0.48084  -0.31920  -0.28671  -0.21781  -0.14584
  Beta virt. eigenvalues --   -0.11313  -0.10108  -0.08074  -0.07427  -0.00236
  Beta virt. eigenvalues --    0.00078   0.00719   0.04492   0.05776   0.09632

 Mulliken charges and spin densities:
               1          2
     1  H    0.634067   0.009675
     2  C    0.632415   1.803803
     3  F   -0.267314   0.058382
     4  F    0.000832   0.128141
 Sum of Mulliken charges =   1.00000   2.00000

 Dipole moment (field-independent basis, Debye):
    X=             -3.0640    Y=              0.8072    Z=              1.6990  Tot=              3.5953
 Quadrupole moment (field-independent basis, Debye-Ang):
   XX=             -5.7009   YY=            -13.0297   ZZ=            -12.6521
   XY=              0.9006   XZ=             -3.3164   YZ=             -0.2190

  Exact polarizability:  18.619   0.430  12.455  -0.761  -0.008  11.207
 Approx polarizability:  23.694  -0.255  16.378  -0.722   0.167  13.895

                      1                      2                      3
                      A                      A                      A
 Frequencies --    239.2663               352.7172               644.9758
 Red. masses --      1.1717                15.8232                11.1280
 Frc consts  --      0.0395                 1.1598                 2.7274
 IR Inten    --    185.0350                11.9540               154.6609

                      4                      5                      6
                      A                      A                      A
 Frequencies --    902.2796              1458.5355              3521.8554
 Red. masses --      1.1163                13.8269                 1.0573
 Frc consts  --      0.5354                17.3304                 7.7268
 IR Inten    --    175.9303               191.7387               544.0753

 - Thermochemistry -
 -------------------
 Temperature   298.150 Kelvin.  Pressure   1.00000 Atm.
 Atom     1 has atomic number  1 and mass   1.00783

 Molecular mass:    51.00463 amu.
 Principal axes and moments of inertia in atomic units:
                           1         2         3
     Eigenvalues --    19.67653 206.21210 221.24042
           X            0.99970   0.00482  -0.02412
           Y           -0.00534   0.99975  -0.02174
           Z            0.02401   0.02186   0.99947
 This molecule is an asymmetric top.
 Rotational symmetry number  1.
 Rotational temperatures (Kelvin)      4.40188     0.42002     0.39149
 Rotational constants (GHZ):          91.72050     8.75187     8.15738
 Zero-point vibrational energy      42584.8 (Joules/Mol)
                                   10.17802 (Kcal/Mol)
 Warning -- explicit consideration of   2 degrees of freedom as
           vibrations may cause significant error
 Vibrational temperatures:    344.25   507.48   927.98  1298.18  2098.50
          (Kelvin)           5067.16

 Zero-point correction=                           0.016220 (Hartree/Particle)
 Thermal correction to Energy=                    0.020109
 Thermal correction to Enthalpy=                  0.021053
 Thermal correction to Gibbs Free Energy=        -0.009741
 Sum of electronic and zero-point Energies=           -237.870572
 Sum of electronic and thermal Energies=              -237.866683
 Sum of electronic and thermal Enthalpies=            -237.865739
 Sum of electronic and thermal Free Energies=         -237.896533

                     E (Thermal)             CV                S
                      KCal/Mol        Cal/Mol-Kelvin    Cal/Mol-Kelvin
 Total                   12.618             10.833             64.810
 Electronic               0.000              0.000              2.183
 Translational            0.889              2.981             37.711
 Rotational               0.889              2.981             21.423
 Vibrational             10.841              4.872              3.493
 Vibration     1          0.657              1.780              1.808
 Vibration     2          0.729              1.570              1.154

 Normal termination of Gaussian 09 at Sun Jun 19 04:46:32 2016.
