 Gaussian 09, Revision E.01,
 Gaussian 09:  EM64L-G09RevE.01 30-Nov-2015

 ---------------------------------------------
 #p b3lyp/6-311++G(3df,2p) freq symmetry=Loose
 ---------------------------------------------

 ---------
 b3lyp opt
 ---------
 Symbolic Z-matrix:
 Charge =  1 Multiplicity = 3

                         Standard orientation:
 ---------------------------------------------------------------------
 Center     Atomic      Atomic             Coordinates (Angstroms)
 Number     Number       Type             X           Y           Z
 ---------------------------------------------------------------------
      1          1           0        0.000060    1.354263    0.551098
      2          6           0       -0.000005    0.306667   -0.290602
      3          9           0       -1.125078   -0.177456    0.066253
      4          9           0        1.125075   -0.177463    0.066249
 ---------------------------------------------------------------------

 SCF Done:  E(UB3LYP) =  -237.885652041     A.U. after   13 cycles

 The electronic state is 3-A.
 Alpha  occ. eigenvalues --  -25.10902 -25.10902 -10.73981  -1.67920  -1.63103
 Alpha  occ. eigenvalues --   -1.06174  -0.95953  -0.93933  -0.89862  -0.83380
 Alpha  occ. eigenvalues --   -0.80863  -0.75216  -0.60470
 Alpha virt. eigenvalues --   -0.30680  -0.18976  -0.16300  -0.14046  -0.11766
 Alpha virt. eigenvalues --   -0.08669  -0.05496  -0.04338  -0.00146   0.00577
 Alpha virt. eigenvalues --    0.01387   0.01800   0.07583   0.11421   0.12407

  Beta  occ. eigenvalues --  -25.09635 -25.09634 -10.71987  -1.65202  -1.60305
  Beta  occ. eigenvalues --   -1.01835  -0.92896  -0.89035  -0.85588  -0.79008
  Beta  occ. eigenvalues --   -0.78609
  Beta virt. eigenvalues --   -0.58981  -0.41252  -0.24941  -0.17151  -0.14996
  Beta virt. eigenvalues --   -0.12327  -0.10667  -0.07284  -0.04995  -0.01542
  Beta virt. eigenvalues --    0.00451   0.01215   0.01577   0.02859   0.08040

 Mulliken charges and spin densities:
               1          2
     1  H    0.322468   0.453764
     2  C    0.715977   1.012115
     3  F   -0.019223   0.267048
     4  F   -0.019222   0.267073
 Sum of Mulliken charges =   1.00000   2.00000

 Dipole moment (field-independent basis, Debye):
    X=              0.0001    Y=              2.4430    Z=              0.4446  Tot=              2.4831
 Quadrupole moment (field-independent basis, Debye-Ang):
   XX=            -12.2646   YY=             -9.8445   ZZ=            -13.1562
   XY=              0.0001   XZ=              0.0001   YZ=              1.4789

  Exact polarizability:  19.665   0.000  16.142   0.000   1.676  11.758
 Approx polarizability:  31.947  -0.000  22.812   0.000   2.223  14.854

                      1                      2                      3
                      A                      A                      A
 Frequencies --    527.5515               686.6530               816.1977
 Red. masses --      9.8210                 1.1566                 1.8863
 Frc consts  --      1.6104                 0.3213                 0.7404
 IR Inten    --     25.0914                94.8141                24.0895

                      4                      5                      6
                      A                      A                      A
 Frequencies --    896.2334              1307.5086              1371.4300
 Red. masses --      1.6533                 2.1211                 7.0216
 Frc consts  --      0.7824                 2.1365                 7.7809
 IR Inten    --     64.8440               112.6962               235.0881

 - Thermochemistry -
 -------------------
 Temperature   298.150 Kelvin.  Pressure   1.00000 Atm.
 Atom     1 has atomic number  1 and mass   1.00783

 Molecular mass:    51.00463 amu.
 Principal axes and moments of inertia in atomic units:
                           1         2         3
     Eigenvalues --    19.99747 176.29149 187.21574
           X            1.00000   0.00000   0.00000
           Y           -0.00000   0.96464   0.26357
           Z           -0.00000  -0.26357   0.96464
 This molecule is an asymmetric top.
 Rotational symmetry number  1.
 Rotational temperatures (Kelvin)      4.33124     0.49131     0.46264
 Rotational constants (GHZ):          90.24846    10.23726     9.63990
 Zero-point vibrational energy      33528.8 (Joules/Mol)
                                    8.01357 (Kcal/Mol)
 Warning -- explicit consideration of   1 degrees of freedom as
           vibrations may cause significant error
 Vibrational temperatures:    759.03   987.94  1174.33  1289.48  1881.21
          (Kelvin)           1973.18

 Zero-point correction=                           0.012770 (Hartree/Particle)
 Thermal correction to Energy=                    0.016073
 Thermal correction to Enthalpy=                  0.017018
 Thermal correction to Gibbs Free Energy=        -0.012588
 Sum of electronic and zero-point Energies=           -237.872882
 Sum of electronic and thermal Energies=              -237.869579
 Sum of electronic and thermal Enthalpies=            -237.868634
 Sum of electronic and thermal Free Energies=         -237.898240

                     E (Thermal)             CV                S
                      KCal/Mol        Cal/Mol-Kelvin    Cal/Mol-Kelvin
 Total                   10.086              9.396             62.310
 Electronic               0.000              0.000              2.183
 Translational            0.889              2.981             37.711
 Rotational               0.889              2.981             21.117
 Vibrational              8.309              3.435              1.298
 Vibration     1          0.883              1.189              0.593

 Optimization completed.
    -- Stationary point found.
 Normal termination of Gaussian 09 at Sun Jun 19 04:46:37 2016.
