 Gaussian 09, Revision E.01,
 Gaussian 09:  EM64L-G09RevE.01 30-Nov-2015

 ---------------------------------------------
 #p b3lyp/6-311++G(3df,2p) freq symmetry=Loose
 ---------------------------------------------

 ---------
 b3lyp opt
 ---------
 Symbolic Z-matrix:
 Charge =  1 Multiplicity = 3

                         Standard orientation:
 ---------------------------------------------------------------------
 Center     Atomic      Atomic             Coordinates (Angstroms)
 Number     Number       Type             X           Y           Z
 ---------------------------------------------------------------------
      1          1           0       -0.000742    1.522687    0.511964
      2          6           0       -0.000475    0.661253   -0.161397
      3          9           0       -0.961651   -0.305249    0.025367
      4          9           0        0.962050   -0.304774    0.025347
 ---------------------------------------------------------------------

 SCF Done:  E(UB3LYP) =  -237.861601514     A.U. after   14 cycles

 The electronic state is 3-A.
 Alpha  occ. eigenvalues --  -25.15635 -25.15625 -10.69685  -1.70335  -1.61232
 Alpha  occ. eigenvalues --   -1.07829  -0.96408  -0.93227  -0.91599  -0.84207
 Alpha  occ. eigenvalues --   -0.83486  -0.82400  -0.60959
 Alpha virt. eigenvalues --   -0.28633  -0.21056  -0.18775  -0.12763  -0.10506
 Alpha virt. eigenvalues --   -0.09956  -0.07008  -0.03775  -0.00235   0.00573
 Alpha virt. eigenvalues --    0.01134   0.01681   0.06893   0.10092   0.11967

  Beta  occ. eigenvalues --  -25.13504 -25.13498 -10.67968  -1.65577  -1.55916
  Beta  occ. eigenvalues --   -1.03777  -0.90982  -0.89867  -0.84927  -0.80317
  Beta  occ. eigenvalues --   -0.78379
  Beta virt. eigenvalues --   -0.64493  -0.41652  -0.26075  -0.18580  -0.18228
  Beta virt. eigenvalues --   -0.11343  -0.09805  -0.08561  -0.06038  -0.03374
  Beta virt. eigenvalues --    0.00032   0.01008   0.02059   0.02160   0.07228

 Mulliken charges and spin densities:
               1          2
     1  H    0.288350   0.034382
     2  C    0.568220   0.860511
     3  F    0.071647   0.552057
     4  F    0.071782   0.553050
 Sum of Mulliken charges =   1.00000   2.00000

 Dipole moment (field-independent basis, Debye):
    X=             -0.0002    Y=              2.2307    Z=              0.4269  Tot=              2.2712
 Quadrupole moment (field-independent basis, Debye-Ang):
   XX=            -10.7858   YY=            -10.0485   ZZ=            -13.6314
   XY=             -0.0018   XZ=             -0.0004   YZ=              0.9686

  Exact polarizability:  25.643  -0.000  14.090  -0.000   0.289  10.662
 Approx polarizability:  50.150   0.004  18.143  -0.001  -0.074  13.031

                      1                      2                      3
                      A                      A                      A
 Frequencies --    504.0081               512.8180              1014.1693
 Red. masses --     13.3766                15.7433                 1.3103
 Frc consts  --      2.0020                 2.4393                 0.7940
 IR Inten    --     12.2510                 9.4179                 9.1032

                      4                      5                      6
                      A                      A                      A
 Frequencies --   1118.9413              1132.7499              3109.7993
 Red. masses --      8.1852                 1.0956                 1.0953
 Frc consts  --      6.0380                 0.8283                 6.2411
 IR Inten    --    119.5343                37.0945                52.6374

 - Thermochemistry -
 -------------------
 Temperature   298.150 Kelvin.  Pressure   1.00000 Atm.
 Atom     1 has atomic number  1 and mass   1.00783

 Molecular mass:    51.00463 amu.
 Principal axes and moments of inertia in atomic units:
                           1         2         3
     Eigenvalues --    41.52321 127.44373 165.14670
           X            1.00000  -0.00006  -0.00001
           Y            0.00006   0.99705   0.07675
           Z            0.00001  -0.07675   0.99705
 This molecule is an asymmetric top.
 Rotational symmetry number  1.
 Rotational temperatures (Kelvin)      2.08591     0.67962     0.52447
 Rotational constants (GHZ):          43.46343    14.16108    10.92811
 Zero-point vibrational energy      44216.9 (Joules/Mol)
                                   10.56809 (Kcal/Mol)
 Warning -- explicit consideration of   2 degrees of freedom as
           vibrations may cause significant error
 Vibrational temperatures:    725.15   737.83  1459.16  1609.90  1629.77
          (Kelvin)           4474.30

 Zero-point correction=                           0.016841 (Hartree/Particle)
 Thermal correction to Energy=                    0.020190
 Thermal correction to Enthalpy=                  0.021134
 Thermal correction to Gibbs Free Energy=        -0.008688
 Sum of electronic and zero-point Energies=           -237.844760
 Sum of electronic and thermal Energies=              -237.841412
 Sum of electronic and thermal Enthalpies=            -237.840468
 Sum of electronic and thermal Free Energies=         -237.870290

                     E (Thermal)             CV                S
                      KCal/Mol        Cal/Mol-Kelvin    Cal/Mol-Kelvin
 Total                   12.669              9.304             62.766
 Electronic               0.000              0.000              2.183
 Translational            0.889              2.981             37.711
 Rotational               0.889              2.981             21.396
 Vibrational             10.892              3.342              1.476
 Vibration     1          0.859              1.241              0.648
 Vibration     2          0.868              1.222              0.627

 Optimization completed.
    -- Stationary point found.
 Normal termination of Gaussian 09 at Sun Jun 19 04:46:36 2016.
