 Gaussian 09, Revision C.01,
 Gaussian 09:  AM64L-G09RevC.01 23-Sep-2011

 ------------------------------
 #p b3lyp/6-311++G(3df,2p) freq
 ------------------------------

 (Enter /home/nestor/.gaussian09/l101.exe)
 ---------
 b3lyp opt
 ---------
 Charge =  1 Multiplicity = 3

                         Standard orientation:
 ---------------------------------------------------------------------
 Center     Atomic      Atomic             Coordinates (Angstroms)
 Number     Number       Type             X           Y           Z
 ---------------------------------------------------------------------
      1          6           0       -0.223930    0.547909   -0.001113
      2          9           0       -1.207120   -0.216836    0.017665
      3          9           0        1.169225   -0.136029   -0.096364
      4          1           0        1.684633   -0.111669    0.714968
 ---------------------------------------------------------------------

 SCF Done:  E(UB3LYP) =  -237.886791761     A.U. after   13 cycles

 The electronic state is 3-A.
 Alpha  occ. eigenvalues --  -25.12078 -25.05834 -10.68355  -1.64702  -1.60885
 Alpha  occ. eigenvalues --   -1.04885  -0.95188  -0.90059  -0.85737  -0.82856
 Alpha  occ. eigenvalues --   -0.79845  -0.68977  -0.53245
 Alpha virt. eigenvalues --   -0.31965  -0.24448  -0.15864  -0.12369  -0.11202
 Alpha virt. eigenvalues --   -0.08935  -0.07575  -0.03223  -0.00142   0.00291
 Alpha virt. eigenvalues --    0.03907   0.05096   0.09276   0.10976   0.11417

  Beta  occ. eigenvalues --  -25.11449 -25.04978 -10.64702  -1.63166  -1.59058
  Beta  occ. eigenvalues --   -1.01652  -0.92688  -0.87480  -0.83847  -0.78659
  Beta  occ. eigenvalues --   -0.78182
  Beta virt. eigenvalues --   -0.48084  -0.31920  -0.28671  -0.21781  -0.14584
  Beta virt. eigenvalues --   -0.11313  -0.10108  -0.08074  -0.07427  -0.00236
  Beta virt. eigenvalues --    0.00078   0.00719   0.04492   0.05776   0.09632

 Mulliken atomic charges:
              1
     1  C    0.632415
     2  F    0.000832
     3  F   -0.267314
     4  H    0.634067
 Sum of Mulliken atomic charges =   1.00000

 Dipole moment (field-independent basis, Debye):
    X=              3.0639    Y=              0.8072    Z=              1.6990  Tot=              3.5952
 Quadrupole moment (field-independent basis, Debye-Ang):
   XX=             -5.7010   YY=            -13.0297   ZZ=            -12.6521
   XY=             -0.9006   XZ=              3.3164   YZ=             -0.2191

  Exact polarizability:  18.619  -0.430  12.455   0.761  -0.008  11.207
 Approx polarizability:  23.694   0.255  16.378   0.722   0.167  13.895

                     1                      2                      3
                     A                      A                      A
 Frequencies --   239.2635               352.7173               644.9755
 Red. masses --     1.1717                15.8232                11.1281
 Frc consts  --     0.0395                 1.1598                 2.7275
 IR Inten    --   185.0354                11.9539               154.6620

                     4                      5                      6
                     A                      A                      A
 Frequencies --   902.2789              1458.5350              3521.8548
 Red. masses --     1.1163                13.8269                 1.0573
 Frc consts  --     0.5354                17.3304                 7.7268
 IR Inten    --   175.9290               191.7395               544.0695

 - Thermochemistry -
 -------------------
 Temperature   298.150 Kelvin.  Pressure   1.00000 Atm.
 Atom     1 has atomic number  6 and mass  12.00000

 Molecular mass:    51.00463 amu.
 Principal axes and moments of inertia in atomic units:
                           1         2         3
     Eigenvalues --    19.67656 206.21206 221.24037
           X            0.99970  -0.00482   0.02412
           Y            0.00534   0.99975  -0.02174
           Z           -0.02401   0.02186   0.99947
 This molecule is an asymmetric top.
 Rotational symmetry number  1.
 Rotational temperatures (Kelvin)      4.40188     0.42002     0.39149
 Rotational constants (GHZ):          91.72038     8.75187     8.15738
 Zero-point vibrational energy      42584.8 (Joules/Mol)
                                   10.17801 (Kcal/Mol)
 Warning -- explicit consideration of   2 degrees of freedom as
           vibrations may cause significant error
 Vibrational temperatures:    344.25   507.48   927.97  1298.18  2098.50
          (Kelvin)           5067.16

 Zero-point correction=                           0.016220 (Hartree/Particle)
 Thermal correction to Energy=                    0.020108
 Thermal correction to Enthalpy=                  0.021053
 Thermal correction to Gibbs Free Energy=        -0.009741
 Sum of electronic and zero-point Energies=           -237.870572
 Sum of electronic and thermal Energies=              -237.866683
 Sum of electronic and thermal Enthalpies=            -237.865739
 Sum of electronic and thermal Free Energies=         -237.896533

                     E (Thermal)             CV                S
                      KCal/Mol        Cal/Mol-Kelvin    Cal/Mol-Kelvin
 Total                   12.618             10.833             64.810
 Electronic               0.000              0.000              2.183
 Translational            0.889              2.981             37.711
 Rotational               0.889              2.981             21.423
 Vibrational             10.841              4.872              3.493
 Vibration     1          0.657              1.780              1.808
 Vibration     2          0.729              1.570              1.154

 Normal termination of Gaussian 09 at Tue Aug 16 05:26:59 2016.
