 Gaussian 09, Revision E.01,
 Gaussian 09:  EM64L-G09RevE.01 30-Nov-2015

 ---------------------------------------------
 #p b3lyp/6-311++G(3df,2p) freq symmetry=Loose
 ---------------------------------------------

 ---------
 b3lyp opt
 ---------
 Symbolic Z-matrix:
 Charge =  0 Multiplicity = 1

                         Standard orientation:
 ---------------------------------------------------------------------
 Center     Atomic      Atomic             Coordinates (Angstroms)
 Number     Number       Type             X           Y           Z
 ---------------------------------------------------------------------
      1          1           0        0.000000    0.000000   -0.829859
      2          9           0        0.000000    0.000000    0.092207
 ---------------------------------------------------------------------

 SCF Done:  E(RB3LYP) =  -100.485884716     A.U. after    8 cycles

 The electronic state is 1-SG.
 Alpha  occ. eigenvalues --  -24.68172  -1.20972  -0.55997  -0.42424  -0.42424
 Alpha virt. eigenvalues --   -0.02332   0.11094   0.19405   0.19405   0.19818
 Alpha virt. eigenvalues --    0.29638   0.46727   0.68568   0.68568   1.05336
 Alpha virt. eigenvalues --    1.05336   1.09592   1.24531   1.24531   1.34624

 Mulliken charges:
               1
     1  H    0.499862
     2  F   -0.499862
 Sum of Mulliken charges =  -0.00000

 Dipole moment (field-independent basis, Debye):
    X=              0.0000    Y=              0.0000    Z=             -1.8513  Tot=              1.8513
 Quadrupole moment (field-independent basis, Debye-Ang):
   XX=             -5.8904   YY=             -5.8904   ZZ=             -3.7356
   XY=              0.0000   XZ=              0.0000   YZ=              0.0000

  Exact polarizability:   4.290  -0.000   4.290  -0.000  -0.000   5.838
 Approx polarizability:   4.709  -0.000   4.709  -0.000  -0.000   7.424

                      1
                     SG
 Frequencies --   4093.2574
 Red. masses --      1.0583
 Frc consts  --     10.4472
 IR Inten    --    111.1068

 - Thermochemistry -
 -------------------
 Temperature   298.150 Kelvin.  Pressure   1.00000 Atm.
 Atom     1 has atomic number  1 and mass   1.00783

 Molecular mass:    20.00623 amu.
 Principal axes and moments of inertia in atomic units:
                           1         2         3
     Eigenvalues --     0.00000   2.90575   2.90575
           X            0.00000  -0.00000   1.00000
           Y            0.00000   1.00000   0.00000
           Z            1.00000   0.00000   0.00000
 This molecule is a prolate symmetric top.
 Rotational symmetry number  1.
 Rotational temperature (Kelvin)     29.80769
 Rotational constant (GHZ):         621.092314
 Zero-point vibrational energy      24483.1 (Joules/Mol)
                                    5.85161 (Kcal/Mol)
 Vibrational temperatures:   5889.28
          (Kelvin)

 Zero-point correction=                           0.009325 (Hartree/Particle)
 Thermal correction to Energy=                    0.011686
 Thermal correction to Enthalpy=                  0.012630
 Thermal correction to Gibbs Free Energy=        -0.007081
 Sum of electronic and zero-point Energies=           -100.476560
 Sum of electronic and thermal Energies=              -100.474199
 Sum of electronic and thermal Enthalpies=            -100.473255
 Sum of electronic and thermal Free Energies=         -100.492966

                     E (Thermal)             CV                S
                      KCal/Mol        Cal/Mol-Kelvin    Cal/Mol-Kelvin
 Total                    7.333              4.968             41.485
 Electronic               0.000              0.000              0.000
 Translational            0.889              2.981             34.922
 Rotational               0.592              1.987              6.563
 Vibrational              5.852              0.000              0.000

 Optimization completed.
    -- Stationary point found.
 Normal termination of Gaussian 09 at Sun Jun 19 04:48:58 2016.
