 Gaussian 09, Revision E.01,
 Gaussian 09:  EM64L-G09RevE.01 30-Nov-2015

 ---------------------------------------------
 #p b3lyp/6-311++G(3df,2p) freq symmetry=Loose
 ---------------------------------------------

 ---------
 b3lyp opt
 ---------
 Symbolic Z-matrix:
 Charge =  1 Multiplicity = 2

                         Standard orientation:
 ---------------------------------------------------------------------
 Center     Atomic      Atomic             Coordinates (Angstroms)
 Number     Number       Type             X           Y           Z
 ---------------------------------------------------------------------
      1          1           0        0.000000    0.000000   -0.910813
      2          9           0        0.000000    0.000000    0.101202
 ---------------------------------------------------------------------

 SCF Done:  E(UB3LYP) =  -99.8917257513     A.U. after    9 cycles

 Unable to determine electronic state:  partially filled degenerate orbitals.
 Alpha  occ. eigenvalues --  -25.33733  -1.78967  -1.08731  -1.07354  -0.98060
 Alpha virt. eigenvalues --   -0.37337  -0.15185  -0.10165  -0.09178  -0.06707
 Alpha virt. eigenvalues --    0.02146   0.13287   0.28126   0.29411   0.60776
 Alpha virt. eigenvalues --    0.60817   0.73322   0.78437   0.82398   0.89877

  Beta  occ. eigenvalues --  -25.30338  -1.69908  -1.05612  -0.94746
  Beta virt. eigenvalues --   -0.76189  -0.36581  -0.14886  -0.08918  -0.07899
  Beta virt. eigenvalues --   -0.06378   0.02524   0.13407   0.29197   0.29253
  Beta virt. eigenvalues --    0.63783   0.64107   0.73947   0.83489   0.85647

 Mulliken charges and spin densities:
               1          2
     1  H    0.706400  -0.020817
     2  F    0.293600   1.020817
 Sum of Mulliken charges =   1.00000   1.00000

 Dipole moment (field-independent basis, Debye):
    X=              0.0000    Y=              0.0000    Z=             -2.3592  Tot=              2.3592
 Quadrupole moment (field-independent basis, Debye-Ang):
   XX=             -4.4921   YY=             -3.7134   ZZ=             -1.4552
   XY=              0.0000   XZ=              0.0000   YZ=              0.0000

  Exact polarizability:   2.434  -0.000   2.412  -0.000   0.000   3.946
 Approx polarizability:   2.629  -0.000   2.845  -0.000  -0.000   4.898

                      1
                     SG
 Frequencies --   3002.9553
 Red. masses --      1.0583
 Frc consts  --      5.6229
 IR Inten    --    534.0690

 - Thermochemistry -
 -------------------
 Temperature   298.150 Kelvin.  Pressure   1.00000 Atm.
 Atom     1 has atomic number  1 and mass   1.00783

 Molecular mass:    20.00623 amu.
 Principal axes and moments of inertia in atomic units:
                           1         2         3
     Eigenvalues --     0.00000   3.50033   3.50033
           X            0.00000  -0.00000   1.00000
           Y            0.00000   1.00000   0.00000
           Z            1.00000   0.00000   0.00000
 This molecule is a prolate symmetric top.
 Rotational symmetry number  1.
 Rotational temperature (Kelvin)     24.74449
 Rotational constant (GHZ):         515.592121
 Zero-point vibrational energy      17961.7 (Joules/Mol)
                                    4.29294 (Kcal/Mol)
 Vibrational temperatures:   4320.58
          (Kelvin)

 Zero-point correction=                           0.006841 (Hartree/Particle)
 Thermal correction to Energy=                    0.009202
 Thermal correction to Enthalpy=                  0.010146
 Thermal correction to Gibbs Free Energy=        -0.010395
 Sum of electronic and zero-point Energies=            -99.884885
 Sum of electronic and thermal Energies=               -99.882524
 Sum of electronic and thermal Enthalpies=             -99.881580
 Sum of electronic and thermal Free Energies=          -99.902121

                     E (Thermal)             CV                S
                      KCal/Mol        Cal/Mol-Kelvin    Cal/Mol-Kelvin
 Total                    5.774              4.968             43.232
 Electronic               0.000              0.000              1.377
 Translational            0.889              2.981             34.922
 Rotational               0.592              1.987              6.933
 Vibrational              4.293              0.000              0.000

 Optimization completed.
    -- Stationary point found.
 Normal termination of Gaussian 09 at Sun Jun 19 04:48:59 2016.
