 Gaussian 09, Revision E.01,
 Gaussian 09:  EM64L-G09RevE.01 30-Nov-2015

 ---------------------------------------------
 #p b3lyp/6-311++G(3df,2p) freq symmetry=Loose
 ---------------------------------------------

 ---------
 b3lyp opt
 ---------
 Symbolic Z-matrix:
 Charge =  1 Multiplicity = 3

                         Standard orientation:
 ---------------------------------------------------------------------
 Center     Atomic      Atomic             Coordinates (Angstroms)
 Number     Number       Type             X           Y           Z
 ---------------------------------------------------------------------
      1          1           0       -0.887190   -1.128617   -0.000000
      2          9           0        0.049288    1.012745    0.000000
      3          9           0        0.049288   -0.887343   -0.000000
 ---------------------------------------------------------------------

 SCF Done:  E(UB3LYP) =  -199.718138105     A.U. after   16 cycles

 The electronic state is 3-A".
 Alpha  occ. eigenvalues --  -25.23714 -25.15371  -1.67375  -1.62697  -0.98648
 Alpha  occ. eigenvalues --   -0.96865  -0.94432  -0.87397  -0.84581  -0.84245
 Alpha virt. eigenvalues --   -0.28328  -0.12813  -0.08155  -0.07628  -0.05737
 Alpha virt. eigenvalues --   -0.00079   0.01545   0.01744   0.08088   0.14113
 Alpha virt. eigenvalues --    0.20393   0.37301   0.37413   0.53927   0.66482

  Beta  occ. eigenvalues --  -25.18700 -25.13264  -1.60115  -1.51282  -0.94798
  Beta  occ. eigenvalues --   -0.83261  -0.82305  -0.82175
  Beta virt. eigenvalues --   -0.64313  -0.63314  -0.27802  -0.12172  -0.07289
  Beta virt. eigenvalues --   -0.06395  -0.05373   0.00759   0.02431   0.02908
  Beta virt. eigenvalues --    0.08357   0.14652   0.20579   0.37429   0.37884

 Mulliken charges and spin densities:
               1          2
     1  H    0.634244  -0.011946
     2  F    0.441319   1.434724
     3  F   -0.075563   0.577221
 Sum of Mulliken charges =   1.00000   2.00000

 Dipole moment (field-independent basis, Debye):
    X=             -2.0499    Y=             -0.9187    Z=             -0.0000  Tot=              2.2463
 Quadrupole moment (field-independent basis, Debye-Ang):
   XX=             -6.6875   YY=             -2.4818   ZZ=             -8.5663
   XY=              2.7995   XZ=              0.0000   YZ=              0.0000

  Exact polarizability:   6.583   1.518  24.163   0.000  -0.000   5.208
 Approx polarizability:   8.055   0.981  40.961   0.000   0.000   6.177

                      1                      2                      3
                     A'                     A'                     A'
 Frequencies --    404.1004               702.4531              3481.0782
 Red. masses --     11.1563                 1.1139                 1.0585
 Frc consts  --      1.0734                 0.3239                 7.5573
 IR Inten    --      3.6167               134.5860               679.0983

 - Thermochemistry -
 -------------------
 Temperature   298.150 Kelvin.  Pressure   1.00000 Atm.
 Atom     1 has atomic number  1 and mass   1.00783

 Molecular mass:    39.00463 amu.
 Principal axes and moments of inertia in atomic units:
                           1         2         3
     Eigenvalues --     2.95185 127.56957 130.52142
           X            0.03140   0.99951   0.00000
           Y            0.99951  -0.03140   0.00000
           Z           -0.00000  -0.00000   1.00000
 This molecule is an asymmetric top.
 Rotational symmetry number  1.
 Rotational temperatures (Kelvin)     29.34221     0.67895     0.66360
 Rotational constants (GHZ):         611.39319    14.14711    13.82716
 Zero-point vibrational energy      27440.1 (Joules/Mol)
                                    6.55835 (Kcal/Mol)
 Warning -- explicit consideration of   1 degrees of freedom as
           vibrations may cause significant error
 Vibrational temperatures:    581.41  1010.67  5008.49
          (Kelvin)

 Zero-point correction=                           0.010451 (Hartree/Particle)
 Thermal correction to Energy=                    0.013701
 Thermal correction to Enthalpy=                  0.014645
 Thermal correction to Gibbs Free Energy=        -0.013332
 Sum of electronic and zero-point Energies=           -199.707687
 Sum of electronic and thermal Energies=              -199.704437
 Sum of electronic and thermal Enthalpies=            -199.703493
 Sum of electronic and thermal Free Energies=         -199.731470

                     E (Thermal)             CV                S
                      KCal/Mol        Cal/Mol-Kelvin    Cal/Mol-Kelvin
 Total                    8.598              8.247             58.882
 Electronic               0.000              0.000              2.183
 Translational            0.889              2.981             36.912
 Rotational               0.889              2.981             18.536
 Vibrational              6.820              2.286              1.251
 Vibration     1          0.769              1.461              0.948

 Optimization completed.
    -- Stationary point found.
 Normal termination of Gaussian 09 at Sun Jun 19 04:49:06 2016.
