 Gaussian 09, Revision E.01,
 Gaussian 09:  EM64L-G09RevE.01 30-Nov-2015

 ------------------------------------------------------
 #p b3lyp/6-311++G(3df,2p) freq IOp(2/17=3) IOp(2/18=3)
 ------------------------------------------------------

 ---------
 b3lyp opt
 ---------
 Symbolic Z-matrix:
 Charge =  1 Multiplicity = 4

                         Standard orientation:
 ---------------------------------------------------------------------
 Center     Atomic      Atomic             Coordinates (Angstroms)
 Number     Number       Type             X           Y           Z
 ---------------------------------------------------------------------
      1          6           0        0.000000    0.000000   -1.398990
      2          6           0        0.000000    0.000000   -0.052218
      3          8           0       -0.000000   -0.000000    1.088406
 ---------------------------------------------------------------------

 SCF Done:  E(UB3LYP) =  -150.890906368     A.U. after   12 cycles

 The electronic state is 4-SG.
 Alpha  occ. eigenvalues --  -19.56749 -10.67199 -10.66177  -1.48851  -1.15525
 Alpha  occ. eigenvalues --   -0.86469  -0.81597  -0.81597  -0.77797  -0.64748
 Alpha  occ. eigenvalues --   -0.64748
 Alpha virt. eigenvalues --   -0.30439  -0.30439  -0.21337  -0.11928  -0.11928
 Alpha virt. eigenvalues --   -0.11727  -0.09612  -0.07108  -0.05728  -0.05728
 Alpha virt. eigenvalues --    0.00655   0.01099   0.01099   0.07410   0.07561

  Beta  occ. eigenvalues --  -19.55324 -10.66058 -10.62514  -1.46446  -1.07471
  Beta  occ. eigenvalues --   -0.84046  -0.77497  -0.77497
  Beta virt. eigenvalues --   -0.51269  -0.47152  -0.47152  -0.23006  -0.23006
  Beta virt. eigenvalues --   -0.20276  -0.11100  -0.11100  -0.09911  -0.06978
  Beta virt. eigenvalues --   -0.05590  -0.04744  -0.04744   0.01293   0.02660

 Mulliken charges and spin densities:
               1          2
     1  C    0.500994   2.547980
     2  C    0.753768  -0.033449
     3  O   -0.254762   0.485469
 Sum of Mulliken charges =   1.00000   3.00000

 Dipole moment (field-independent basis, Debye):
    X=              0.0000    Y=              0.0000    Z=             -3.1673  Tot=              3.1673
 Quadrupole moment (field-independent basis, Debye-Ang):
   XX=            -13.2146   YY=            -13.2146   ZZ=             -7.2073
   XY=             -0.0000   XZ=             -0.0000   YZ=              0.0000

  Exact polarizability:  11.882  -0.000  11.882  -0.000   0.000  28.512
 Approx polarizability:  15.235   0.000  15.235  -0.000  -0.000  54.894

                      1                      2                      3
                     PI                     PI                     SG
 Frequencies --    543.7624               543.7624              1151.7185
 Red. masses --     12.4793                12.4793                12.8618
 Frc consts  --      2.1740                 2.1740                10.0518
 IR Inten    --      5.0584                 5.0584                 3.0618

                      4
                     SG
 Frequencies --   2080.5158
 Red. masses --     13.0843
 Frc consts  --     33.3690
 IR Inten    --     59.0964

 - Thermochemistry -
 -------------------
 Temperature   298.150 Kelvin.  Pressure   1.00000 Atm.
 Atom     1 has atomic number  6 and mass  12.00000

 Molecular mass:    39.99491 amu.
 Principal axes and moments of inertia in atomic units:
                           1         2         3
     Eigenvalues --     0.00000 151.65167 151.65167
           X           -0.00000   0.65853   0.75256
           Y           -0.00000   0.75256  -0.65853
           Z            1.00000   0.00000   0.00000
 This molecule is a prolate symmetric top.
 Rotational symmetry number  1.
 Rotational temperature (Kelvin)      0.57114
 Rotational constant (GHZ):          11.900569
 Zero-point vibrational energy      25837.9 (Joules/Mol)
                                    6.17541 (Kcal/Mol)
 Warning -- explicit consideration of   2 degrees of freedom as
           vibrations may cause significant error
 Vibrational temperatures:    782.35   782.35  1657.06  2993.39
          (Kelvin)

 Zero-point correction=                           0.009841 (Hartree/Particle)
 Thermal correction to Energy=                    0.012610
 Thermal correction to Enthalpy=                  0.013554
 Thermal correction to Gibbs Free Energy=        -0.012735
 Sum of electronic and zero-point Energies=           -150.881065
 Sum of electronic and thermal Energies=              -150.878297
 Sum of electronic and thermal Enthalpies=            -150.877352
 Sum of electronic and thermal Free Energies=         -150.903641

                     E (Thermal)             CV                S
                      KCal/Mol        Cal/Mol-Kelvin    Cal/Mol-Kelvin
 Total                    7.913              7.522             55.330
 Electronic               0.000              0.000              2.755
 Translational            0.889              2.981             36.986
 Rotational               0.592              1.987             14.423
 Vibrational              6.432              2.554              1.166
 Vibration     1          0.899              1.153              0.557
 Vibration     2          0.899              1.153              0.557

 Normal termination of Gaussian 09 at Fri Mar  1 07:22:31 2019.
