 Gaussian 09, Revision E.01,
 Gaussian 09:  EM64L-G09RevE.01 30-Nov-2015

 ------------------------------------------------------
 #p b3lyp/6-311++G(3df,2p) freq IOp(2/17=3) IOp(2/18=3)
 ------------------------------------------------------

 ---------
 b3lyp opt
 ---------
 Symbolic Z-matrix:
 Charge =  0 Multiplicity = 1

                         Standard orientation:
 ---------------------------------------------------------------------
 Center     Atomic      Atomic             Coordinates (Angstroms)
 Number     Number       Type             X           Y           Z
 ---------------------------------------------------------------------
      1          6           0       -0.000000    0.745667   -0.446108
      2          6           0       -0.000000   -0.745667   -0.446108
      3          8           0        0.000000    0.000000    0.669286
 ---------------------------------------------------------------------

 SCF Done:  E(RB3LYP) =  -151.246450973     A.U. after    9 cycles

 The electronic state is 1-A1.
 Alpha  occ. eigenvalues --  -19.30403 -10.30640 -10.30611  -1.25062  -0.70675
 Alpha  occ. eigenvalues --   -0.65613  -0.53966  -0.45468  -0.33858  -0.30226
 Alpha virt. eigenvalues --   -0.15179  -0.07728   0.02153   0.03892   0.04094
 Alpha virt. eigenvalues --    0.05339   0.07531   0.09059   0.10804   0.12124
 Alpha virt. eigenvalues --    0.16083   0.16131   0.18065   0.18299   0.24011

 Mulliken charges:
               1
     1  C    0.036690
     2  C    0.036690
     3  O   -0.073380
 Sum of Mulliken charges =   0.00000

 Dipole moment (field-independent basis, Debye):
    X=              0.0000    Y=              0.0000    Z=              0.6225  Tot=              0.6225
 Quadrupole moment (field-independent basis, Debye-Ang):
   XX=            -14.9494   YY=            -20.9760   ZZ=            -17.6502
   XY=             -0.0000   XZ=             -0.0000   YZ=             -0.0000

  Exact polarizability:  20.350  -0.000  27.833   0.000  -0.000  21.759
 Approx polarizability:  31.858   0.000  38.980   0.000   0.000  36.433

                      1                      2                      3
                     B2                     A1                     A1
 Frequencies --    940.6575               956.3635              1416.1997
 Red. masses --     13.0307                12.8249                13.1227
 Frc consts  --      6.7933                 6.9112                15.5068
 IR Inten    --     30.9281                 5.3926                59.7462

 - Thermochemistry -
 -------------------
 Temperature   298.150 Kelvin.  Pressure   1.00000 Atm.
 Atom     1 has atomic number  6 and mass  12.00000

 Molecular mass:    39.99491 amu.
 Principal axes and moments of inertia in atomic units:
                           1         2         3
     Eigenvalues --    42.64250  47.65397  90.29647
           X            0.00000   0.00000   1.00000
           Y            1.00000   0.00000   0.00000
           Z           -0.00000   1.00000  -0.00000
 This molecule is an asymmetric top.
 Rotational symmetry number  2.
 Rotational temperatures (Kelvin)      2.03116     1.81756     0.95922
 Rotational constants (GHZ):          42.32259    37.87179    19.98684
 Zero-point vibrational energy      19817.5 (Joules/Mol)
                                    4.73649 (Kcal/Mol)
 Vibrational temperatures:   1353.39  1375.99  2037.59
          (Kelvin)

 Zero-point correction=                           0.007548 (Hartree/Particle)
 Thermal correction to Energy=                    0.010477
 Thermal correction to Enthalpy=                  0.011422
 Thermal correction to Gibbs Free Energy=        -0.015044
 Sum of electronic and zero-point Energies=           -151.238903
 Sum of electronic and thermal Energies=              -151.235974
 Sum of electronic and thermal Enthalpies=            -151.235029
 Sum of electronic and thermal Free Energies=         -151.261495

                     E (Thermal)             CV                S
                      KCal/Mol        Cal/Mol-Kelvin    Cal/Mol-Kelvin
 Total                    6.575              6.936             55.701
 Electronic               0.000              0.000              0.000
 Translational            0.889              2.981             36.986
 Rotational               0.889              2.981             18.468
 Vibrational              4.797              0.974              0.247

 Optimization completed.
    -- Stationary point found.

 1\1\GINC-BOHRIO\Freq\RB3LYP\6-311++G(3df,2p)\C2O1\ROOT\01-Mar-2019\0\\
 #p b3lyp/6-311++G(3df,2p) freq IOp(2/17=3) IOp(2/18=3)\\b3lyp opt\\0,1
 \C,0.240225,0.870643,0.\C,0.820108141,-0.5033343557,0.\O,-0.4974540833
 ,-0.2500499816,0.\\Version=EM64L-G09RevE.01\State=1-A1\HF=-151.246451\
 RMSD=6.178e-09\RMSF=1.414e-05\ZeroPoint=0.0075481\Thermal=0.0104774\Di
 pole=-0.2256551,-0.0952371,0.\DipoleDeriv=0.1192944,0.3230461,0.,0.236
 9565,0.4188995,0.,0.,0.,-0.0581222,0.5529936,-0.185327,0.,-0.0992374,-
 0.0147997,0.,0.,0.,-0.0581222,-0.672288,-0.1377191,0.,-0.1377191,-0.40

 Normal termination of Gaussian 09 at Fri Mar  1 07:22:29 2019.
