 Gaussian 09, Revision E.01,
 Gaussian 09:  EM64L-G09RevE.01 30-Nov-2015

 ------------------------------------------------------
 #p b3lyp/6-311++G(3df,2p) freq IOp(2/17=3) IOp(2/18=3)
 ------------------------------------------------------

 ---------
 b3lyp opt
 ---------
 Symbolic Z-matrix:
 Charge =  0 Multiplicity = 3

                         Standard orientation:
 ---------------------------------------------------------------------
 Center     Atomic      Atomic             Coordinates (Angstroms)
 Number     Number       Type             X           Y           Z
 ---------------------------------------------------------------------
      1          6           0       -0.000000    0.000000   -0.055160
      2          6           0       -0.000000    0.000000   -1.425619
      3          8           0        0.000000   -0.000000    1.110584
 ---------------------------------------------------------------------

 SCF Done:  E(UB3LYP) =  -151.315384363     A.U. after   12 cycles

 The electronic state is 3-SG.
 Alpha  occ. eigenvalues --  -19.26161 -10.33353 -10.27276  -1.18447  -0.81450
 Alpha  occ. eigenvalues --   -0.58474  -0.52298  -0.52298  -0.35957  -0.31123
 Alpha  occ. eigenvalues --   -0.31123
 Alpha virt. eigenvalues --   -0.00976  -0.00632  -0.00632   0.05224   0.05382
 Alpha virt. eigenvalues --    0.05382   0.08817   0.10404   0.10404   0.13869
 Alpha virt. eigenvalues --    0.16768   0.23675   0.23675   0.25274   0.25276

  Beta  occ. eigenvalues --  -19.24778 -10.33064 -10.25480  -1.16111  -0.75228
  Beta  occ. eigenvalues --   -0.56470  -0.48126  -0.48126  -0.32403
  Beta virt. eigenvalues --   -0.17724  -0.17724  -0.00477   0.03722   0.03722
  Beta virt. eigenvalues --    0.05525   0.06350   0.06350   0.09050   0.11447
  Beta virt. eigenvalues --    0.11447   0.14440   0.17679   0.24182   0.24182

 Mulliken charges and spin densities:
               1          2
     1  C    0.653268   0.284949
     2  C   -0.210678   1.255639
     3  O   -0.442590   0.459412
 Sum of Mulliken charges =  -0.00000   2.00000

 Dipole moment (field-independent basis, Debye):
    X=              0.0000    Y=             -0.0000    Z=              1.2956  Tot=              1.2956
 Quadrupole moment (field-independent basis, Debye-Ang):
   XX=            -16.0509   YY=            -16.0509   ZZ=            -22.4713
   XY=              0.0000   XZ=             -0.0000   YZ=              0.0000

  Exact polarizability:  20.752   0.000  20.752  -0.000   0.000  39.645
 Approx polarizability:  26.562  -0.000  26.562   0.000  -0.000  66.861

                      1                      2                      3
                     PI                     PI                     SG
 Frequencies --    420.5365               420.5365              1053.3590
 Red. masses --     12.4773                12.4773                12.8770
 Frc consts  --      1.3001                 1.3001                 8.4182
 IR Inten    --     36.0173                36.0173                18.3968

                      4
                     SG
 Frequencies --   1979.8922
 Red. masses --     13.0686
 Frc consts  --     30.1830
 IR Inten    --    157.9901

 - Thermochemistry -
 -------------------
 Temperature   298.150 Kelvin.  Pressure   1.00000 Atm.
 Atom     1 has atomic number  6 and mass  12.00000

 Molecular mass:    39.99491 amu.
 Principal axes and moments of inertia in atomic units:
                           1         2         3
     Eigenvalues --     0.00000 157.67414 157.67414
           X            0.00000  -0.06238   0.99805
           Y           -0.00000   0.99805   0.06238
           Z            1.00000   0.00000   0.00000
 This molecule is a prolate symmetric top.
 Rotational symmetry number  1.
 Rotational temperature (Kelvin)      0.54932
 Rotational constant (GHZ):          11.446019
 Zero-point vibrational energy      23173.6 (Joules/Mol)
                                    5.53862 (Kcal/Mol)
 Warning -- explicit consideration of   2 degrees of freedom as
           vibrations may cause significant error
 Vibrational temperatures:    605.06   605.06  1515.55  2848.62
          (Kelvin)

 Zero-point correction=                           0.008826 (Hartree/Particle)
 Thermal correction to Energy=                    0.011797
 Thermal correction to Enthalpy=                  0.012741
 Thermal correction to Gibbs Free Energy=        -0.013641
 Sum of electronic and zero-point Energies=           -151.306558
 Sum of electronic and thermal Energies=              -151.303587
 Sum of electronic and thermal Enthalpies=            -151.302643
 Sum of electronic and thermal Free Energies=         -151.329025

                     E (Thermal)             CV                S
                      KCal/Mol        Cal/Mol-Kelvin    Cal/Mol-Kelvin
 Total                    7.403              8.154             55.527
 Electronic               0.000              0.000              2.183
 Translational            0.889              2.981             36.986
 Rotational               0.592              1.987             14.500
 Vibrational              5.922              3.186              1.857
 Vibration     1          0.783              1.426              0.890
 Vibration     2          0.783              1.426              0.890

 Normal termination of Gaussian 09 at Fri Mar  1 07:22:30 2019.
