 Gaussian 09, Revision E.01,
 Gaussian 09:  EM64L-G09RevE.01 30-Nov-2015

 ------------------------------------------------------
 #p b3lyp/6-311++G(3df,2p) freq IOp(2/17=3) IOp(2/18=3)
 ------------------------------------------------------

 ---------
 b3lyp opt
 ---------
 Symbolic Z-matrix:
 Charge =  0 Multiplicity = 1

                         Standard orientation:
 ---------------------------------------------------------------------
 Center     Atomic      Atomic             Coordinates (Angstroms)
 Number     Number       Type             X           Y           Z
 ---------------------------------------------------------------------
      1          6           0       -0.000000    0.000000   -0.055996
      2          6           0       -0.000000    0.000000   -1.433701
      3          8           0        0.000000   -0.000000    1.117273
 ---------------------------------------------------------------------

 SCF Done:  E(RB3LYP) =  -151.275284378     A.U. after   10 cycles

 Unable to determine electronic state:  partially filled degenerate orbitals.
 Alpha  occ. eigenvalues --  -19.25273 -10.32948 -10.28214  -1.16567  -0.78577
 Alpha  occ. eigenvalues --   -0.57163  -0.49784  -0.49581  -0.35099  -0.27591
 Alpha virt. eigenvalues --   -0.21906  -0.00791   0.01191   0.01292   0.05262
 Alpha virt. eigenvalues --    0.05498   0.05795   0.08852   0.10525   0.10721
 Alpha virt. eigenvalues --    0.13885   0.16944   0.23854   0.24062   0.25973

 Mulliken charges:
               1
     1  C    0.614386
     2  C   -0.171832
     3  O   -0.442554
 Sum of Mulliken charges =   0.00000

 Dipole moment (field-independent basis, Debye):
    X=             -0.0000    Y=              0.0000    Z=              1.0644  Tot=              1.0644
 Quadrupole moment (field-independent basis, Debye-Ang):
   XX=            -14.4460   YY=            -17.9624   ZZ=            -22.2941
   XY=              0.0000   XZ=             -0.0000   YZ=              0.0000

  Exact polarizability:  19.294   0.000  20.406  -0.000  -0.000  39.534
 Approx polarizability:  29.190  -0.000  26.072   0.000  -0.000  73.667

                      1                      2                      3
                     PI                     PI                     SG
 Frequencies --    380.7056               516.4562              1042.8135
 Red. masses --     12.4767                12.4767                12.9096
 Frc consts  --      1.0654                 1.9607                 8.2714
 IR Inten    --     59.1113                 2.0244                30.7281

                      4
                     SG
 Frequencies --   1959.5109
 Red. masses --     13.0352
 Frc consts  --     29.4892
 IR Inten    --    121.6524

 - Thermochemistry -
 -------------------
 Temperature   298.150 Kelvin.  Pressure   1.00000 Atm.
 Atom     1 has atomic number  6 and mass  12.00000

 Molecular mass:    39.99491 amu.
 Principal axes and moments of inertia in atomic units:
                           1         2         3
     Eigenvalues --     0.00000 159.51956 159.51956
           X            0.00000  -0.06236   0.99805
           Y           -0.00000   0.99805   0.06236
           Z            1.00000   0.00000   0.00000
 This molecule is a prolate symmetric top.
 Rotational symmetry number  1.
 Rotational temperature (Kelvin)      0.54297
 Rotational constant (GHZ):          11.313605
 Zero-point vibrational energy      23324.1 (Joules/Mol)
                                    5.57460 (Kcal/Mol)
 Warning -- explicit consideration of   2 degrees of freedom as
           vibrations may cause significant error
 Vibrational temperatures:    547.75   743.06  1500.37  2819.30
          (Kelvin)

 Zero-point correction=                           0.008884 (Hartree/Particle)
 Thermal correction to Energy=                    0.011817
 Thermal correction to Enthalpy=                  0.012761
 Thermal correction to Gibbs Free Energy=        -0.012537
 Sum of electronic and zero-point Energies=           -151.266401
 Sum of electronic and thermal Energies=              -151.263468
 Sum of electronic and thermal Enthalpies=            -151.262523
 Sum of electronic and thermal Free Energies=         -151.287821

                     E (Thermal)             CV                S
                      KCal/Mol        Cal/Mol-Kelvin    Cal/Mol-Kelvin
 Total                    7.415              8.039             53.244
 Electronic               0.000              0.000              0.000
 Translational            0.889              2.981             36.986
 Rotational               0.592              1.987             14.523
 Vibrational              5.934              3.071              1.735
 Vibration     1          0.750              1.511              1.036
 Vibration     2          0.871              1.214              0.618

 1\1\GINC-BOHRIO\Freq\RB3LYP\6-311++G(3df,2p)\C2O1\ROOT\01-Mar-2019\0\\
 #p b3lyp/6-311++G(3df,2p) freq IOp(2/17=3) IOp(2/18=3)\\b3lyp opt\\0,1
 \C,-0.1556269286,-0.0789319153,0.\C,-1.5182729701,0.1242104595,0.\O,1.
 004817174,-0.2519301581,0.\\Version=EM64L-G09RevE.01\HF=-151.2752844\R
 MSD=1.254e-09\RMSF=8.519e-03\ZeroPoint=0.0088837\Thermal=0.0118169\Dip
 ole=0.4141822,-0.061746,0.\DipoleDeriv=0.8479116,-0.1053414,-0.0124988
 ,-0.1053414,0.1570028,-0.0838402,-0.0124988,-0.0838402,0.6972631,0.300
 1177,-0.0673906,0.0057477,-0.0673906,-0.1418808,0.0385546,0.0057477,0.

 Normal termination of Gaussian 09 at Fri Mar  1 07:22:30 2019.
