 Gaussian 09, Revision E.01,
 Gaussian 09:  EM64L-G09RevE.01 30-Nov-2015

 ------------------------------------------------------
 #p b3lyp/6-311++G(3df,2p) freq IOp(2/17=3) IOp(2/18=3)
 ------------------------------------------------------

 ---------
 b3lyp opt
 ---------
 Symbolic Z-matrix:
 Charge =  1 Multiplicity = 2

                         Standard orientation:
 ---------------------------------------------------------------------
 Center     Atomic      Atomic             Coordinates (Angstroms)
 Number     Number       Type             X           Y           Z
 ---------------------------------------------------------------------
      1          6           0        1.238639   -0.015755   -0.252750
      2          6           0       -1.356047   -0.005162    0.277054
      3          8           0        0.088056    0.015688   -0.018228
 ---------------------------------------------------------------------

 SCF Done:  E(UB3LYP) =  -150.843534424     A.U. after   40 cycles

 The electronic state is 2-A.
 Alpha  occ. eigenvalues --  -19.61139 -10.68743 -10.66555  -1.53223  -1.15118
 Alpha  occ. eigenvalues --   -0.84575  -0.84305  -0.76750  -0.68494  -0.57871
 Alpha virt. eigenvalues --   -0.47084  -0.35900  -0.34300  -0.26301  -0.17416
 Alpha virt. eigenvalues --   -0.11342  -0.11124  -0.09992  -0.07439  -0.05939
 Alpha virt. eigenvalues --   -0.05782  -0.02494   0.03278   0.03535   0.03763

  Beta  occ. eigenvalues --  -19.61286 -10.67166 -10.66268  -1.53084  -1.13389
  Beta  occ. eigenvalues --   -0.84370  -0.83813  -0.73150  -0.67497
  Beta virt. eigenvalues --   -0.45620  -0.41845  -0.33847  -0.31960  -0.24397
  Beta virt. eigenvalues --   -0.17251  -0.11025  -0.10417  -0.09847  -0.07355
  Beta virt. eigenvalues --   -0.05730  -0.05354  -0.02316   0.03238   0.03663

 Mulliken charges and spin densities:
               1          2
     1  C    0.345386   0.151131
     2  C    0.484189   0.905513
     3  O    0.170424  -0.056645
 Sum of Mulliken charges =   1.00000   1.00000

 Dipole moment (field-independent basis, Debye):
    X=             -0.5633    Y=             -0.0085    Z=              0.1153  Tot=              0.5750
 Quadrupole moment (field-independent basis, Debye-Ang):
   XX=             -9.7838   YY=            -12.7789   ZZ=            -14.0997
   XY=             -0.0010   XZ=             -0.9200   YZ=             -0.0066

  Exact polarizability:  33.483  -0.083  16.359  -3.516   0.020  16.981
 Approx polarizability:  54.463  -0.255  25.401  -6.765   0.033  22.709

                      1                      2                      3
                      A                      A                      A
 Frequencies --     80.6151               204.4547              1708.7528
 Red. masses --     14.1030                12.7907                13.1583
 Frc consts  --      0.0540                 0.3150                22.6364
 IR Inten    --      0.8957               191.7124               255.4969

 - Thermochemistry -
 -------------------
 Temperature   298.150 Kelvin.  Pressure   1.00000 Atm.
 Atom     1 has atomic number  6 and mass  12.00000

 Molecular mass:    39.99491 amu.
 Principal axes and moments of inertia in atomic units:
                           1         2         3
     Eigenvalues --     0.02440 151.03650 151.06090
           X            0.97978   0.00000   0.20010
           Y           -0.00309   0.99988   0.01513
           Z           -0.20007  -0.01545   0.97966
 This molecule is an asymmetric top.
 Rotational symmetry number  1.
 Rotational temperatures (Kelvin)   3549.79167     0.57346     0.57337
 Rotational constants (GHZ):       73965.74520    11.94904    11.94711
 Zero-point vibrational energy      11925.7 (Joules/Mol)
                                    2.85031 (Kcal/Mol)
 Warning -- explicit consideration of   2 degrees of freedom as
           vibrations may cause significant error
 Vibrational temperatures:    115.99   294.16  2458.51
          (Kelvin)

 Zero-point correction=                           0.004542 (Hartree/Particle)
 Thermal correction to Energy=                    0.008703
 Thermal correction to Enthalpy=                  0.009647
 Thermal correction to Gibbs Free Energy=        -0.018111
 Sum of electronic and zero-point Energies=           -150.838992
 Sum of electronic and thermal Energies=              -150.834831
 Sum of electronic and thermal Enthalpies=            -150.833887
 Sum of electronic and thermal Free Energies=         -150.861645

                     E (Thermal)             CV                S
                      KCal/Mol        Cal/Mol-Kelvin    Cal/Mol-Kelvin
 Total                    5.461              9.793             58.422
 Electronic               0.000              0.000              1.377
 Translational            0.889              2.981             36.986
 Rotational               0.889              2.981             14.084
 Vibrational              3.684              3.831              5.973
 Vibration     1          0.600              1.962              3.876
 Vibration     2          0.640              1.834              2.093

 Normal termination of Gaussian 09 at Sun Mar  3 15:36:06 2019.
