 Gaussian 09, Revision E.01,
 Gaussian 09:  EM64L-G09RevE.01 30-Nov-2015

 ------------------------------------------------------
 #p b3lyp/6-311++G(3df,2p) freq IOp(2/17=3) IOp(2/18=3)
 ------------------------------------------------------

 ---------
 b3lyp opt
 ---------
 Symbolic Z-matrix:
 Charge =  0 Multiplicity = 1

                         Standard orientation:
 ---------------------------------------------------------------------
 Center     Atomic      Atomic             Coordinates (Angstroms)
 Number     Number       Type             X           Y           Z
 ---------------------------------------------------------------------
      1          6           0        1.085167    0.407943    0.000000
      2          6           0       -0.947156   -1.407327   -0.000000
      3          6           0       -0.138011   -0.411549   -0.000000
      4          8           0        0.000000    1.058200   -0.000000
 ---------------------------------------------------------------------

 SCF Done:  E(RB3LYP) =  -189.305484462     A.U. after   14 cycles

 The electronic state is 1-A'.
 Alpha  occ. eigenvalues --  -19.31163 -10.35418 -10.27271 -10.25617  -1.25293
 Alpha  occ. eigenvalues --   -0.80270  -0.70344  -0.62447  -0.54886  -0.46733
 Alpha  occ. eigenvalues --   -0.34264  -0.32631  -0.31734
 Alpha virt. eigenvalues --   -0.15899  -0.13121   0.00302   0.01257   0.03889
 Alpha virt. eigenvalues --    0.04547   0.05621   0.06576   0.06982   0.09533
 Alpha virt. eigenvalues --    0.10807   0.11264   0.13793   0.13990   0.15518

 Mulliken charges:
               1
     1  C   -0.124539
     2  C   -0.500704
     3  C    0.850431
     4  O   -0.225188
 Sum of Mulliken charges =  -0.00000

 Dipole moment (field-independent basis, Debye):
    X=              0.8170    Y=              1.9921    Z=              0.0000  Tot=              2.1531
 Quadrupole moment (field-independent basis, Debye-Ang):
   XX=            -25.0262   YY=            -25.7940   ZZ=            -22.0519
   XY=             -2.7621   XZ=             -0.0000   YZ=             -0.0000

  Exact polarizability:  42.958  15.151  45.267  -0.000   0.000  25.988
 Approx polarizability:  82.834  42.438  96.762   0.000   0.000  38.058

                      1                      2                      3
                     A'                     A"                     A'
 Frequencies --    208.5196               290.3155               646.1828
 Red. masses --     12.3471                12.0463                13.6506
 Frc consts  --      0.3163                 0.5982                 3.3582
 IR Inten    --     13.2727                 0.8197                 0.0148

                      4                      5                      6
                     A'                     A'                     A'
 Frequencies --    798.2859              1348.1107              1874.8829
 Red. masses --     12.4408                13.0733                12.1967
 Frc consts  --      4.6710                13.9987                25.2605
 IR Inten    --    124.8408               213.8512               239.6246

 - Thermochemistry -
 -------------------
 Temperature   298.150 Kelvin.  Pressure   1.00000 Atm.
 Atom     1 has atomic number  6 and mass  12.00000

 Molecular mass:    51.99491 amu.
 Principal axes and moments of inertia in atomic units:
                           1         2         3
     Eigenvalues --    39.77343 213.17248 252.94591
           X            0.53671   0.84377   0.00000
           Y            0.84377  -0.53671   0.00000
           Z           -0.00000  -0.00000   1.00000
 This molecule is an asymmetric top.
 Rotational symmetry number  1.
 Rotational temperatures (Kelvin)      2.17768     0.40631     0.34242
 Rotational constants (GHZ):          45.37555     8.46611     7.13489
 Zero-point vibrational energy      30901.3 (Joules/Mol)
                                    7.38559 (Kcal/Mol)
 Warning -- explicit consideration of   2 degrees of freedom as
           vibrations may cause significant error
 Vibrational temperatures:    300.01   417.70   929.71  1148.55  1939.63
          (Kelvin)           2697.53

 Zero-point correction=                           0.011770 (Hartree/Particle)
 Thermal correction to Energy=                    0.015808
 Thermal correction to Enthalpy=                  0.016752
 Thermal correction to Gibbs Free Energy=        -0.013750
 Sum of electronic and zero-point Energies=           -189.293715
 Sum of electronic and thermal Energies=              -189.289677
 Sum of electronic and thermal Enthalpies=            -189.288733
 Sum of electronic and thermal Free Energies=         -189.319234

                     E (Thermal)             CV                S
                      KCal/Mol        Cal/Mol-Kelvin    Cal/Mol-Kelvin
 Total                    9.919             11.216             64.195
 Electronic               0.000              0.000              0.000
 Translational            0.889              2.981             37.769
 Rotational               0.889              2.981             22.288
 Vibrational              8.142              5.254              4.139
 Vibration     1          0.642              1.828              2.057
 Vibration     2          0.686              1.692              1.472

 1\1\GINC-BOHRIO\Freq\RB3LYP\6-311++G(3df,2p)\C3O1\ROOT\01-Mar-2019\0\\
 #p b3lyp/6-311++G(3df,2p) freq IOp(2/17=3) IOp(2/18=3)\\b3lyp opt\\0,1
 \C,-0.221785962,1.1502950294,0.0312592664\C,1.3407700608,-1.082166953,
 0.022710825\C,0.4478488812,-0.1608120919,0.0134072957\O,-0.993680985,0
 .1511900116,-0.0486732903\\Version=EM64L-G09RevE.01\State=1-A'\HF=-189
 .3054845\RMSD=3.924e-09\RMSF=1.294e-04\ZeroPoint=0.0117697\Thermal=0.0
 158075\Dipole=-0.7396924,0.4122587,-0.0217596\DipoleDeriv=0.9096438,-0
 .4404627,0.0296491,0.1766365,0.3825002,0.0246275,0.054356,-0.0072959,-

 Normal termination of Gaussian 09 at Fri Mar  1 07:23:22 2019.
