 Gaussian 09, Revision E.01,
 Gaussian 09:  EM64L-G09RevE.01 30-Nov-2015

 ------------------------------------------------------
 #p b3lyp/6-311++G(3df,2p) freq IOp(2/17=3) IOp(2/18=3)
 ------------------------------------------------------

 ---------
 b3lyp opt
 ---------
 Symbolic Z-matrix:
 Charge =  0 Multiplicity = 1

                         Standard orientation:
 ---------------------------------------------------------------------
 Center     Atomic      Atomic             Coordinates (Angstroms)
 Number     Number       Type             X           Y           Z
 ---------------------------------------------------------------------
      1          6           0       -0.000000    0.000000    0.536348
      2          6           0        0.000000   -0.000000   -0.757549
      3          6           0        0.000000   -0.000000   -2.023735
      4          8           0       -0.000000    0.000000    1.683701
 ---------------------------------------------------------------------

 SCF Done:  E(RB3LYP) =  -189.463693535     A.U. after   12 cycles

 The electronic state is 1-SG.
 Alpha  occ. eigenvalues --  -19.25980 -10.36979 -10.25255 -10.21075  -1.19421
 Alpha  occ. eigenvalues --   -0.84359  -0.71757  -0.58046  -0.52434  -0.52434
 Alpha  occ. eigenvalues --   -0.34316  -0.34316  -0.32071
 Alpha virt. eigenvalues --   -0.12056  -0.12056  -0.00966   0.03761   0.04394
 Alpha virt. eigenvalues --    0.04394   0.06929   0.08219   0.08219   0.09960
 Alpha virt. eigenvalues --    0.12092   0.12092   0.15150   0.15150   0.16219

 Mulliken charges:
               1
     1  C   -0.318078
     2  C    1.466245
     3  C   -0.589861
     4  O   -0.558306
 Sum of Mulliken charges =   0.00000

 Dipole moment (field-independent basis, Debye):
    X=             -0.0000    Y=             -0.0000    Z=              2.2684  Tot=              2.2684
 Quadrupole moment (field-independent basis, Debye-Ang):
   XX=            -21.4133   YY=            -21.4133   ZZ=            -30.5585
   XY=             -0.0000   XZ=              0.0000   YZ=             -0.0000

  Exact polarizability:  24.557   0.000  24.557  -0.000  -0.000  66.464
 Approx polarizability:  34.398  -0.000  34.398  -0.000   0.000 158.674

                      1                      2                      3
                     PI                     PI                     PI
 Frequencies --    139.2289               139.2289               605.2417
 Red. masses --     12.3736                12.3736                12.4311
 Frc consts  --      0.1413                 0.1413                 2.6830
 IR Inten    --      6.8183                 6.8183                23.0060

                      4                      5                      6
                     PI                     SG                     SG
 Frequencies --    605.2417               967.0176              1976.7631
 Red. masses --     12.4311                13.2135                12.5357
 Frc consts  --      2.6830                 7.2801                28.8607
 IR Inten    --     23.0060                 1.4432                44.1078

                      7
                     SG
 Frequencies --   2334.8080
 Red. masses --     12.4787
 Frc consts  --     40.0795
 IR Inten    --   1616.0050

 - Thermochemistry -
 -------------------
 Temperature   298.150 Kelvin.  Pressure   1.00000 Atm.
 Atom     1 has atomic number  6 and mass  12.00000

 Molecular mass:    51.99491 amu.
 Principal axes and moments of inertia in atomic units:
                           1         2         3
     Eigenvalues --     0.00000 374.34690 374.34690
           X           -0.00000  -0.13494   0.99085
           Y            0.00000   0.99085   0.13494
           Z            1.00000  -0.00000   0.00000
 This molecule is a prolate symmetric top.
 Rotational symmetry number  1.
 Rotational temperature (Kelvin)      0.23137
 Rotational constant (GHZ):           4.821039
 Zero-point vibrational energy      40478.8 (Joules/Mol)
                                    9.67467 (Kcal/Mol)
 Warning -- explicit consideration of   4 degrees of freedom as
           vibrations may cause significant error
 Vibrational temperatures:    200.32   200.32   870.81   870.81  1391.32
          (Kelvin)           2844.12  3359.26

 Zero-point correction=                           0.015418 (Hartree/Particle)
 Thermal correction to Energy=                    0.019459
 Thermal correction to Enthalpy=                  0.020404
 Thermal correction to Gibbs Free Energy=        -0.008392
 Sum of electronic and zero-point Energies=           -189.448276
 Sum of electronic and thermal Energies=              -189.444234
 Sum of electronic and thermal Enthalpies=            -189.443290
 Sum of electronic and thermal Free Energies=         -189.472086

                     E (Thermal)             CV                S
                      KCal/Mol        Cal/Mol-Kelvin    Cal/Mol-Kelvin
 Total                   12.211             11.269             60.606
 Electronic               0.000              0.000              0.000
 Translational            0.889              2.981             37.769
 Rotational               0.592              1.987             16.218
 Vibrational             10.730              6.301              6.619
 Vibration     1          0.615              1.914              2.814
 Vibration     2          0.615              1.914              2.814
 Vibration     3          0.964              1.021              0.441
 Vibration     4          0.964              1.021              0.441

 Optimization completed.
    -- Stationary point found.

 1\1\GINC-BOHRIO\Freq\RB3LYP\6-311++G(3df,2p)\C3O1\ROOT\01-Mar-2019\0\\
 #p b3lyp/6-311++G(3df,2p) freq IOp(2/17=3) IOp(2/18=3)\\b3lyp opt\\0,1
 \C,0.0547316217,-0.6072154423,0.0271971071\C,0.2156865232,0.6720254724
 ,-0.0814547857\C,0.3731943691,1.923869802,-0.1877797589\O,-0.087993885
 4,-1.7415723741,0.1235433281\\Version=EM64L-G09RevE.01\State=1-SG\HF=-
 189.4636935\RMSD=1.078e-09\RMSF=5.654e-05\ZeroPoint=0.0154176\Thermal=
 0.0194593\Dipole=-0.1110186,-0.8823561,0.0749426\DipoleDeriv=0.5740247
 ,0.3158368,-0.0268255,0.3158368,3.0445003,-0.2132042,-0.0268255,-0.213

 Normal termination of Gaussian 09 at Fri Mar  1 07:23:09 2019.
