 Gaussian 09, Revision E.01,
 Gaussian 09:  EM64L-G09RevE.01 30-Nov-2015

 ------------------------------------------------------
 #p b3lyp/6-311++G(3df,2p) freq IOp(2/17=3) IOp(2/18=3)
 ------------------------------------------------------

 ---------
 b3lyp opt
 ---------
 Symbolic Z-matrix:
 Charge =  0 Multiplicity = 1

                         Standard orientation:
 ---------------------------------------------------------------------
 Center     Atomic      Atomic             Coordinates (Angstroms)
 Number     Number       Type             X           Y           Z
 ---------------------------------------------------------------------
      1          6           0       -0.000000    0.000000    1.786893
      2          6           0        0.000000   -0.000000   -1.932603
      3          6           0        0.000000   -0.000000   -0.678616
      4          8           0       -0.000000    0.000000    0.618244
 ---------------------------------------------------------------------

 SCF Done:  E(RB3LYP) =  -189.295773758     A.U. after   15 cycles

 The electronic state is 1-SG.
 Alpha  occ. eigenvalues --  -19.39845 -10.38123 -10.24932 -10.20816  -1.31219
 Alpha  occ. eigenvalues --   -0.93950  -0.73755  -0.62628  -0.62628  -0.45768
 Alpha  occ. eigenvalues --   -0.30502  -0.30502  -0.29211
 Alpha virt. eigenvalues --   -0.13588  -0.13588  -0.01308   0.02461   0.02930
 Alpha virt. eigenvalues --    0.02930   0.05980   0.05980   0.06945   0.09012
 Alpha virt. eigenvalues --    0.10186   0.10186   0.10991   0.14653   0.14653

 Mulliken charges:
               1
     1  C    0.201929
     2  C   -1.097069
     3  C    1.063425
     4  O   -0.168285
 Sum of Mulliken charges =  -0.00000

 Dipole moment (field-independent basis, Debye):
    X=             -0.0000    Y=              0.0000    Z=              4.4077  Tot=              4.4077
 Quadrupole moment (field-independent basis, Debye-Ang):
   XX=            -22.0608   YY=            -22.0608   ZZ=            -32.2539
   XY=              0.0000   XZ=              0.0000   YZ=             -0.0000

  Exact polarizability:  28.283  -0.000  28.283  -0.000  -0.000  84.817
 Approx polarizability:  40.746  -0.000  40.746  -0.000   0.000 222.353

                      1                      2                      3
                     PI                     PI                     PI
 Frequencies --    133.9477               133.9477               390.8803
 Red. masses --     12.1254                12.1254                14.0593
 Frc consts  --      0.1282                 0.1282                 1.2656
 IR Inten    --      1.3625                 1.3625                 6.5181

                      4                      5                      6
                     PI                     SG                     SG
 Frequencies --    390.8803               859.2211              1860.0945
 Red. masses --     14.0593                12.5850                13.4927
 Frc consts  --      1.2656                 5.4741                27.5055
 IR Inten    --      6.5181                 8.5270                 0.0300

                      7
                     SG
 Frequencies --   2013.7260
 Red. masses --     12.1928
 Frc consts  --     29.1310
 IR Inten    --    628.1264

 - Thermochemistry -
 -------------------
 Temperature   298.150 Kelvin.  Pressure   1.00000 Atm.
 Atom     1 has atomic number  6 and mass  12.00000

 Molecular mass:    51.99491 amu.
 Principal axes and moments of inertia in atomic units:
                           1         2         3
     Eigenvalues --     0.00000 338.44829 338.44829
           X           -0.00000  -0.64340   0.76553
           Y            0.00000   0.76553   0.64340
           Z            1.00000  -0.00000   0.00000
 This molecule is a prolate symmetric top.
 Rotational symmetry number  1.
 Rotational temperature (Kelvin)      0.25591
 Rotational constant (GHZ):           5.332399
 Zero-point vibrational energy      34588.2 (Joules/Mol)
                                    8.26678 (Kcal/Mol)
 Warning -- explicit consideration of   4 degrees of freedom as
           vibrations may cause significant error
 Vibrational temperatures:    192.72   192.72   562.39   562.39  1236.23
          (Kelvin)           2676.26  2897.30

 Zero-point correction=                           0.013174 (Hartree/Particle)
 Thermal correction to Energy=                    0.017579
 Thermal correction to Enthalpy=                  0.018523
 Thermal correction to Gibbs Free Energy=        -0.010804
 Sum of electronic and zero-point Energies=           -189.282600
 Sum of electronic and thermal Energies=              -189.278195
 Sum of electronic and thermal Enthalpies=            -189.277251
 Sum of electronic and thermal Free Energies=         -189.306578

                     E (Thermal)             CV                S
                      KCal/Mol        Cal/Mol-Kelvin    Cal/Mol-Kelvin
 Total                   11.031             12.376             61.725
 Electronic               0.000              0.000              0.000
 Translational            0.889              2.981             37.769
 Rotational               0.592              1.987             16.018
 Vibrational              9.550              7.408              7.939
 Vibration     1          0.613              1.919              2.889
 Vibration     2          0.613              1.919              2.889
 Vibration     3          0.759              1.490              0.997
 Vibration     4          0.759              1.490              0.997

 Optimization completed.
    -- Stationary point found.

 1\1\GINC-BOHRIO\Freq\RB3LYP\6-311++G(3df,2p)\C3O1\ROOT\01-Mar-2019\0\\
 #p b3lyp/6-311++G(3df,2p) freq IOp(2/17=3) IOp(2/18=3)\\b3lyp opt\\0,1
 \C,0.0082208975,1.7684822064,0.0430320384\C,0.2821219568,-1.940336156,
 -0.0224934259\C,0.1897792437,-0.6899490602,-0.0004022402\O,0.094279426
 5,0.6031875074,0.0224442208\\Version=EM64L-G09RevE.01\State=1-SG\HF=-1
 89.2957738\RMSD=1.946e-09\RMSF=7.569e-05\ZeroPoint=0.013174\Thermal=0.
 017579\Dipole=-0.1277009,1.7291631,0.0305499\DipoleDeriv=0.0273478,0.0
 043517,0.0000769,0.0043517,-0.0312558,-0.0010411,0.0000769,-0.0010411,

 Normal termination of Gaussian 09 at Fri Mar  1 07:23:12 2019.
