 Gaussian 09, Revision E.01,
 Gaussian 09:  EM64L-G09RevE.01 30-Nov-2015

 ------------------------------------------------------
 #p b3lyp/6-311++G(3df,2p) freq IOp(2/17=3) IOp(2/18=3)
 ------------------------------------------------------

 ---------
 b3lyp opt
 ---------
 Symbolic Z-matrix:
 Charge =  0 Multiplicity = 3

                         Standard orientation:
 ---------------------------------------------------------------------
 Center     Atomic      Atomic             Coordinates (Angstroms)
 Number     Number       Type             X           Y           Z
 ---------------------------------------------------------------------
      1          6           0       -0.197308   -0.753428   -0.000000
      2          6           0       -0.924175   -1.768718   -0.000000
      3          6           0        0.000000    0.612557    0.000000
      4          8           0        0.841113    1.432191    0.000000
 ---------------------------------------------------------------------

 SCF Done:  E(UB3LYP) =  -189.354159426     A.U. after   19 cycles

 The electronic state is 3-A'.
 Alpha  occ. eigenvalues --  -19.21279 -10.31669 -10.28505 -10.24992  -1.13854
 Alpha  occ. eigenvalues --   -0.84366  -0.70731  -0.53930  -0.48904  -0.47418
 Alpha  occ. eigenvalues --   -0.42537  -0.36541  -0.35272  -0.22951
 Alpha virt. eigenvalues --   -0.11693  -0.03697   0.03187   0.04064   0.04237
 Alpha virt. eigenvalues --    0.04959   0.06930   0.07028   0.08624   0.09381
 Alpha virt. eigenvalues --    0.11723   0.13465   0.13565   0.16485   0.18263

  Beta  occ. eigenvalues --  -19.20515 -10.30796 -10.26207 -10.24733  -1.12412
  Beta  occ. eigenvalues --   -0.81727  -0.67321  -0.52391  -0.46935  -0.44058
  Beta  occ. eigenvalues --   -0.33993  -0.33163
  Beta virt. eigenvalues --   -0.22864  -0.10099  -0.09302  -0.01108   0.04152
  Beta virt. eigenvalues --    0.04431   0.04712   0.05607   0.07711   0.07875
  Beta virt. eigenvalues --    0.09812   0.10012   0.11886   0.14060   0.14139

 Mulliken charges and spin densities:
               1          2
     1  C    0.551313  -0.106342
     2  C   -0.320172   1.317442
     3  C    0.227721   0.576680
     4  O   -0.458861   0.212221
 Sum of Mulliken charges =  -0.00000   2.00000

 Dipole moment (field-independent basis, Debye):
    X=             -0.3328    Y=             -1.0875    Z=              0.0000  Tot=              1.1373
 Quadrupole moment (field-independent basis, Debye-Ang):
   XX=            -23.6558   YY=            -22.3718   ZZ=            -21.4495
   XY=             -1.0506   XZ=             -0.0000   YZ=             -0.0000

  Exact polarizability:  48.578  27.881  67.983   0.000   0.000  27.106
 Approx polarizability:  73.500  55.132 127.440   0.000   0.000  34.054

                      1                      2                      3
                     A"                     A'                     A'
 Frequencies --    207.6341               235.1860               429.2225
 Red. masses --     12.4463                12.8081                12.2337
 Frc consts  --      0.3161                 0.4174                 1.3279
 IR Inten    --      0.9218                 2.4754                40.1979

                      4                      5                      6
                     A'                     A'                     A'
 Frequencies --    843.4688              1654.1660              1964.4038
 Red. masses --     12.8292                12.0916                13.1169
 Frc consts  --      5.3776                19.4935                29.8225
 IR Inten    --     61.8811               705.9639               197.8735

 - Thermochemistry -
 -------------------
 Temperature   298.150 Kelvin.  Pressure   1.00000 Atm.
 Atom     1 has atomic number  6 and mass  12.00000

 Molecular mass:    51.99491 amu.
 Principal axes and moments of inertia in atomic units:
                           1         2         3
     Eigenvalues --     5.07722 365.22622 370.30344
           X            0.45207   0.89198   0.00000
           Y            0.89198  -0.45207  -0.00000
           Z            0.00000  -0.00000   1.00000
 This molecule is an asymmetric top.
 Rotational symmetry number  1.
 Rotational temperatures (Kelvin)     17.05930     0.23715     0.23390
 Rotational constants (GHZ):         355.45857     4.94143     4.87368
 Zero-point vibrational energy      31904.9 (Joules/Mol)
                                    7.62545 (Kcal/Mol)
 Warning -- explicit consideration of   3 degrees of freedom as
           vibrations may cause significant error
 Vibrational temperatures:    298.74   338.38   617.55  1213.56  2379.97
          (Kelvin)           2826.34

 Zero-point correction=                           0.012152 (Hartree/Particle)
 Thermal correction to Energy=                    0.016393
 Thermal correction to Enthalpy=                  0.017337
 Thermal correction to Gibbs Free Energy=        -0.014048
 Sum of electronic and zero-point Energies=           -189.342007
 Sum of electronic and thermal Energies=              -189.337766
 Sum of electronic and thermal Enthalpies=            -189.336822
 Sum of electronic and thermal Free Energies=         -189.368207

                     E (Thermal)             CV                S
                      KCal/Mol        Cal/Mol-Kelvin    Cal/Mol-Kelvin
 Total                   10.287             11.623             66.055
 Electronic               0.000              0.000              2.183
 Translational            0.889              2.981             37.769
 Rotational               0.889              2.981             21.157
 Vibrational              8.509              5.661              4.947
 Vibration     1          0.641              1.829              2.064
 Vibration     2          0.655              1.787              1.839
 Vibration     3          0.791              1.407              0.861

 Normal termination of Gaussian 09 at Fri Mar  1 07:26:21 2019.
