 Gaussian 09, Revision E.01,
 Gaussian 09:  EM64L-G09RevE.01 30-Nov-2015

 ------------------------------------------------------
 #p b3lyp/6-311++G(3df,2p) freq IOp(2/17=3) IOp(2/18=3)
 ------------------------------------------------------

 ---------
 b3lyp opt
 ---------
 Symbolic Z-matrix:
 Charge =  1 Multiplicity = 4

                         Standard orientation:
 ---------------------------------------------------------------------
 Center     Atomic      Atomic             Coordinates (Angstroms)
 Number     Number       Type             X           Y           Z
 ---------------------------------------------------------------------
      1          6           0       -0.000000    0.834504    0.000000
      2          6           0       -0.956930    1.790113    0.000000
      3          6           0        0.091574   -0.557299   -0.000000
      4          8           0        0.649017   -1.550488   -0.000000
 ---------------------------------------------------------------------

 SCF Done:  E(UB3LYP) =  -188.922663842     A.U. after   17 cycles

 The electronic state is 4-A".
 Alpha  occ. eigenvalues --  -19.51546 -10.61446 -10.60707 -10.59480  -1.44133
 Alpha  occ. eigenvalues --   -1.14988  -0.99223  -0.81422  -0.76797  -0.76672
 Alpha  occ. eigenvalues --   -0.71143  -0.65827  -0.65060  -0.49865
 Alpha virt. eigenvalues --   -0.41261  -0.30792  -0.23485  -0.16133  -0.13625
 Alpha virt. eigenvalues --   -0.11385  -0.10938  -0.07634  -0.07262  -0.06461
 Alpha virt. eigenvalues --   -0.06203  -0.05332  -0.04416  -0.02150   0.00519

  Beta  occ. eigenvalues --  -19.50649 -10.60349 -10.58242 -10.58034  -1.42528
  Beta  occ. eigenvalues --   -1.09253  -0.94288  -0.79906  -0.74168  -0.73318
  Beta  occ. eigenvalues --   -0.59879
  Beta virt. eigenvalues --   -0.51823  -0.48593  -0.35467  -0.34545  -0.26060
  Beta virt. eigenvalues --   -0.18217  -0.15076  -0.12132  -0.10886  -0.10485
  Beta virt. eigenvalues --   -0.06934  -0.06073  -0.05761  -0.05638  -0.03801

 Mulliken charges and spin densities:
               1          2
     1  C    0.364692   0.678365
     2  C    0.224876   1.828449
     3  C    0.677485   0.198517
     4  O   -0.267054   0.294669
 Sum of Mulliken charges =   1.00000   3.00000

 Dipole moment (field-independent basis, Debye):
    X=             -1.4684    Y=              2.8412    Z=              0.0000  Tot=              3.1982
 Quadrupole moment (field-independent basis, Debye-Ang):
   XX=            -18.1432   YY=            -10.2962   ZZ=            -17.4704
   XY=             -4.1436   XZ=              0.0000   YZ=              0.0000

  Exact polarizability:  38.574 -20.693  56.942   0.000  -0.000  18.023
 Approx polarizability:  59.502 -42.368 113.901  -0.000   0.000  25.870

                      1                      2                      3
                     A'                     A"                     A'
 Frequencies --    212.5924               257.4223               392.4044
 Red. masses --     12.6442                12.8340                12.2274
 Frc consts  --      0.3367                 0.5011                 1.1093
 IR Inten    --     18.4658                 7.9568                10.1818

                      4                      5                      6
                     A'                     A'                     A'
 Frequencies --    733.2326              1309.4593              2071.7185
 Red. masses --     12.8350                12.1448                13.2399
 Frc consts  --      4.0657                12.2695                33.4808
 IR Inten    --     36.1055               210.6934               174.0805

 - Thermochemistry -
 -------------------
 Temperature   298.150 Kelvin.  Pressure   1.00000 Atm.
 Atom     1 has atomic number  6 and mass  12.00000

 Molecular mass:    51.99491 amu.
 Principal axes and moments of inertia in atomic units:
                           1         2         3
     Eigenvalues --     6.73067 374.71774 381.44841
           X           -0.39333   0.91940   0.00000
           Y            0.91940   0.39333  -0.00000
           Z            0.00000  -0.00000   1.00000
 This molecule is an asymmetric top.
 Rotational symmetry number  1.
 Rotational temperatures (Kelvin)     12.86853     0.23114     0.22707
 Rotational constants (GHZ):         268.13705     4.81627     4.73129
 Zero-point vibrational energy      29768.1 (Joules/Mol)
                                    7.11473 (Kcal/Mol)
 Warning -- explicit consideration of   3 degrees of freedom as
           vibrations may cause significant error
 Vibrational temperatures:    305.87   370.37   564.58  1054.96  1884.02
          (Kelvin)           2980.74

 Zero-point correction=                           0.011338 (Hartree/Particle)
 Thermal correction to Energy=                    0.015616
 Thermal correction to Enthalpy=                  0.016560
 Thermal correction to Gibbs Free Energy=        -0.015275
 Sum of electronic and zero-point Energies=           -188.911326
 Sum of electronic and thermal Energies=              -188.907048
 Sum of electronic and thermal Enthalpies=            -188.906104
 Sum of electronic and thermal Free Energies=         -188.937939

                     E (Thermal)             CV                S
                      KCal/Mol        Cal/Mol-Kelvin    Cal/Mol-Kelvin
 Total                    9.799             11.939             67.003
 Electronic               0.000              0.000              2.755
 Translational            0.889              2.981             37.769
 Rotational               0.889              2.981             21.492
 Vibrational              8.022              5.978              4.988
 Vibration     1          0.644              1.822              2.021
 Vibration     2          0.667              1.750              1.679
 Vibration     3          0.760              1.486              0.991

 Optimization completed.
    -- Stationary point found.
 Normal termination of Gaussian 09 at Fri Mar  1 07:26:11 2019.
