 Gaussian 09, Revision E.01,
 Gaussian 09:  EM64L-G09RevE.01 30-Nov-2015

 ------------------------------------------------------
 #p b3lyp/6-311++G(3df,2p) freq IOp(2/17=3) IOp(2/18=3)
 ------------------------------------------------------

 ---------
 b3lyp opt
 ---------
 Symbolic Z-matrix:
 Charge =  1 Multiplicity = 2

                         Standard orientation:
 ---------------------------------------------------------------------
 Center     Atomic      Atomic             Coordinates (Angstroms)
 Number     Number       Type             X           Y           Z
 ---------------------------------------------------------------------
      1          6           0       -0.000000    0.000000   -1.891028
      2          6           0       -0.000000    0.000000   -0.696806
      3          6           0        0.000000   -0.000000    1.777955
      4          8           0        0.000000   -0.000000    0.607410
 ---------------------------------------------------------------------

 SCF Done:  E(UB3LYP) =  -188.921966342     A.U. after   14 cycles

 The electronic state is 2-SG.
 Alpha  occ. eigenvalues --  -19.63231 -10.64855 -10.54839 -10.54490  -1.55229
 Alpha  occ. eigenvalues --   -1.18801  -1.04439  -0.86169  -0.86169  -0.68324
 Alpha  occ. eigenvalues --   -0.67211  -0.59572  -0.59572
 Alpha virt. eigenvalues --   -0.37024  -0.37024  -0.21459  -0.20767  -0.20767
 Alpha virt. eigenvalues --   -0.14560  -0.10710  -0.10710  -0.09434  -0.07414
 Alpha virt. eigenvalues --   -0.05201  -0.05201  -0.04619  -0.00421  -0.00421

  Beta  occ. eigenvalues --  -19.63120 -10.64990 -10.54538 -10.52254  -1.55208
  Beta  occ. eigenvalues --   -1.19016  -1.01958  -0.86194  -0.86194  -0.68160
  Beta  occ. eigenvalues --   -0.58039  -0.58039
  Beta virt. eigenvalues --   -0.44995  -0.36672  -0.36672  -0.21462  -0.18302
  Beta virt. eigenvalues --   -0.18302  -0.14532  -0.10770  -0.10770  -0.08098
  Beta virt. eigenvalues --   -0.07292  -0.04877  -0.04877  -0.04266  -0.00276

 Mulliken charges and spin densities:
               1          2
     1  C   -0.342181   1.474521
     2  C    0.995871  -0.426999
     3  C    0.440631  -0.072117
     4  O   -0.094321   0.024596
 Sum of Mulliken charges =   1.00000   1.00000

 Dipole moment (field-independent basis, Debye):
    X=             -0.0000    Y=              0.0000    Z=              0.0720  Tot=              0.0720
 Quadrupole moment (field-independent basis, Debye-Ang):
   XX=            -18.8810   YY=            -18.8810   ZZ=             -7.7697
   XY=              0.0000   XZ=             -0.0000   YZ=              0.0000

  Exact polarizability:  20.937   0.000  20.937   0.000  -0.000  57.031
 Approx polarizability:  28.051  -0.000  28.051   0.000  -0.000 124.321

                      1                      2                      3
                     PI                     PI                     PI
 Frequencies --    172.6457               172.6457               302.5423
 Red. masses --     12.3708                12.3708                13.7462
 Frc consts  --      0.2172                 0.2172                 0.7413
 IR Inten    --      0.4120                 0.4120                 0.5048

                      4                      5                      6
                     PI                     SG                     SG
 Frequencies --    302.5423               910.8134              1894.1077
 Red. masses --     13.7462                12.5401                13.7223
 Frc consts  --      0.7413                 6.1293                29.0059
 IR Inten    --      0.5048                 8.2353               128.4439

                      7
                     SG
 Frequencies --   2281.0428
 Red. masses --     12.0524
 Frc consts  --     36.9480
 IR Inten    --     98.8820

 - Thermochemistry -
 -------------------
 Temperature   298.150 Kelvin.  Pressure   1.00000 Atm.
 Atom     1 has atomic number  6 and mass  12.00000

 Molecular mass:    51.99491 amu.
 Principal axes and moments of inertia in atomic units:
                           1         2         3
     Eigenvalues --     0.00000 330.58443 330.58443
           X            0.00000  -0.09951   0.99504
           Y           -0.00000   0.99504   0.09951
           Z            1.00000   0.00000   0.00000
 This molecule is a prolate symmetric top.
 Rotational symmetry number  1.
 Rotational temperature (Kelvin)      0.26200
 Rotational constant (GHZ):           5.459244
 Zero-point vibrational energy      36105.3 (Joules/Mol)
                                    8.62938 (Kcal/Mol)
 Warning -- explicit consideration of   4 degrees of freedom as
           vibrations may cause significant error
 Vibrational temperatures:    248.40   248.40   435.29   435.29  1310.46
          (Kelvin)           2725.20  3281.91

 Zero-point correction=                           0.013752 (Hartree/Particle)
 Thermal correction to Energy=                    0.018209
 Thermal correction to Enthalpy=                  0.019153
 Thermal correction to Gibbs Free Energy=        -0.010719
 Sum of electronic and zero-point Energies=           -188.908215
 Sum of electronic and thermal Energies=              -188.903757
 Sum of electronic and thermal Enthalpies=            -188.902813
 Sum of electronic and thermal Free Energies=         -188.932686

                     E (Thermal)             CV                S
                      KCal/Mol        Cal/Mol-Kelvin    Cal/Mol-Kelvin
 Total                   11.426             12.565             62.872
 Electronic               0.000              0.000              1.377
 Translational            0.889              2.981             37.769
 Rotational               0.592              1.987             15.971
 Vibrational              9.945              7.597              7.755
 Vibration     1          0.626              1.876              2.406
 Vibration     2          0.626              1.876              2.406
 Vibration     3          0.694              1.669              1.403
 Vibration     4          0.694              1.669              1.403

 Optimization completed.
    -- Stationary point found.
 Normal termination of Gaussian 09 at Fri Mar  1 07:25:51 2019.
