 Gaussian 09, Revision E.01,
 Gaussian 09:  EM64L-G09RevE.01 30-Nov-2015

 ------------------------------------------------------
 #p b3lyp/6-311++G(3df,2p) freq IOp(2/17=3) IOp(2/18=3)
 ------------------------------------------------------

 ---------
 b3lyp opt
 ---------
 Symbolic Z-matrix:
 Charge =  1 Multiplicity = 4

                         Standard orientation:
 ---------------------------------------------------------------------
 Center     Atomic      Atomic             Coordinates (Angstroms)
 Number     Number       Type             X           Y           Z
 ---------------------------------------------------------------------
      1          6           0        0.000000   -0.714811   -1.055092
      2          6           0        0.000000    0.714811   -1.055092
      3          6           0       -0.000000    0.000000    0.218037
      4          8           0       -0.000000    0.000000    1.419099
 ---------------------------------------------------------------------

 SCF Done:  E(UB3LYP) =  -188.910773991     A.U. after   13 cycles

 The electronic state is 4-A2.
 Alpha  occ. eigenvalues --  -19.52838 -10.63250 -10.63205 -10.62165  -1.43387
 Alpha  occ. eigenvalues --   -1.27048  -0.87793  -0.85673  -0.79489  -0.78314
 Alpha  occ. eigenvalues --   -0.72188  -0.67625  -0.67236  -0.56343
 Alpha virt. eigenvalues --   -0.38562  -0.30780  -0.19374  -0.15458  -0.13024
 Alpha virt. eigenvalues --   -0.12155  -0.11190  -0.10883  -0.08444  -0.05968
 Alpha virt. eigenvalues --   -0.05882  -0.05160  -0.04659  -0.00552   0.00600

  Beta  occ. eigenvalues --  -19.50789 -10.62296 -10.61079 -10.61048  -1.39389
  Beta  occ. eigenvalues --   -1.22564  -0.82293  -0.81546  -0.73730  -0.73605
  Beta  occ. eigenvalues --   -0.64112
  Beta virt. eigenvalues --   -0.53748  -0.49899  -0.42290  -0.31514  -0.27373
  Beta virt. eigenvalues --   -0.18098  -0.12647  -0.12360  -0.11694  -0.09314
  Beta virt. eigenvalues --   -0.08293  -0.07951  -0.05717  -0.04970  -0.04553

 Mulliken charges and spin densities:
               1          2
     1  C    0.364351   1.211524
     2  C    0.364351   1.211524
     3  C    0.559209  -0.142529
     4  O   -0.287911   0.719481
 Sum of Mulliken charges =   1.00000   3.00000

 Dipole moment (field-independent basis, Debye):
    X=              0.0000    Y=             -0.0000    Z=             -2.3984  Tot=              2.3984
 Quadrupole moment (field-independent basis, Debye-Ang):
   XX=            -17.6480   YY=            -16.9483   ZZ=            -15.5088
   XY=             -0.0000   XZ=              0.0000   YZ=             -0.0000

  Exact polarizability:  18.174  -0.000  31.440  -0.000  -0.000  43.447
 Approx polarizability:  27.158   0.000  61.166  -0.000  -0.000  91.043

                      1                      2                      3
                     B1                     B2                     B2
 Frequencies --    433.4727               461.1410               808.4679
 Red. masses --     12.4700                12.7634                12.0118
 Frc consts  --      1.3805                 1.5991                 4.6258
 IR Inten    --     10.0761                 0.4348                12.3238

                      4                      5                      6
                     A1                     A1                     A1
 Frequencies --    842.5702              1132.2499              1442.5102
 Red. masses --     12.8414                12.1795                13.2255
 Frc consts  --      5.3712                 9.1995                16.2144
 IR Inten    --     16.0989                 8.2133                 7.6036

 - Thermochemistry -
 -------------------
 Temperature   298.150 Kelvin.  Pressure   1.00000 Atm.
 Atom     1 has atomic number  6 and mass  12.00000

 Molecular mass:    51.99491 amu.
 Principal axes and moments of inertia in atomic units:
                           1         2         3
     Eigenvalues --    43.79171 212.47470 256.26641
           X           -0.00000  -0.00000   1.00000
           Y            0.00000   1.00000   0.00000
           Z            1.00000  -0.00000   0.00000
 This molecule is an asymmetric top.
 Rotational symmetry number  2.
 Rotational temperatures (Kelvin)      1.97786     0.40764     0.33798
 Rotational constants (GHZ):          41.21194     8.49391     7.04244
 Zero-point vibrational energy      30626.9 (Joules/Mol)
                                    7.32000 (Kcal/Mol)
 Warning -- explicit consideration of   2 degrees of freedom as
           vibrations may cause significant error
 Vibrational temperatures:    623.67   663.48  1163.20  1212.27  1629.05
          (Kelvin)           2075.45

 Zero-point correction=                           0.011665 (Hartree/Particle)
 Thermal correction to Energy=                    0.015202
 Thermal correction to Enthalpy=                  0.016146
 Thermal correction to Gibbs Free Energy=        -0.014070
 Sum of electronic and zero-point Energies=           -188.899109
 Sum of electronic and thermal Energies=              -188.895572
 Sum of electronic and thermal Enthalpies=            -188.894628
 Sum of electronic and thermal Free Energies=         -188.924844

                     E (Thermal)             CV                S
                      KCal/Mol        Cal/Mol-Kelvin    Cal/Mol-Kelvin
 Total                    9.539             10.260             63.595
 Electronic               0.000              0.000              2.755
 Translational            0.889              2.981             37.769
 Rotational               0.889              2.981             21.016
 Vibrational              7.762              4.299              2.056
 Vibration     1          0.794              1.397              0.847
 Vibration     2          0.819              1.336              0.763

 Optimization completed.
    -- Stationary point found.
 Normal termination of Gaussian 09 at Fri Mar  1 07:25:33 2019.
