 Gaussian 09, Revision E.01,
 Gaussian 09:  EM64L-G09RevE.01 30-Nov-2015

 ------------------------------------------------------
 #p b3lyp/6-311++G(3df,2p) freq IOp(2/17=3) IOp(2/18=3)
 ------------------------------------------------------

 ---------
 b3lyp opt
 ---------
 Symbolic Z-matrix:
 Charge =  1 Multiplicity = 2

                         Standard orientation:
 ---------------------------------------------------------------------
 Center     Atomic      Atomic             Coordinates (Angstroms)
 Number     Number       Type             X           Y           Z
 ---------------------------------------------------------------------
      1          6           0       -0.000000    0.000000   -1.995466
      2          6           0       -0.000000    0.000000   -0.785035
      3          6           0        0.000000   -0.000000    0.551125
      4          8           0        0.000000   -0.000000    1.672032
 ---------------------------------------------------------------------

 SCF Done:  E(UB3LYP) =  -189.058587771     A.U. after   15 cycles

 The electronic state is 2-SG.
 Alpha  occ. eigenvalues --  -19.52920 -10.64020 -10.59870 -10.51679  -1.46119
 Alpha  occ. eigenvalues --   -1.12354  -1.00908  -0.82447  -0.77688  -0.77688
 Alpha  occ. eigenvalues --   -0.71183  -0.63118  -0.63118
 Alpha virt. eigenvalues --   -0.38850  -0.38850  -0.18505  -0.16208  -0.16208
 Alpha virt. eigenvalues --   -0.14541  -0.11077  -0.11077  -0.08359  -0.06736
 Alpha virt. eigenvalues --   -0.05626  -0.05626  -0.02023   0.00254   0.00254

  Beta  occ. eigenvalues --  -19.53144 -10.63972 -10.57293 -10.51655  -1.46461
  Beta  occ. eigenvalues --   -1.11587  -0.99127  -0.82687  -0.78224  -0.78224
  Beta  occ. eigenvalues --   -0.61776  -0.61776
  Beta virt. eigenvalues --   -0.47995  -0.36911  -0.36911  -0.18485  -0.14884
  Beta virt. eigenvalues --   -0.14884  -0.14354  -0.10908  -0.10908  -0.07226
  Beta virt. eigenvalues --   -0.06682  -0.05236  -0.05236  -0.01327   0.00249

 Mulliken charges and spin densities:
               1          2
     1  C    0.537863   1.194914
     2  C    1.067353  -0.210910
     3  C   -0.231158   0.093754
     4  O   -0.374058  -0.077758
 Sum of Mulliken charges =   1.00000   1.00000

 Dipole moment (field-independent basis, Debye):
    X=             -0.0000    Y=              0.0000    Z=             -2.6370  Tot=              2.6370
 Quadrupole moment (field-independent basis, Debye-Ang):
   XX=            -18.4739   YY=            -18.4739   ZZ=             -6.8477
   XY=              0.0000   XZ=              0.0000   YZ=             -0.0000

  Exact polarizability:  17.974  -0.000  17.974  -0.000   0.000  51.470
 Approx polarizability:  23.372  -0.000  23.372   0.000  -0.000 125.389

                      1                      2                      3
                     PI                     PI                     PI
 Frequencies --    186.8096               186.8097               566.7839
 Red. masses --     12.4043                12.4043                12.4025
 Frc consts  --      0.2550                 0.2550                 2.3474
 IR Inten    --      0.0008                 0.0008                21.2223

                      4                      5                      6
                     PI                     SG                     SG
 Frequencies --    566.7839               951.6801              2179.4964
 Red. masses --     12.4025                13.1669                12.3364
 Frc consts  --      2.3474                 7.0261                34.5265
 IR Inten    --     21.2223                 5.5548                46.2593

                      7
                     SG
 Frequencies --   2405.8490
 Red. masses --     12.7258
 Frc consts  --     43.3982
 IR Inten    --    747.5185

 - Thermochemistry -
 -------------------
 Temperature   298.150 Kelvin.  Pressure   1.00000 Atm.
 Atom     1 has atomic number  6 and mass  12.00000

 Molecular mass:    51.99491 amu.
 Principal axes and moments of inertia in atomic units:
                           1         2         3
     Eigenvalues --     0.00000 369.74702 369.74702
           X            0.00000  -0.27570   0.96124
           Y           -0.00000   0.96124   0.27570
           Z            1.00000   0.00000   0.00000
 This molecule is a prolate symmetric top.
 Rotational symmetry number  1.
 Rotational temperature (Kelvin)      0.23425
 Rotational constant (GHZ):           4.881016
 Zero-point vibrational energy      42133.7 (Joules/Mol)
                                   10.07021 (Kcal/Mol)
 Warning -- explicit consideration of   4 degrees of freedom as
           vibrations may cause significant error
 Vibrational temperatures:    268.78   268.78   815.47   815.47  1369.25
          (Kelvin)           3135.81  3461.48

 Zero-point correction=                           0.016048 (Hartree/Particle)
 Thermal correction to Energy=                    0.019975
 Thermal correction to Enthalpy=                  0.020919
 Thermal correction to Gibbs Free Energy=        -0.008061
 Sum of electronic and zero-point Energies=           -189.042540
 Sum of electronic and thermal Energies=              -189.038613
 Sum of electronic and thermal Enthalpies=            -189.037669
 Sum of electronic and thermal Free Energies=         -189.066649

                     E (Thermal)             CV                S
                      KCal/Mol        Cal/Mol-Kelvin    Cal/Mol-Kelvin
 Total                   12.534             11.332             60.994
 Electronic               0.000              0.000              1.377
 Translational            0.889              2.981             37.769
 Rotational               0.592              1.987             16.194
 Vibrational             11.053              6.364              5.654
 Vibration     1          0.632              1.858              2.259
 Vibration     2          0.632              1.858              2.259
 Vibration     3          0.923              1.103              0.510
 Vibration     4          0.923              1.103              0.510

 Optimization completed.
    -- Stationary point found.
 Normal termination of Gaussian 09 at Fri Mar  1 07:25:56 2019.
