 Gaussian 09, Revision E.01,
 Gaussian 09:  EM64L-G09RevE.01 30-Nov-2015

 ------------------------------------------------------
 #p b3lyp/6-311++G(3df,2p) freq IOp(2/17=3) IOp(2/18=3)
 ------------------------------------------------------

 ---------
 b3lyp opt
 ---------
 Symbolic Z-matrix:
 Charge =  1 Multiplicity = 2

                         Standard orientation:
 ---------------------------------------------------------------------
 Center     Atomic      Atomic             Coordinates (Angstroms)
 Number     Number       Type             X           Y           Z
 ---------------------------------------------------------------------
      1          6           0        1.005855    0.686519   -0.041776
      2          6           0       -0.397076    0.050391    0.162906
      3          6           0       -1.703841    0.025863   -0.081655
      4          8           0        0.821296   -0.572080   -0.029606
 ---------------------------------------------------------------------

 SCF Done:  E(UB3LYP) =  -188.897832631     A.U. after   22 cycles

 The electronic state is 2-A.
 Alpha  occ. eigenvalues --  -19.61281 -10.64780 -10.61829 -10.60595  -1.56325
 Alpha  occ. eigenvalues --   -1.11828  -0.97635  -0.94178  -0.84816  -0.72073
 Alpha  occ. eigenvalues --   -0.64817  -0.62324  -0.62259
 Alpha virt. eigenvalues --   -0.43551  -0.39507  -0.32897  -0.20266  -0.16828
 Alpha virt. eigenvalues --   -0.13630  -0.11860  -0.11596  -0.10441  -0.07292
 Alpha virt. eigenvalues --   -0.06209  -0.05929  -0.04443  -0.03494  -0.01576

  Beta  occ. eigenvalues --  -19.60920 -10.64895 -10.61118 -10.59656  -1.55702
  Beta  occ. eigenvalues --   -1.08443  -0.97334  -0.93407  -0.82390  -0.71662
  Beta  occ. eigenvalues --   -0.62126  -0.61267
  Beta virt. eigenvalues --   -0.49622  -0.42511  -0.38855  -0.28837  -0.18749
  Beta virt. eigenvalues --   -0.16167  -0.12879  -0.11553  -0.11352  -0.10250
  Beta virt. eigenvalues --   -0.07014  -0.06131  -0.05427  -0.04280  -0.03275

 Mulliken charges and spin densities:
               1          2
     1  C    0.200882  -0.061617
     2  C    0.852630   0.455236
     3  C   -0.018778   0.505545
     4  O   -0.034734   0.100836
 Sum of Mulliken charges =   1.00000   1.00000

 Dipole moment (field-independent basis, Debye):
    X=             -0.2920    Y=             -0.0211    Z=              0.4804  Tot=              0.5626
 Quadrupole moment (field-independent basis, Debye-Ang):
   XX=            -14.3772   YY=            -19.2201   ZZ=            -18.3124
   XY=              0.1891   XZ=             -0.8888   YZ=              0.0656

  Exact polarizability:  56.458   3.449  23.682  -0.215  -0.071  20.292
 Approx polarizability: 125.134  10.286  39.531   4.753  -0.030  31.835

                      1                      2                      3
                      A                      A                      A
 Frequencies --    222.2583               290.6073               615.2596
 Red. masses --     12.2231                12.2724                12.4447
 Frc consts  --      0.3558                 0.6107                 2.7756
 IR Inten    --      2.5152                11.9295                42.8238

                      4                      5                      6
                      A                      A                      A
 Frequencies --    792.7767              1059.2694              1582.3212
 Red. masses --     13.6326                12.3876                12.9663
 Frc consts  --      5.0481                 8.1894                19.1274
 IR Inten    --     28.2356                14.7367                61.5226

 - Thermochemistry -
 -------------------
 Temperature   298.150 Kelvin.  Pressure   1.00000 Atm.
 Atom     1 has atomic number  6 and mass  12.00000

 Molecular mass:    51.99491 amu.
 Principal axes and moments of inertia in atomic units:
                           1         2         3
     Eigenvalues --    40.57574 214.59345 252.07356
           X            1.00000  -0.00005  -0.00000
           Y            0.00005   1.00000   0.00001
           Z            0.00000  -0.00001   1.00000
 This molecule is an asymmetric top.
 Rotational symmetry number  1.
 Rotational temperatures (Kelvin)      2.13462     0.40362     0.34361
 Rotational constants (GHZ):          44.47833     8.41005     7.15958
 Zero-point vibrational energy      27289.8 (Joules/Mol)
                                    6.52241 (Kcal/Mol)
 Warning -- explicit consideration of   3 degrees of freedom as
           vibrations may cause significant error
 Vibrational temperatures:    319.78   418.12   885.22  1140.63  1524.05
          (Kelvin)           2276.60

 Zero-point correction=                           0.010394 (Hartree/Particle)
 Thermal correction to Energy=                    0.014450
 Thermal correction to Enthalpy=                  0.015395
 Thermal correction to Gibbs Free Energy=        -0.015768
 Sum of electronic and zero-point Energies=           -188.887439
 Sum of electronic and thermal Energies=              -188.883382
 Sum of electronic and thermal Enthalpies=            -188.882438
 Sum of electronic and thermal Free Energies=         -188.913601

                     E (Thermal)             CV                S
                      KCal/Mol        Cal/Mol-Kelvin    Cal/Mol-Kelvin
 Total                    9.068             11.495             65.587
 Electronic               0.000              0.000              1.377
 Translational            0.889              2.981             37.769
 Rotational               0.889              2.981             22.311
 Vibrational              7.290              5.533              4.130
 Vibration     1          0.648              1.807              1.941
 Vibration     2          0.687              1.691              1.470
 Vibration     3          0.975              1.000              0.424

 Optimization completed.
    -- Stationary point found.
 Normal termination of Gaussian 09 at Fri Mar  1 07:26:55 2019.
