 Gaussian 09, Revision E.01,
 Gaussian 09:  EM64L-G09RevE.01 30-Nov-2015

 ------------------------------------------------------
 #p b3lyp/6-311++G(3df,2p) freq IOp(2/17=3) IOp(2/18=3)
 ------------------------------------------------------

 ---------
 b3lyp opt
 ---------
 Symbolic Z-matrix:
 Charge =  0 Multiplicity = 1

                         Standard orientation:
 ---------------------------------------------------------------------
 Center     Atomic      Atomic             Coordinates (Angstroms)
 Number     Number       Type             X           Y           Z
 ---------------------------------------------------------------------
      1          6           0       -2.086376   -0.637194    0.000000
      2          6           0        1.385665    0.393995    0.000000
      3          8           0        1.695468   -0.771212    0.000000
      4          6           0        0.000000    0.920500    0.000000
      5          6           0       -1.057604    0.147260    0.000000
      6          1           0       -2.530493   -0.980482    0.926683
      7          1           0        2.162398    1.183862    0.000000
      8          1           0       -0.115264    1.999429    0.000000
      9          1           0       -2.530493   -0.980482   -0.926683
 ---------------------------------------------------------------------

 SCF Done:  E(RB3LYP) =  -230.065818349     A.U. after   13 cycles

 The electronic state is 1-A'.
 Alpha  occ. eigenvalues --  -19.12563 -10.26871 -10.22547 -10.20151 -10.19993
 Alpha  occ. eigenvalues --   -1.05542  -0.82791  -0.75152  -0.63214  -0.52800
 Alpha  occ. eigenvalues --   -0.50649  -0.47695  -0.47288  -0.43486  -0.40910
 Alpha  occ. eigenvalues --   -0.30581  -0.29401  -0.26791
 Alpha virt. eigenvalues --   -0.07861  -0.02694  -0.00613   0.00925   0.02158
 Alpha virt. eigenvalues --    0.02591   0.04757   0.04862   0.06949   0.07115
 Alpha virt. eigenvalues --    0.07565   0.09869   0.10344   0.10701   0.11531

 Mulliken charges:
               1
     1  C   -0.544540
     2  C    0.223431
     3  O   -0.614039
     4  C   -0.108305
     5  C    0.422716
     6  H    0.175108
     7  H    0.131642
     8  H    0.138878
     9  H    0.175108
 Sum of Mulliken charges =  -0.00000

 Dipole moment (field-independent basis, Debye):
    X=             -2.1331    Y=              1.9586    Z=              0.0000  Tot=              2.8959
 Quadrupole moment (field-independent basis, Debye-Ang):
   XX=            -28.6658   YY=            -29.2348   ZZ=            -28.9095
   XY=              6.2730   XZ=             -0.0000   YZ=             -0.0000

  Exact polarizability:  79.520  14.051  55.206   0.000   0.000  35.072
 Approx polarizability: 115.363  23.123  87.669   0.000  -0.000  50.269

                      1                      2                      3
                     A"                     A'                     A"
 Frequencies --    144.5316               148.0657               361.8789
 Red. masses --      2.0310                 5.0901                 1.6114
 Frc consts  --      0.0250                 0.0657                 0.1243
 IR Inten    --      9.9209                 5.6494                 5.0062

                      4                      5                      6
                     A'                     A"                     A'
 Frequencies --    415.4103               508.6080               780.6806
 Red. masses --      6.9625                 1.5613                 6.0583
 Frc consts  --      0.7079                 0.2380                 2.1755
 IR Inten    --      4.3720                 1.6097                66.1071

                      7                      8                      9
                     A'                     A"                     A'
 Frequencies --    877.5858               893.3821               901.9042
 Red. masses --      1.3304                 1.1088                 3.9400
 Frc consts  --      0.6037                 0.5214                 1.8883
 IR Inten    --     50.5180                20.1400                25.3301

                     10                     11                     12
                     A"                     A"                     A'
 Frequencies --    993.1518              1024.6830              1127.7965
 Red. masses --      1.6275                 1.7591                 1.5798
 Frc consts  --      0.9458                 1.0883                 1.1839
 IR Inten    --      0.0124                 1.4052                26.1349

                     13                     14                     15
                     A'                     A'                     A'
 Frequencies --   1355.5721              1424.2267              1459.2227
 Red. masses --      1.4988                 1.1954                 1.5815
 Frc consts  --      1.6227                 1.4287                 1.9841
 IR Inten    --     52.9404                10.4441                19.7255

                     16                     17                     18
                     A'                     A'                     A'
 Frequencies --   1767.1195              2023.4649              2891.7576
 Red. masses --      9.5357                 9.9075                 1.0829
 Frc consts  --     17.5443                23.9004                 5.3354
 IR Inten    --    230.0345               187.0785               155.6559

                     19                     20                     21
                     A'                     A'                     A"
 Frequencies --   3122.7245              3138.0894              3195.7757
 Red. masses --      1.0593                 1.0883                 1.1142
 Frc consts  --      6.0863                 6.3145                 6.7042
 IR Inten    --      1.6581                 3.6579                 0.5369

 - Thermochemistry -
 -------------------
 Temperature   298.150 Kelvin.  Pressure   1.00000 Atm.
 Atom     1 has atomic number  6 and mass  12.00000

 Molecular mass:    68.02621 amu.
 Principal axes and moments of inertia in atomic units:
                           1         2         3
     Eigenvalues --   126.19112 551.15431 664.98296
           X            0.99820  -0.05996   0.00000
           Y            0.05996   0.99820   0.00000
           Z            0.00000  -0.00000   1.00000
 This molecule is an asymmetric top.
 Rotational symmetry number  1.
 Rotational temperatures (Kelvin)      0.68637     0.15715     0.13025
 Rotational constants (GHZ):          14.30165     3.27448     2.71397
 Zero-point vibrational energy     170800.6 (Joules/Mol)
                                   40.82232 (Kcal/Mol)
 Warning -- explicit consideration of   5 degrees of freedom as
           vibrations may cause significant error
 Vibrational temperatures:    207.95   213.03   520.66   597.68   731.77
          (Kelvin)           1123.22  1262.65  1285.38  1297.64  1428.92
                             1474.29  1622.65  1950.36  2049.14  2099.49
                             2542.49  2911.31  4160.59  4492.90  4515.01
                             4598.00

 Zero-point correction=                           0.065055 (Hartree/Particle)
 Thermal correction to Energy=                    0.070417
 Thermal correction to Enthalpy=                  0.071361
 Thermal correction to Gibbs Free Energy=         0.036695
 Sum of electronic and zero-point Energies=           -230.000764
 Sum of electronic and thermal Energies=              -229.995402
 Sum of electronic and thermal Enthalpies=            -229.994458
 Sum of electronic and thermal Free Energies=         -230.029123

                     E (Thermal)             CV                S
                      KCal/Mol        Cal/Mol-Kelvin    Cal/Mol-Kelvin
 Total                   44.187             17.554             72.959
 Electronic               0.000              0.000              0.000
 Translational            0.889              2.981             38.570
 Rotational               0.889              2.981             25.340
 Vibrational             42.410             11.593              9.050
 Vibration     1          0.616              1.909              2.743
 Vibration     2          0.617              1.905              2.697
 Vibration     3          0.736              1.551              1.114
 Vibration     4          0.779              1.437              0.908
 Vibration     5          0.864              1.231              0.637

 Optimization completed.
    -- Stationary point found.
 Normal termination of Gaussian 09 at Fri Mar  1 07:38:41 2019.
