 Gaussian 09, Revision E.01,
 Gaussian 09:  EM64L-G09RevE.01 30-Nov-2015

 ------------------------------------------------------
 #p b3lyp/6-311++G(3df,2p) freq IOp(2/17=3) IOp(2/18=3)
 ------------------------------------------------------

 ---------
 b3lyp opt
 ---------
 Symbolic Z-matrix:
 Charge =  1 Multiplicity = 2

                         Standard orientation:
 ---------------------------------------------------------------------
 Center     Atomic      Atomic             Coordinates (Angstroms)
 Number     Number       Type             X           Y           Z
 ---------------------------------------------------------------------
      1          6           0       -0.270262   -1.111007    0.000000
      2          6           0       -0.270262    1.485152    0.656597
      3          8           0        0.391236   -2.072432    0.000000
      4          6           0       -0.270262    1.485152   -0.656597
      5          6           0        0.433529    0.398567   -0.000000
      6          1           0       -1.373351   -1.081124    0.000000
      7          1           0       -0.498287    1.958147   -1.597832
      8          1           0       -0.498287    1.958147    1.597832
      9          1           0        1.503580    0.197102   -0.000000
 ---------------------------------------------------------------------

 SCF Done:  E(UB3LYP) =  -229.689961781     A.U. after   15 cycles

 The electronic state is 2-A'.
 Alpha  occ. eigenvalues --  -19.43295 -10.53038 -10.46441 -10.45846 -10.45750
 Alpha  occ. eigenvalues --   -1.36021  -1.16289  -0.91223  -0.83118  -0.81674
 Alpha  occ. eigenvalues --   -0.76930  -0.72972  -0.71636  -0.67994  -0.62549
 Alpha  occ. eigenvalues --   -0.57615  -0.57280  -0.50185
 Alpha virt. eigenvalues --   -0.29086  -0.24818  -0.14630  -0.13898  -0.13026
 Alpha virt. eigenvalues --   -0.13004  -0.11316  -0.10069  -0.09411  -0.07397
 Alpha virt. eigenvalues --   -0.07105  -0.06557  -0.05205  -0.05160  -0.02529

  Beta  occ. eigenvalues --  -19.42249 -10.52927 -10.46255 -10.45594 -10.45501
  Beta  occ. eigenvalues --   -1.34172  -1.15510  -0.89093  -0.81688  -0.81208
  Beta  occ. eigenvalues --   -0.76188  -0.71560  -0.68961  -0.67255  -0.61347
  Beta  occ. eigenvalues --   -0.57039  -0.53644
  Beta virt. eigenvalues --   -0.41116  -0.28430  -0.23204  -0.14387  -0.13617
  Beta virt. eigenvalues --   -0.12920  -0.12878  -0.10962  -0.09471  -0.09239
  Beta virt. eigenvalues --   -0.07274  -0.07093  -0.06232  -0.05026  -0.04722

 Mulliken charges and spin densities:
               1          2
     1  C    0.390141   0.057925
     2  C   -0.019840   0.183097
     3  O   -0.331122   0.369766
     4  C   -0.019840   0.183097
     5  C   -0.140489   0.039526
     6  H    0.266384   0.114887
     7  H    0.307971  -0.004863
     8  H    0.307971  -0.004863
     9  H    0.238824   0.061428
 Sum of Mulliken charges =   1.00000   1.00000

 Dipole moment (field-independent basis, Debye):
    X=             -1.6323    Y=              2.6416    Z=              0.0000  Tot=              3.1053
 Quadrupole moment (field-independent basis, Debye-Ang):
   XX=            -22.9462   YY=            -17.7821   ZZ=            -21.4585
   XY=              0.7864   XZ=             -0.0000   YZ=              0.0000

  Exact polarizability:  34.909  -5.129  84.140  -0.000  -0.000  36.297
 Approx polarizability:  53.166 -16.719 150.013   0.000  -0.000  59.078

                      1                      2                      3
                     A"                     A"                     A'
 Frequencies --     51.0576               271.4498               328.0460
 Red. masses --      3.2089                 2.1563                 4.6313
 Frc consts  --      0.0049                 0.0936                 0.2936
 IR Inten    --     11.3087                 6.4749                 1.7279

                      4                      5                      6
                     A'                     A'                     A'
 Frequencies --    379.5085               537.8657               741.5240
 Red. masses --      6.0950                 5.2422                 1.2969
 Frc consts  --      0.5172                 0.8935                 0.4202
 IR Inten    --      2.7131                23.1839                47.8923

                      7                      8                      9
                     A"                     A"                     A"
 Frequencies --    814.2834               862.8882               940.7929
 Red. masses --      1.3308                 1.7223                 1.6543
 Frc consts  --      0.5199                 0.7556                 0.8627
 IR Inten    --     11.9167                 0.4816                 6.4906

                     10                     11                     12
                     A'                     A"                     A"
 Frequencies --    946.5934              1037.4939              1081.5927
 Red. masses --      1.1309                 1.4945                 2.3848
 Frc consts  --      0.5970                 0.9478                 1.6437
 IR Inten    --     12.0549                 0.2124                47.1826

                     13                     14                     15
                     A'                     A'                     A'
 Frequencies --   1133.0892              1188.5203              1230.0577
 Red. masses --      2.2227                 1.5010                 1.1228
 Frc consts  --      1.6813                 1.2492                 1.0010
 IR Inten    --     90.9283                 2.4568                 2.3959

                     16                     17                     18
                     A'                     A'                     A'
 Frequencies --   1620.0668              1888.7629              2946.2510
 Red. masses --      5.2023                 9.9279                 1.0927
 Frc consts  --      8.0447                20.8670                 5.5885
 IR Inten    --    103.4566                55.3596                23.7792

                     19                     20                     21
                     A'                     A"                     A'
 Frequencies --   3080.0008              3242.9840              3284.5462
 Red. masses --      1.0862                 1.0898                 1.1443
 Frc consts  --      6.0709                 6.7529                 7.2736
 IR Inten    --     39.5345                76.0268                23.0375

 - Thermochemistry -
 -------------------
 Temperature   298.150 Kelvin.  Pressure   1.00000 Atm.
 Atom     1 has atomic number  6 and mass  12.00000

 Molecular mass:    68.02621 amu.
 Principal axes and moments of inertia in atomic units:
                           1         2         3
     Eigenvalues --    90.61664 568.39952 588.43561
           X           -0.12331   0.00000   0.99237
           Y            0.99237   0.00000   0.12331
           Z            0.00000   1.00000   0.00000
 This molecule is an asymmetric top.
 Rotational symmetry number  1.
 Rotational temperatures (Kelvin)      0.95583     0.15238     0.14719
 Rotational constants (GHZ):          19.91622     3.17513     3.06702
 Zero-point vibrational energy     165128.8 (Joules/Mol)
                                   39.46672 (Kcal/Mol)
 Warning -- explicit consideration of   5 degrees of freedom as
           vibrations may cause significant error
 Vibrational temperatures:     73.46   390.56   471.98   546.03   773.87
          (Kelvin)           1066.89  1171.57  1241.50  1353.59  1361.94
                             1492.72  1556.17  1630.26  1710.01  1769.78
                             2330.91  2717.51  4238.99  4431.43  4665.92
                             4725.72

 Zero-point correction=                           0.062894 (Hartree/Particle)
 Thermal correction to Energy=                    0.068372
 Thermal correction to Enthalpy=                  0.069316
 Thermal correction to Gibbs Free Energy=         0.033560
 Sum of electronic and zero-point Energies=           -229.627068
 Sum of electronic and thermal Energies=              -229.621590
 Sum of electronic and thermal Enthalpies=            -229.620646
 Sum of electronic and thermal Free Energies=         -229.656401

                     E (Thermal)             CV                S
                      KCal/Mol        Cal/Mol-Kelvin    Cal/Mol-Kelvin
 Total                   42.904             18.135             75.255
 Electronic               0.000              0.000              1.377
 Translational            0.889              2.981             38.570
 Rotational               0.889              2.981             24.920
 Vibrational             41.127             12.174             10.388
 Vibration     1          0.595              1.977              4.776
 Vibration     2          0.675              1.726              1.587
 Vibration     3          0.711              1.619              1.270
 Vibration     4          0.750              1.514              1.041
 Vibration     5          0.893              1.166              0.570

 Normal termination of Gaussian 09 at Fri Mar  1 08:01:53 2019.
