 Gaussian 09, Revision E.01,
 Gaussian 09:  EM64L-G09RevE.01 30-Nov-2015

 ------------------------------------------------------
 #p b3lyp/6-311++G(3df,2p) freq IOp(2/17=3) IOp(2/18=3)
 ------------------------------------------------------

 ---------
 b3lyp opt
 ---------
 Symbolic Z-matrix:
 Charge =  0 Multiplicity = 1

                         Standard orientation:
 ---------------------------------------------------------------------
 Center     Atomic      Atomic             Coordinates (Angstroms)
 Number     Number       Type             X           Y           Z
 ---------------------------------------------------------------------
      1          6           0       -2.114925   -0.625554   -0.000000
      2          6           0        1.354311    0.274043    0.000000
      3          8           0        1.536974   -0.908759   -0.000000
      4          6           0       -0.000000    0.968644    0.000000
      5          6           0       -1.159329    0.096295   -0.000000
      6          1           0       -2.958145   -1.270737   -0.000000
      7          1           0        2.205057    0.986746    0.000000
      8          1           0       -0.011523    1.636750    0.869737
      9          1           0       -0.011523    1.636750   -0.869737
 ---------------------------------------------------------------------

 SCF Done:  E(RB3LYP) =  -230.052878447     A.U. after   12 cycles

 The electronic state is 1-A'.
 Alpha  occ. eigenvalues --  -19.14169 -10.28054 -10.22289 -10.18507 -10.17358
 Alpha  occ. eigenvalues --   -1.07329  -0.81693  -0.73814  -0.61738  -0.53859
 Alpha  occ. eigenvalues --   -0.50723  -0.48188  -0.47928  -0.44396  -0.39498
 Alpha  occ. eigenvalues --   -0.29798  -0.28895  -0.27443
 Alpha virt. eigenvalues --   -0.04704  -0.01754   0.00599   0.00731   0.01996
 Alpha virt. eigenvalues --    0.02456   0.03574   0.04019   0.06873   0.08144
 Alpha virt. eigenvalues --    0.08377   0.08535   0.08643   0.10810   0.11294

 Mulliken charges:
               1
     1  C    0.338252
     2  C    0.109160
     3  O   -0.570415
     4  C   -0.247218
     5  C   -0.430833
     6  H    0.313312
     7  H    0.136679
     8  H    0.175531
     9  H    0.175531
 Sum of Mulliken charges =  -0.00000

 Dipole moment (field-independent basis, Debye):
    X=             -0.4346    Y=              2.7294    Z=             -0.0000  Tot=              2.7638
 Quadrupole moment (field-independent basis, Debye-Ang):
   XX=            -28.4071   YY=            -28.8063   ZZ=            -29.3948
   XY=              6.2850   XZ=              0.0000   YZ=             -0.0000

  Exact polarizability:  62.855   9.098  53.294   0.000   0.000  35.447
 Approx polarizability:  85.870  17.588  85.751   0.000  -0.000  50.958

                      1                      2                      3
                     A"                     A'                     A"
 Frequencies --    142.6925               148.6492               327.4221
 Red. masses --      2.0457                 5.3757                 2.4387
 Frc consts  --      0.0245                 0.0700                 0.1540
 IR Inten    --      5.0191                 5.9547                11.2901

                      4                      5                      6
                     A'                     A"                     A'
 Frequencies --    376.0837               685.9172               690.2460
 Red. masses --      6.8206                 1.2662                 1.2702
 Frc consts  --      0.5684                 0.3510                 0.3566
 IR Inten    --      4.6659                45.0902                43.4465

                      7                      8                      9
                     A"                     A'                     A'
 Frequencies --    711.4869               736.3134               828.3178
 Red. masses --      1.3899                 6.4282                 3.9724
 Frc consts  --      0.4145                 2.0534                 1.6058
 IR Inten    --      0.0458                33.0926                12.9220

                     10                     11                     12
                     A'                     A"                     A"
 Frequencies --   1016.1309              1047.3232              1235.0797
 Red. masses --      2.4215                 1.7264                 1.1691
 Frc consts  --      1.4731                 1.1157                 1.0508
 IR Inten    --     12.2656                 0.0442                 0.1655

                     13                     14                     15
                     A'                     A'                     A'
 Frequencies --   1322.9528              1414.8372              1437.2483
 Red. masses --      1.6767                 1.1420                 1.1392
 Frc consts  --      1.7290                 1.3468                 1.3865
 IR Inten    --     26.0608                12.7647                18.3230

                     16                     17                     18
                     A'                     A'                     A'
 Frequencies --   1827.9513              2230.3818              2873.8761
 Red. masses --     10.0595                 5.9088                 1.0832
 Frc consts  --     19.8041                17.3184                 5.2712
 IR Inten    --    165.4728                 1.9285               127.8069

                     19                     20                     21
                     A'                     A"                     A'
 Frequencies --   2998.0661              3018.3985              3463.3923
 Red. masses --      1.0602                 1.0977                 1.1633
 Frc consts  --      5.6146                 5.8922                 8.2215
 IR Inten    --     24.1820                 1.1194                64.6144

 - Thermochemistry -
 -------------------
 Temperature   298.150 Kelvin.  Pressure   1.00000 Atm.
 Atom     1 has atomic number  6 and mass  12.00000

 Molecular mass:    68.02621 amu.
 Principal axes and moments of inertia in atomic units:
                           1         2         3
     Eigenvalues --   141.11303 517.44477 647.66803
           X            0.99969  -0.02492   0.00000
           Y            0.02492   0.99969   0.00000
           Z            0.00000  -0.00000   1.00000
 This molecule is an asymmetric top.
 Rotational symmetry number  1.
 Rotational temperatures (Kelvin)      0.61379     0.16739     0.13373
 Rotational constants (GHZ):          12.78933     3.48779     2.78652
 Zero-point vibrational energy     170663.8 (Joules/Mol)
                                   40.78964 (Kcal/Mol)
 Warning -- explicit consideration of   4 degrees of freedom as
           vibrations may cause significant error
 Vibrational temperatures:    205.30   213.87   471.09   541.10   986.88
          (Kelvin)            993.11  1023.67  1059.39  1191.76  1461.98
                             1506.86  1777.00  1903.43  2035.63  2067.88
                             2630.01  3209.02  4134.86  4313.54  4342.80
                             4983.04

 Zero-point correction=                           0.065002 (Hartree/Particle)
 Thermal correction to Energy=                    0.070475
 Thermal correction to Enthalpy=                  0.071419
 Thermal correction to Gibbs Free Energy=         0.036562
 Sum of electronic and zero-point Energies=           -229.987876
 Sum of electronic and thermal Energies=              -229.982404
 Sum of electronic and thermal Enthalpies=            -229.981460
 Sum of electronic and thermal Free Energies=         -230.016316

                     E (Thermal)             CV                S
                      KCal/Mol        Cal/Mol-Kelvin    Cal/Mol-Kelvin
 Total                   44.224             18.027             73.362
 Electronic               0.000              0.000              0.000
 Translational            0.889              2.981             38.570
 Rotational               0.889              2.981             25.362
 Vibrational             42.446             12.065              9.431
 Vibration     1          0.616              1.911              2.767
 Vibration     2          0.618              1.904              2.689
 Vibration     3          0.711              1.621              1.273
 Vibration     4          0.747              1.521              1.055

 Optimization completed.
    -- Stationary point found.
 Normal termination of Gaussian 09 at Sun Mar  3 15:45:56 2019.
