 Gaussian 09, Revision E.01,
 Gaussian 09:  EM64L-G09RevE.01 30-Nov-2015

 ------------------------------------------------------
 #p b3lyp/6-311++G(3df,2p) freq IOp(2/17=3) IOp(2/18=3)
 ------------------------------------------------------

 ---------
 b3lyp opt
 ---------
 Symbolic Z-matrix:
 Charge =  0 Multiplicity = 1

                         Standard orientation:
 ---------------------------------------------------------------------
 Center     Atomic      Atomic             Coordinates (Angstroms)
 Number     Number       Type             X           Y           Z
 ---------------------------------------------------------------------
      1          8           0        2.107898    0.000133    0.088836
      2          6           0       -0.245148   -0.000497    0.471927
      3          6           0       -1.506299    0.639811   -0.082967
      4          6           0       -1.506810   -0.639338   -0.083264
      5          6           0        0.986288   -0.000105   -0.352657
      6          1           0       -0.060917   -0.000863    1.543695
      7          1           0       -1.985418    1.584271   -0.260771
      8          1           0       -1.986827   -1.583275   -0.261510
      9          1           0        0.801797   -0.000419   -1.450334
 ---------------------------------------------------------------------

 SCF Done:  E(RB3LYP) =  -230.030187183     A.U. after   12 cycles

 The electronic state is 1-A.
 Alpha  occ. eigenvalues --  -19.12021 -10.25561 -10.22022 -10.21898 -10.21273
 Alpha  occ. eigenvalues --   -1.04957  -0.91002  -0.68378  -0.59850  -0.57932
 Alpha  occ. eigenvalues --   -0.54133  -0.46232  -0.45089  -0.40741  -0.38863
 Alpha  occ. eigenvalues --   -0.31737  -0.30922  -0.25656
 Alpha virt. eigenvalues --   -0.05413  -0.01658  -0.00575   0.01205   0.01292
 Alpha virt. eigenvalues --    0.01795   0.05090   0.06357   0.06793   0.07250
 Alpha virt. eigenvalues --    0.08522   0.09443   0.10853   0.10855   0.11113

 Mulliken charges:
               1
     1  O   -0.610966
     2  C    0.006069
     3  C   -0.166197
     4  C   -0.165985
     5  C    0.158324
     6  H    0.158937
     7  H    0.251541
     8  H    0.251533
     9  H    0.116743
 Sum of Mulliken charges =  -0.00000

 Dipole moment (field-independent basis, Debye):
    X=             -3.8601    Y=             -0.0001    Z=             -0.6331  Tot=              3.9116
 Quadrupole moment (field-independent basis, Debye-Ang):
   XX=            -35.1880   YY=            -26.0768   ZZ=            -29.2745
   XY=             -0.0005   XZ=             -0.6973   YZ=              0.0004

  Exact polarizability:  62.229   0.001  43.266   3.745   0.001  42.795
 Approx polarizability:  87.959   0.004  72.080   8.994   0.003  60.909

                      1                      2                      3
                      A                      A                      A
 Frequencies --    134.1765               323.2627               345.8159
 Red. masses --      3.6790                 3.4952                 2.1353
 Frc consts  --      0.0390                 0.2152                 0.1505
 IR Inten    --      4.4603                 4.0219                 2.5911

                      4                      5                      6
                      A                      A                      A
 Frequencies --    519.9682               638.4800               745.6741
 Red. masses --      6.0802                 1.2234                 3.4131
 Frc consts  --      0.9686                 0.2938                 1.1181
 IR Inten    --     10.0574               100.0090                 3.9540

                      7                      8                      9
                      A                      A                      A
 Frequencies --    860.4451               929.6470              1010.1435
 Red. masses --      1.4379                 1.1595                 1.4001
 Frc consts  --      0.6272                 0.5904                 0.8418
 IR Inten    --      0.0617                 2.9066                43.1444

                     10                     11                     12
                      A                      A                      A
 Frequencies --   1034.5515              1071.0099              1105.3912
 Red. masses --      1.5471                 1.4454                 4.2665
 Frc consts  --      0.9756                 0.9769                 3.0716
 IR Inten    --      0.2714                 6.5008                17.2384

                     13                     14                     15
                      A                      A                      A
 Frequencies --   1113.1518              1318.1407              1413.0021
 Red. masses --      4.5897                 1.2062                 1.2243
 Frc consts  --      3.3507                 1.2348                 1.4402
 IR Inten    --     64.5563                 2.7746                 1.3830

                     16                     17                     18
                      A                      A                      A
 Frequencies --   1741.8886              1798.9788              2844.7309
 Red. masses --      5.6260                 8.5993                 1.0824
 Frc consts  --     10.0575                16.3970                 5.1608
 IR Inten    --    128.8963               168.1292               101.8154

                     19                     20                     21
                      A                      A                      A
 Frequencies --   3092.9807              3256.6075              3305.7357
 Red. masses --      1.0863                 1.0844                 1.1511
 Frc consts  --      6.1227                 6.7760                 7.4111
 IR Inten    --     25.8451                 5.6209                 1.9909

 - Thermochemistry -
 -------------------
 Temperature   298.150 Kelvin.  Pressure   1.00000 Atm.
 Atom     1 has atomic number  8 and mass  15.99491

 Molecular mass:    68.02621 amu.
 Principal axes and moments of inertia in atomic units:
                           1         2         3
     Eigenvalues --    85.65680 555.30927 575.87921
           X            1.00000  -0.00000  -0.00143
           Y            0.00000   1.00000   0.00003
           Z            0.00143  -0.00003   1.00000
 This molecule is an asymmetric top.
 Rotational symmetry number  1.
 Rotational temperatures (Kelvin)      1.01117     0.15597     0.15040
 Rotational constants (GHZ):          21.06945     3.24997     3.13389
 Zero-point vibrational energy     171088.6 (Joules/Mol)
                                   40.89116 (Kcal/Mol)
 Warning -- explicit consideration of   4 degrees of freedom as
           vibrations may cause significant error
 Vibrational temperatures:    193.05   465.10   497.55   748.12   918.63
          (Kelvin)           1072.86  1237.99  1337.55  1453.37  1488.49
                             1540.94  1590.41  1601.58  1896.51  2032.99
                             2506.19  2588.33  4092.93  4450.10  4685.53
                             4756.21

 Zero-point correction=                           0.065164 (Hartree/Particle)
 Thermal correction to Energy=                    0.070146
 Thermal correction to Enthalpy=                  0.071091
 Thermal correction to Gibbs Free Energy=         0.037496
 Sum of electronic and zero-point Energies=           -229.965023
 Sum of electronic and thermal Energies=              -229.960041
 Sum of electronic and thermal Enthalpies=            -229.959097
 Sum of electronic and thermal Free Energies=         -229.992691

                     E (Thermal)             CV                S
                      KCal/Mol        Cal/Mol-Kelvin    Cal/Mol-Kelvin
 Total                   44.018             16.867             70.706
 Electronic               0.000              0.000              0.000
 Translational            0.889              2.981             38.570
 Rotational               0.889              2.981             24.819
 Vibrational             42.240             10.906              7.317
 Vibration     1          0.613              1.919              2.885
 Vibration     2          0.708              1.629              1.294
 Vibration     3          0.724              1.584              1.185
 Vibration     4          0.875              1.206              0.610

 Optimization completed.
    -- Stationary point found.
 Normal termination of Gaussian 09 at Fri Mar  1 07:50:05 2019.
