 Gaussian 09, Revision E.01,
 Gaussian 09:  EM64L-G09RevE.01 30-Nov-2015

 ------------------------------------------------------
 #p b3lyp/6-311++G(3df,2p) freq IOp(2/17=3) IOp(2/18=3)
 ------------------------------------------------------

 ---------
 b3lyp opt
 ---------
 Symbolic Z-matrix:
 Charge =  0 Multiplicity = 1

                         Standard orientation:
 ---------------------------------------------------------------------
 Center     Atomic      Atomic             Coordinates (Angstroms)
 Number     Number       Type             X           Y           Z
 ---------------------------------------------------------------------
      1          6           0        2.363171   -0.498593    0.000000
      2          6           0       -1.210914   -0.243106    0.000000
      3          8           0       -2.333336    0.200802    0.000000
      4          6           0        0.000000    0.598354    0.000000
      5          6           0        1.196327    0.065353    0.000000
      6          1           0        2.871008   -0.739055    0.926307
      7          1           0       -1.022354   -1.333402    0.000000
      8          1           0       -0.144477    1.673047    0.000000
      9          1           0        2.871008   -0.739055   -0.926307
 ---------------------------------------------------------------------

 SCF Done:  E(RB3LYP) =  -230.070521233     A.U. after   13 cycles

 The electronic state is 1-A'.
 Alpha  occ. eigenvalues --  -19.12779 -10.26917 -10.22994 -10.20704 -10.20514
 Alpha  occ. eigenvalues --   -1.05692  -0.83624  -0.75623  -0.61841  -0.55929
 Alpha  occ. eigenvalues --   -0.50460  -0.47893  -0.46762  -0.43913  -0.41134
 Alpha  occ. eigenvalues --   -0.31414  -0.29947  -0.26960
 Alpha virt. eigenvalues --   -0.07242  -0.02790  -0.01241   0.01571   0.01714
 Alpha virt. eigenvalues --    0.01748   0.02781   0.05173   0.06260   0.07130
 Alpha virt. eigenvalues --    0.07200   0.10000   0.10397   0.10725   0.11784

 Mulliken charges:
               1
     1  C   -0.399718
     2  C    0.236026
     3  O   -0.598288
     4  C   -0.559197
     5  C    0.657857
     6  H    0.179448
     7  H    0.134378
     8  H    0.170045
     9  H    0.179448
 Sum of Mulliken charges =  -0.00000

 Dipole moment (field-independent basis, Debye):
    X=              3.7364    Y=             -0.7602    Z=              0.0000  Tot=              3.8129
 Quadrupole moment (field-independent basis, Debye-Ang):
   XX=            -34.0571   YY=            -28.4419   ZZ=            -28.9377
   XY=             -0.2579   XZ=              0.0000   YZ=             -0.0000

  Exact polarizability:  91.546 -12.360  46.824  -0.000   0.000  35.074
 Approx polarizability: 143.505 -26.412  68.442   0.000  -0.000  50.263

                      1                      2                      3
                     A"                     A'                     A"
 Frequencies --    130.0822               165.4858               388.0225
 Red. masses --      3.3953                 4.3105                 2.3106
 Frc consts  --      0.0338                 0.0696                 0.2050
 IR Inten    --      5.2852                 0.8333                 9.0067

                      4                      5                      6
                     A'                     A"                     A'
 Frequencies --    477.0192               544.0556               559.9674
 Red. masses --      4.5614                 1.2246                 7.5171
 Frc consts  --      0.6115                 0.2136                 1.3888
 IR Inten    --     35.5067                 4.2179                 7.9843

                      7                      8                      9
                     A'                     A"                     A"
 Frequencies --    884.9015               911.8047               999.3884
 Red. masses --      1.3133                 1.1325                 1.5822
 Frc consts  --      0.6059                 0.5547                 0.9311
 IR Inten    --     51.2725                24.8704                 0.0925

                     10                     11                     12
                     A"                     A'                     A'
 Frequencies --   1022.9021              1075.1242              1123.4728
 Red. masses --      1.7524                 3.7618                 1.8706
 Frc consts  --      1.0803                 2.5619                 1.3911
 IR Inten    --      0.1160                44.6713                69.3184

                     13                     14                     15
                     A'                     A'                     A'
 Frequencies --   1303.9685              1415.8250              1464.3663
 Red. masses --      1.5417                 1.1649                 1.5226
 Frc consts  --      1.5445                 1.3758                 1.9237
 IR Inten    --      2.2329                 0.4974                 2.2624

                     16                     17                     18
                     A'                     A'                     A'
 Frequencies --   1765.2492              2021.8951              2908.6100
 Red. masses --      9.6767                 9.9582                 1.0845
 Frc consts  --     17.7660                23.9854                 5.4055
 IR Inten    --    404.6885               142.8350                65.0535

                     19                     20                     21
                     A'                     A'                     A"
 Frequencies --   3122.6608              3152.3606              3195.9959
 Red. masses --      1.0589                 1.0895                 1.1144
 Frc consts  --      6.0837                 6.3791                 6.7068
 IR Inten    --      0.9880                 0.0678                 0.3836

 - Thermochemistry -
 -------------------
 Temperature   298.150 Kelvin.  Pressure   1.00000 Atm.
 Atom     1 has atomic number  6 and mass  12.00000

 Molecular mass:    68.02621 amu.
 Principal axes and moments of inertia in atomic units:
                           1         2         3
     Eigenvalues --    49.99110 750.26732 787.90599
           X            0.99460   0.10374   0.00000
           Y           -0.10374   0.99460   0.00000
           Z            0.00000  -0.00000   1.00000
 This molecule is an asymmetric top.
 Rotational symmetry number  1.
 Rotational temperatures (Kelvin)      1.73258     0.11544     0.10993
 Rotational constants (GHZ):          36.10125     2.40546     2.29055
 Zero-point vibrational energy     171264.3 (Joules/Mol)
                                   40.93315 (Kcal/Mol)
 Warning -- explicit consideration of   6 degrees of freedom as
           vibrations may cause significant error
 Vibrational temperatures:    187.16   238.10   558.28   686.32   782.77
          (Kelvin)            805.67  1273.17  1311.88  1437.90  1471.73
                             1546.86  1616.42  1876.12  2037.05  2106.89
                             2539.80  2909.05  4184.84  4492.81  4535.54
                             4598.32

 Zero-point correction=                           0.065231 (Hartree/Particle)
 Thermal correction to Energy=                    0.070554
 Thermal correction to Enthalpy=                  0.071499
 Thermal correction to Gibbs Free Energy=         0.037123
 Sum of electronic and zero-point Energies=           -230.005290
 Sum of electronic and thermal Energies=              -229.999967
 Sum of electronic and thermal Enthalpies=            -229.999023
 Sum of electronic and thermal Free Energies=         -230.033399

                     E (Thermal)             CV                S
                      KCal/Mol        Cal/Mol-Kelvin    Cal/Mol-Kelvin
 Total                   44.274             17.507             72.350
 Electronic               0.000              0.000              0.000
 Translational            0.889              2.981             38.570
 Rotational               0.889              2.981             24.895
 Vibrational             42.496             11.545              8.886
 Vibration     1          0.612              1.923              2.945
 Vibration     2          0.624              1.885              2.486
 Vibration     3          0.756              1.496              1.008
 Vibration     4          0.834              1.301              0.718
 Vibration     5          0.899              1.153              0.557
 Vibration     6          0.916              1.118              0.524

 Optimization completed.
    -- Stationary point found.
 Normal termination of Gaussian 09 at Fri Mar  1 07:38:30 2019.
