 Gaussian 09, Revision E.01,
 Gaussian 09:  EM64L-G09RevE.01 30-Nov-2015

 ------------------------------------------------------
 #p b3lyp/6-311++G(3df,2p) freq IOp(2/17=3) IOp(2/18=3)
 ------------------------------------------------------

 ---------
 b3lyp opt
 ---------
 Symbolic Z-matrix:
 Charge =  0 Multiplicity = 1

                         Standard orientation:
 ---------------------------------------------------------------------
 Center     Atomic      Atomic             Coordinates (Angstroms)
 Number     Number       Type             X           Y           Z
 ---------------------------------------------------------------------
      1          8           0        1.306817    0.850113    0.000000
      2          6           0        0.000000    0.444959    0.000000
      3          6           0       -1.052467    1.268830    0.000000
      4          6           0       -0.126306   -0.976182    0.000000
      5          6           0       -0.234732   -2.171143    0.000000
      6          1           0       -0.929212    2.343753    0.000000
      7          1           0       -2.054355    0.872565    0.000000
      8          1           0        1.340789    1.812605    0.000000
      9          1           0       -0.330725   -3.228607    0.000000
 ---------------------------------------------------------------------

 SCF Done:  E(RB3LYP) =  -230.044920437     A.U. after   12 cycles

 The electronic state is 1-A'.
 Alpha  occ. eigenvalues --  -19.16816 -10.26463 -10.18719 -10.18198 -10.17350
 Alpha  occ. eigenvalues --   -1.07816  -0.80595  -0.74610  -0.65734  -0.55900
 Alpha  occ. eigenvalues --   -0.52167  -0.50248  -0.42473  -0.42292  -0.38964
 Alpha  occ. eigenvalues --   -0.31367  -0.30006  -0.24475
 Alpha virt. eigenvalues --   -0.03884  -0.01637   0.00594   0.00812   0.02102
 Alpha virt. eigenvalues --    0.03828   0.06317   0.06340   0.06621   0.07135
 Alpha virt. eigenvalues --    0.08650   0.09600   0.10850   0.11018   0.12530

 Mulliken charges:
               1
     1  O   -0.601212
     2  C    0.378361
     3  C   -0.517417
     4  C   -0.513667
     5  C    0.385948
     6  H    0.132485
     7  H    0.165996
     8  H    0.252864
     9  H    0.316643
 Sum of Mulliken charges =  -0.00000

 Dipole moment (field-independent basis, Debye):
    X=             -0.5777    Y=              1.0354    Z=              0.0000  Tot=              1.1856
 Quadrupole moment (field-independent basis, Debye-Ang):
   XX=            -30.7043   YY=            -19.3203   ZZ=            -32.3704
   XY=              2.2623   XZ=              0.0000   YZ=              0.0000

  Exact polarizability:  51.278  -5.517  79.707  -0.000   0.000  35.914
 Approx polarizability:  76.944 -13.097 128.370  -0.000  -0.000  49.997

                      1                      2                      3
                     A'                     A"                     A"
 Frequencies --    193.1513               271.9340               386.2939
 Red. masses --      3.8287                 3.1902                 1.1105
 Frc consts  --      0.0842                 0.1390                 0.0976
 IR Inten    --      4.9861                19.4046                86.8428

                      4                      5                      6
                     A'                     A'                     A"
 Frequencies --    449.6184               584.0205               648.4265
 Red. masses --      2.6622                 5.7447                 4.0678
 Frc consts  --      0.3171                 1.1545                 1.0077
 IR Inten    --     13.2631                 0.0924                 8.4918

                      7                      8                      9
                     A"                     A"                     A'
 Frequencies --    660.7895               704.6906               705.1759
 Red. masses --      1.2555                 1.2000                 1.2952
 Frc consts  --      0.3230                 0.3511                 0.3795
 IR Inten    --     33.6694                 2.0096                37.6657

                     10                     11                     12
                     A'                     A"                     A'
 Frequencies --    815.2651               840.7716               978.2008
 Red. masses --      4.0524                 1.4343                 1.8425
 Frc consts  --      1.5869                 0.5974                 1.0388
 IR Inten    --      4.9441                60.9644                31.5546

                     13                     14                     15
                     A'                     A'                     A'
 Frequencies --   1180.9544              1362.3050              1445.4990
 Red. masses --      1.6390                 2.2863                 1.2160
 Frc consts  --      1.3468                 2.5000                 1.4969
 IR Inten    --    205.1260                34.3967                 4.8443

                     16                     17                     18
                     A'                     A'                     A'
 Frequencies --   1670.4685              2217.3735              3151.1194
 Red. masses --      5.1749                 6.0430                 1.0630
 Frc consts  --      8.5080                17.5058                 6.2191
 IR Inten    --    140.5015                 3.2007                 4.2192

                     19                     20                     21
                     A'                     A'                     A'
 Frequencies --   3254.1437              3462.8840              3819.2569
 Red. masses --      1.1138                 1.1606                 1.0655
 Frc consts  --      6.9490                 8.2002                 9.1572
 IR Inten    --      1.9563                72.1537                45.5303

 - Thermochemistry -
 -------------------
 Temperature   298.150 Kelvin.  Pressure   1.00000 Atm.
 Atom     1 has atomic number  8 and mass  15.99491

 Molecular mass:    68.02621 amu.
 Principal axes and moments of inertia in atomic units:
                           1         2         3
     Eigenvalues --   169.18065 437.11173 606.29238
           X            0.11968   0.99281   0.00000
           Y            0.99281  -0.11968   0.00000
           Z            0.00000  -0.00000   1.00000
 This molecule is an asymmetric top.
 Rotational symmetry number  1.
 Rotational temperatures (Kelvin)      0.51196     0.19815     0.14286
 Rotational constants (GHZ):          10.66754     4.12879     2.97668
 Zero-point vibrational energy     172276.3 (Joules/Mol)
                                   41.17502 (Kcal/Mol)
 Warning -- explicit consideration of   5 degrees of freedom as
           vibrations may cause significant error
 Vibrational temperatures:    277.90   391.25   555.79   646.90   840.27
          (Kelvin)            932.94   950.73  1013.89  1014.59  1172.98
                             1209.68  1407.41  1699.13  1960.05  2079.75
                             2403.43  3190.30  4533.75  4681.98  4982.31
                             5495.05

 Zero-point correction=                           0.065617 (Hartree/Particle)
 Thermal correction to Energy=                    0.070936
 Thermal correction to Enthalpy=                  0.071881
 Thermal correction to Gibbs Free Energy=         0.037747
 Sum of electronic and zero-point Energies=           -229.979304
 Sum of electronic and thermal Energies=              -229.973984
 Sum of electronic and thermal Enthalpies=            -229.973040
 Sum of electronic and thermal Free Energies=         -230.007173

                     E (Thermal)             CV                S
                      KCal/Mol        Cal/Mol-Kelvin    Cal/Mol-Kelvin
 Total                   44.513             19.028             71.840
 Electronic               0.000              0.000              0.000
 Translational            0.889              2.981             38.570
 Rotational               0.889              2.981             25.309
 Vibrational             42.736             13.066              7.962
 Vibration     1          0.635              1.849              2.197
 Vibration     2          0.675              1.725              1.584
 Vibration     3          0.755              1.499              1.014
 Vibration     4          0.809              1.362              0.797
 Vibration     5          0.941              1.066              0.478

 Optimization completed.
    -- Stationary point found.
 Normal termination of Gaussian 09 at Fri Mar  1 07:48:58 2019.
