 Gaussian 09, Revision E.01,
 Gaussian 09:  EM64L-G09RevE.01 30-Nov-2015

 ------------------------------------------------------
 #p b3lyp/6-311++G(3df,2p) freq IOp(2/17=3) IOp(2/18=3)
 ------------------------------------------------------

 ---------
 b3lyp opt
 ---------
 Symbolic Z-matrix:
 Charge =  0 Multiplicity = 1

                         Standard orientation:
 ---------------------------------------------------------------------
 Center     Atomic      Atomic             Coordinates (Angstroms)
 Number     Number       Type             X           Y           Z
 ---------------------------------------------------------------------
      1          8           0       -1.813677    1.831572    0.000000
      2          6           0        1.894031   -1.445541    0.000000
      3          6           0        0.454124   -1.059866    0.000000
      4          6           0        0.000000    0.186727    0.000000
      5          6           0       -1.018399    0.976893    0.000000
      6          1           0        2.116540   -2.065314    0.874009
      7          1           0        2.116540   -2.065314   -0.874009
      8          1           0        2.546509   -0.576261    0.000000
      9          1           0       -0.248711   -1.894967    0.000000
 ---------------------------------------------------------------------

 SCF Done:  E(RB3LYP) =  -230.068180278     A.U. after   13 cycles

 The electronic state is 1-A'.
 Alpha  occ. eigenvalues --  -19.17954 -10.28563 -10.23637 -10.18807 -10.17876
 Alpha  occ. eigenvalues --   -1.10894  -0.82862  -0.75177  -0.65007  -0.52659
 Alpha  occ. eigenvalues --   -0.50531  -0.45809  -0.45408  -0.43782  -0.42714
 Alpha  occ. eigenvalues --   -0.40207  -0.29892  -0.23840
 Alpha virt. eigenvalues --   -0.09609  -0.02055   0.00665   0.01752   0.02413
 Alpha virt. eigenvalues --    0.03868   0.05132   0.06049   0.06460   0.06827
 Alpha virt. eigenvalues --    0.06904   0.08733   0.10346   0.11706   0.11790

 Mulliken charges:
               1
     1  O   -0.609122
     2  C   -0.417633
     3  C   -0.162709
     4  C    0.329030
     5  C    0.247328
     6  H    0.151810
     7  H    0.151810
     8  H    0.165465
     9  H    0.144021
 Sum of Mulliken charges =  -0.00000

 Dipole moment (field-independent basis, Debye):
    X=              1.6562    Y=             -2.9402    Z=              0.0000  Tot=              3.3746
 Quadrupole moment (field-independent basis, Debye-Ang):
   XX=            -30.5073   YY=            -30.0289   ZZ=            -29.3273
   XY=              1.0768   XZ=              0.0000   YZ=              0.0000

  Exact polarizability:  68.311 -28.002  71.762  -0.000   0.000  35.790
 Approx polarizability: 112.468 -57.924 124.192  -0.000   0.000  51.232

                      1                      2                      3
                     A'                     A"                     A"
 Frequencies --    112.1462               132.9130               188.2955
 Red. masses --      5.0795                 1.9344                 2.1203
 Frc consts  --      0.0376                 0.0201                 0.0443
 IR Inten    --      7.0924                 0.3181                 0.5746

                      4                      5                      6
                     A'                     A'                     A"
 Frequencies --    432.8751               519.7124               613.5268
 Red. masses --      3.4347                11.5448                 5.0013
 Frc consts  --      0.3792                 1.8372                 1.1092
 IR Inten    --     21.2521                13.0642                26.6569

                      7                      8                      9
                     A"                     A'                     A"
 Frequencies --    817.9164               819.6046              1064.7438
 Red. masses --      1.3583                 2.5042                 1.6531
 Frc consts  --      0.5354                 0.9911                 1.1042
 IR Inten    --      2.6076                22.2759                 0.3563

                     10                     11                     12
                     A'                     A'                     A'
 Frequencies --   1088.3766              1125.2297              1358.8975
 Red. masses --      2.2660                 2.5448                 1.3193
 Frc consts  --      1.5815                 1.8984                 1.4354
 IR Inten    --     10.4411                25.4935                47.7909

                     13                     14                     15
                     A'                     A"                     A'
 Frequencies --   1396.8405              1474.2000              1474.3789
 Red. masses --      1.2357                 1.0455                 1.0783
 Frc consts  --      1.4205                 1.3387                 1.3810
 IR Inten    --     16.4542                 8.2609                14.4868

                     16                     17                     18
                     A'                     A'                     A'
 Frequencies --   1769.5822              2220.1930              3007.7190
 Red. masses --      9.4772                12.2991                 1.0394
 Frc consts  --     17.4853                35.7196                 5.5401
 IR Inten    --     13.6911              1411.0217                 5.3205

                     19                     20                     21
                     A"                     A'                     A'
 Frequencies --   3047.5712              3054.2099              3127.0133
 Red. masses --      1.0969                 1.0864                 1.0994
 Frc consts  --      6.0023                 5.9708                 6.3340
 IR Inten    --      7.4734                26.4151                11.0443

 - Thermochemistry -
 -------------------
 Temperature   298.150 Kelvin.  Pressure   1.00000 Atm.
 Atom     1 has atomic number  8 and mass  15.99491

 Molecular mass:    68.02621 amu.
 Principal axes and moments of inertia in atomic units:
                           1         2         3
     Eigenvalues --    33.36394 840.40130 862.76823
           X            0.72195   0.69194   0.00000
           Y           -0.69194   0.72195   0.00000
           Z           -0.00000   0.00000   1.00000
 This molecule is an asymmetric top.
 Rotational symmetry number  1.
 Rotational temperatures (Kelvin)      2.59603     0.10306     0.10039
 Rotational constants (GHZ):          54.09257     2.14748     2.09180
 Zero-point vibrational energy     172537.1 (Joules/Mol)
                                   41.23735 (Kcal/Mol)
 Warning -- explicit consideration of   6 degrees of freedom as
           vibrations may cause significant error
 Vibrational temperatures:    161.35   191.23   270.91   622.81   747.75
          (Kelvin)            882.73  1176.80  1179.23  1531.93  1565.93
                             1618.95  1955.15  2009.74  2121.04  2121.30
                             2546.03  3194.36  4327.43  4384.77  4394.32
                             4499.07

 Zero-point correction=                           0.065716 (Hartree/Particle)
 Thermal correction to Energy=                    0.071407
 Thermal correction to Enthalpy=                  0.072351
 Thermal correction to Gibbs Free Energy=         0.037106
 Sum of electronic and zero-point Energies=           -230.002464
 Sum of electronic and thermal Energies=              -229.996773
 Sum of electronic and thermal Enthalpies=            -229.995829
 Sum of electronic and thermal Free Energies=         -230.031075

                     E (Thermal)             CV                S
                      KCal/Mol        Cal/Mol-Kelvin    Cal/Mol-Kelvin
 Total                   44.809             17.814             74.180
 Electronic               0.000              0.000              0.000
 Translational            0.889              2.981             38.570
 Rotational               0.889              2.981             24.696
 Vibrational             43.031             11.852             10.915
 Vibration     1          0.607              1.939              3.231
 Vibration     2          0.613              1.920              2.903
 Vibration     3          0.633              1.856              2.245
 Vibration     4          0.794              1.399              0.849
 Vibration     5          0.875              1.206              0.611
 Vibration     6          0.973              1.003              0.427

 Optimization completed.
    -- Stationary point found.
 Normal termination of Gaussian 09 at Fri Mar  1 07:58:48 2019.
