 Gaussian 09, Revision E.01,
 Gaussian 09:  EM64L-G09RevE.01 30-Nov-2015

 ------------------------------------------------------
 #p b3lyp/6-311++G(3df,2p) freq IOp(2/17=3) IOp(2/18=3)
 ------------------------------------------------------

 ---------
 b3lyp opt
 ---------
 Symbolic Z-matrix:
 Charge =  1 Multiplicity = 2

                         Standard orientation:
 ---------------------------------------------------------------------
 Center     Atomic      Atomic             Coordinates (Angstroms)
 Number     Number       Type             X           Y           Z
 ---------------------------------------------------------------------
      1          6           0       -0.981735   -0.401594   -0.000346
      2          6           0        2.531476   -0.197245    0.000263
      3          8           0       -2.238695   -0.124467    0.000339
      4          6           0        1.359754    0.143116   -0.000227
      5          6           0        0.050930    0.543420   -0.000364
      6          1           0       -0.776601   -1.466791   -0.000874
      7          1           0       -2.454470    0.824870    0.001295
      8          1           0        3.558484   -0.493844    0.001249
      9          1           0       -0.180406    1.605317   -0.000334
 ---------------------------------------------------------------------

 SCF Done:  E(UB3LYP) =  -229.741143434     A.U. after   16 cycles

 The electronic state is 2-A.
 Alpha  occ. eigenvalues --  -19.43596 -10.51721 -10.45155 -10.42998 -10.41886
 Alpha  occ. eigenvalues --   -1.35403  -1.05764  -0.98057  -0.90769  -0.80349
 Alpha  occ. eigenvalues --   -0.76927  -0.73791  -0.68419  -0.67662  -0.62185
 Alpha  occ. eigenvalues --   -0.57989  -0.51471  -0.47731
 Alpha virt. eigenvalues --   -0.27517  -0.19912  -0.17604  -0.14055  -0.13850
 Alpha virt. eigenvalues --   -0.12963  -0.10605  -0.09553  -0.08303  -0.07227
 Alpha virt. eigenvalues --   -0.06381  -0.05157  -0.04683  -0.04029  -0.02880

  Beta  occ. eigenvalues --  -19.43161 -10.51482 -10.44700 -10.42288 -10.41942
  Beta  occ. eigenvalues --   -1.34571  -1.04590  -0.96215  -0.90117  -0.79738
  Beta  occ. eigenvalues --   -0.76525  -0.73193  -0.67425  -0.65796  -0.61721
  Beta  occ. eigenvalues --   -0.54587  -0.50943
  Beta virt. eigenvalues --   -0.38485  -0.24236  -0.19635  -0.17452  -0.13969
  Beta virt. eigenvalues --   -0.12813  -0.12112  -0.10386  -0.09037  -0.08099
  Beta virt. eigenvalues --   -0.07087  -0.06220  -0.04615  -0.04579  -0.03429

 Mulliken charges and spin densities:
               1          2
     1  C    0.231029   0.159960
     2  C    0.055690   0.417362
     3  O   -0.412302   0.137466
     4  C    0.099863   0.014405
     5  C   -0.092480   0.305641
     6  H    0.253181  -0.005444
     7  H    0.319311  -0.005709
     8  H    0.353243  -0.012997
     9  H    0.192464  -0.010683
 Sum of Mulliken charges =   1.00000   1.00000

 Dipole moment (field-independent basis, Debye):
    X=              0.5614    Y=              0.8843    Z=              0.0018  Tot=              1.0475
 Quadrupole moment (field-independent basis, Debye-Ang):
   XX=             -3.7968   YY=            -21.7897   ZZ=            -27.9045
   XY=             -5.6756   XZ=              0.0008   YZ=              0.0025

  Exact polarizability:  97.714  -3.975  37.616   0.002   0.001  27.533
 Approx polarizability: 161.094  -9.736  55.054   0.007   0.000  39.120

                      1                      2                      3
                      A                      A                      A
 Frequencies --    154.3562               165.8793               412.9345
 Red. masses --      2.9765                 4.2133                 3.4554
 Frc consts  --      0.0418                 0.0683                 0.3471
 IR Inten    --      4.6408                 2.6552                10.5991

                      4                      5                      6
                      A                      A                      A
 Frequencies --    433.9653               548.8242               655.7868
 Red. masses --      3.7303                 6.3637                 1.2764
 Frc consts  --      0.4139                 1.1293                 0.3234
 IR Inten    --     17.7804                 5.0998                68.7166

                      7                      8                      9
                      A                      A                      A
 Frequencies --    703.1332               715.9978               858.0334
 Red. masses --      1.2477                 1.3674                 1.5699
 Frc consts  --      0.3634                 0.4130                 0.6810
 IR Inten    --     41.9624                15.4738                61.4534

                     10                     11                     12
                      A                      A                      A
 Frequencies --   1025.4084              1087.1592              1165.1180
 Red. masses --      1.2861                 2.8337                 1.3971
 Frc consts  --      0.7967                 1.9733                 1.1174
 IR Inten    --     35.3266                27.4942                68.8886

                     13                     14                     15
                      A                      A                      A
 Frequencies --   1295.4825              1369.9344              1408.9972
 Red. masses --      1.5982                 2.4401                 1.5376
 Frc consts  --      1.5803                 2.6981                 1.7985
 IR Inten    --    161.4065                82.0102                 5.5117

                     16                     17                     18
                      A                      A                      A
 Frequencies --   1596.1732              2100.1143              3136.7653
 Red. masses --      3.5907                 6.6106                 1.0904
 Frc consts  --      5.3900                17.1782                 6.3211
 IR Inten    --    405.5155               143.4757                13.8510

                     19                     20                     21
                      A                      A                      A
 Frequencies --   3186.2883              3393.0537              3687.2828
 Red. masses --      1.0950                 1.1498                 1.0663
 Frc consts  --      6.5502                 7.7992                 8.5417
 IR Inten    --     12.8829               127.0461               263.0332

 - Thermochemistry -
 -------------------
 Temperature   298.150 Kelvin.  Pressure   1.00000 Atm.
 Atom     1 has atomic number  6 and mass  12.00000

 Molecular mass:    68.02621 amu.
 Principal axes and moments of inertia in atomic units:
                           1         2         3
     Eigenvalues --    43.17662 751.22151 794.39805
           X            0.99989  -0.01466   0.00001
           Y            0.01466   0.99989   0.00010
           Z           -0.00001  -0.00010   1.00000
 This molecule is an asymmetric top.
 Rotational symmetry number  1.
 Rotational temperatures (Kelvin)      2.00604     0.11530     0.10903
 Rotational constants (GHZ):          41.79904     2.40241     2.27183
 Zero-point vibrational energy     174060.8 (Joules/Mol)
                                   41.60152 (Kcal/Mol)
 Warning -- explicit consideration of   5 degrees of freedom as
           vibrations may cause significant error
 Vibrational temperatures:    222.08   238.66   594.12   624.38   789.63
          (Kelvin)            943.53  1011.65  1030.16  1234.52  1475.33
                             1564.18  1676.34  1863.91  1971.03  2027.23
                             2296.53  3021.59  4513.10  4584.35  4881.84
                             5305.17

 Zero-point correction=                           0.066296 (Hartree/Particle)
 Thermal correction to Energy=                    0.071668
 Thermal correction to Enthalpy=                  0.072612
 Thermal correction to Gibbs Free Energy=         0.037688
 Sum of electronic and zero-point Energies=           -229.674847
 Sum of electronic and thermal Energies=              -229.669475
 Sum of electronic and thermal Enthalpies=            -229.668531
 Sum of electronic and thermal Free Energies=         -229.703455

                     E (Thermal)             CV                S
                      KCal/Mol        Cal/Mol-Kelvin    Cal/Mol-Kelvin
 Total                   44.972             18.125             73.504
 Electronic               0.000              0.000              1.377
 Translational            0.889              2.981             38.570
 Rotational               0.889              2.981             24.758
 Vibrational             43.195             12.163              8.798
 Vibration     1          0.620              1.898              2.618
 Vibration     2          0.624              1.884              2.482
 Vibration     3          0.777              1.442              0.916
 Vibration     4          0.795              1.396              0.846
 Vibration     5          0.904              1.142              0.547

 Normal termination of Gaussian 09 at Fri Mar  1 08:20:17 2019.
