 Gaussian 09, Revision E.01,
 Gaussian 09:  EM64L-G09RevE.01 30-Nov-2015

 ------------------------------------------------------
 #p b3lyp/6-311++G(3df,2p) freq IOp(2/17=3) IOp(2/18=3)
 ------------------------------------------------------

 ---------
 b3lyp opt
 ---------
 Symbolic Z-matrix:
 Charge =  1 Multiplicity = 2

                         Standard orientation:
 ---------------------------------------------------------------------
 Center     Atomic      Atomic             Coordinates (Angstroms)
 Number     Number       Type             X           Y           Z
 ---------------------------------------------------------------------
      1          8           0       -0.403686   -0.204366    0.000000
      2          6           0        0.000000    1.098410    0.000000
      3          6           0       -0.969656    2.033856    0.000000
      4          6           0        0.404522   -1.185339   -0.000000
      5          6           0        1.092227   -2.182645   -0.000000
      6          1           0        1.068985    1.263104   -0.000000
      7          1           0       -0.698140    3.079858    0.000000
      8          1           0       -2.016086    1.759273    0.000000
      9          1           0        1.712173   -3.052995   -0.000000
 ---------------------------------------------------------------------

 SCF Done:  E(UB3LYP) =  -229.685645988     A.U. after   15 cycles

 The electronic state is 2-A".
 Alpha  occ. eigenvalues --  -19.49622 -10.49336 -10.48357 -10.43756 -10.42942
 Alpha  occ. eigenvalues --   -1.40724  -1.05887  -0.99781  -0.90550  -0.81815
 Alpha  occ. eigenvalues --   -0.75212  -0.74368  -0.72854  -0.66535  -0.63284
 Alpha  occ. eigenvalues --   -0.55104  -0.52051  -0.49889
 Alpha virt. eigenvalues --   -0.24567  -0.18871  -0.17099  -0.16860  -0.13003
 Alpha virt. eigenvalues --   -0.12508  -0.10642  -0.09885  -0.09507  -0.07185
 Alpha virt. eigenvalues --   -0.07084  -0.06886  -0.05348  -0.03368  -0.02536

  Beta  occ. eigenvalues --  -19.48844 -10.49329 -10.48400 -10.43121 -10.42414
  Beta  occ. eigenvalues --   -1.39406  -1.05061  -0.97915  -0.89513  -0.81410
  Beta  occ. eigenvalues --   -0.74602  -0.72310  -0.70977  -0.66058  -0.62999
  Beta  occ. eigenvalues --   -0.51492  -0.51071
  Beta virt. eigenvalues --   -0.40829  -0.22226  -0.18617  -0.16607  -0.14716
  Beta virt. eigenvalues --   -0.12846  -0.12450  -0.10476  -0.09664  -0.09274
  Beta virt. eigenvalues --   -0.07072  -0.06943  -0.06644  -0.04664  -0.03283

 Mulliken charges and spin densities:
               1          2
     1  O   -0.441326   0.224648
     2  C    0.240094   0.037075
     3  C   -0.189610   0.360445
     4  C    0.004743  -0.030750
     5  C    0.328518   0.441970
     6  H    0.227836  -0.001416
     7  H    0.218404  -0.011774
     8  H    0.224923  -0.009290
     9  H    0.386418  -0.010907
 Sum of Mulliken charges =   1.00000   1.00000

 Dipole moment (field-independent basis, Debye):
    X=              0.9791    Y=              0.7391    Z=             -0.0000  Tot=              1.2267
 Quadrupole moment (field-independent basis, Debye-Ang):
   XX=            -19.6199   YY=             -3.4657   ZZ=            -27.7411
   XY=            -10.2801   XZ=              0.0000   YZ=              0.0000

  Exact polarizability:  51.816 -38.493 122.844   0.000  -0.000  28.177
 Approx polarizability:  83.709 -75.562 218.655  -0.000   0.000  39.648

                      1                      2                      3
                     A"                     A'                     A'
 Frequencies --    140.4163               173.3050               425.7275
 Red. masses --      3.4155                 3.8930                 3.1328
 Frc consts  --      0.0397                 0.0689                 0.3345
 IR Inten    --      4.2405                 4.2253                 2.2684

                      4                      5                      6
                     A"                     A'                     A"
 Frequencies --    426.4500               557.7888               644.4070
 Red. masses --      6.3953                 6.1995                 1.2773
 Frc consts  --      0.6852                 1.1364                 0.3125
 IR Inten    --      0.0001                 0.2714                 0.7619

                      7                      8                      9
                     A'                     A"                     A'
 Frequencies --    662.6058               676.8139               866.3124
 Red. masses --      1.1871                 1.2616                 2.5218
 Frc consts  --      0.3071                 0.3405                 1.1151
 IR Inten    --     44.6621                25.2106                48.6048

                     10                     11                     12
                     A"                     A"                     A'
 Frequencies --    922.1880              1007.9491              1080.1387
 Red. masses --      1.2139                 1.3953                 3.0735
 Frc consts  --      0.6082                 0.8352                 2.1128
 IR Inten    --     32.5421                21.6488               326.8411

                     13                     14                     15
                     A'                     A'                     A'
 Frequencies --   1157.5189              1315.1097              1407.2855
 Red. masses --      4.9941                 1.4515                 1.2325
 Frc consts  --      3.9424                 1.4790                 1.4381
 IR Inten    --     46.0821                89.5856               141.6841

                     16                     17                     18
                     A'                     A'                     A'
 Frequencies --   1545.9631              2128.0171              3157.3640
 Red. masses --      2.1604                 6.3893                 1.0565
 Frc consts  --      3.0421                17.0472                 6.2056
 IR Inten    --    249.9497               582.9170                22.4602

                     19                     20                     21
                     A'                     A'                     A'
 Frequencies --   3208.9489              3264.7480              3398.9801
 Red. masses --      1.1009                 1.1209                 1.1550
 Frc consts  --      6.6792                 7.0388                 7.8616
 IR Inten    --      5.5266                22.6892               101.1127

 - Thermochemistry -
 -------------------
 Temperature   298.150 Kelvin.  Pressure   1.00000 Atm.
 Atom     1 has atomic number  8 and mass  15.99491

 Molecular mass:    68.02621 amu.
 Principal axes and moments of inertia in atomic units:
                           1         2         3
     Eigenvalues --    35.58991 682.98322 718.57313
           X           -0.39924   0.91685   0.00000
           Y            0.91685   0.39924   0.00000
           Z            0.00000   0.00000   1.00000
 This molecule is an asymmetric top.
 Rotational symmetry number  1.
 Rotational temperatures (Kelvin)      2.43366     0.12682     0.12054
 Rotational constants (GHZ):          50.70935     2.64244     2.51156
 Zero-point vibrational energy     168482.3 (Joules/Mol)
                                   40.26823 (Kcal/Mol)
 Warning -- explicit consideration of   5 degrees of freedom as
           vibrations may cause significant error
 Vibrational temperatures:    202.03   249.35   612.53   613.57   802.53
          (Kelvin)            927.16   953.34   973.78  1246.43  1326.82
                             1450.21  1554.08  1665.41  1892.15  2024.77
                             2224.29  3061.74  4542.74  4616.96  4697.24
                             4890.37

 Zero-point correction=                           0.064172 (Hartree/Particle)
 Thermal correction to Energy=                    0.069626
 Thermal correction to Enthalpy=                  0.070570
 Thermal correction to Gibbs Free Energy=         0.035694
 Sum of electronic and zero-point Energies=           -229.621474
 Sum of electronic and thermal Energies=              -229.616020
 Sum of electronic and thermal Enthalpies=            -229.615076
 Sum of electronic and thermal Free Energies=         -229.649952

                     E (Thermal)             CV                S
                      KCal/Mol        Cal/Mol-Kelvin    Cal/Mol-Kelvin
 Total                   43.691             18.649             73.404
 Electronic               0.000              0.000              1.377
 Translational            0.889              2.981             38.570
 Rotational               0.889              2.981             24.372
 Vibrational             41.914             12.688              9.085
 Vibration     1          0.615              1.913              2.798
 Vibration     2          0.627              1.875              2.399
 Vibration     3          0.788              1.414              0.873
 Vibration     4          0.788              1.413              0.870
 Vibration     5          0.913              1.123              0.528

 Normal termination of Gaussian 09 at Fri Mar  1 08:30:33 2019.
