 Gaussian 09, Revision E.01,
 Gaussian 09:  EM64L-G09RevE.01 30-Nov-2015

 ------------------------------------------------------
 #p b3lyp/6-311++G(3df,2p) freq IOp(2/17=3) IOp(2/18=3)
 ------------------------------------------------------

 ---------
 b3lyp opt
 ---------
 Symbolic Z-matrix:
 Charge =  1 Multiplicity = 2

                         Standard orientation:
 ---------------------------------------------------------------------
 Center     Atomic      Atomic             Coordinates (Angstroms)
 Number     Number       Type             X           Y           Z
 ---------------------------------------------------------------------
      1          8           0        1.884316   -0.441783    0.000000
      2          6           0       -0.633418    0.123191   -0.000000
      3          6           0        0.867729    0.157617    0.000000
      4          6           0       -0.000000    1.272075    0.000000
      5          6           0       -1.741748   -0.824193   -0.000000
      6          1           0        0.025388    2.355887    0.000000
      7          1           0       -1.686329   -1.462114   -0.884555
      8          1           0       -2.682655   -0.269518   -0.000000
      9          1           0       -1.686329   -1.462114    0.884555
 ---------------------------------------------------------------------

 SCF Done:  E(UB3LYP) =  -229.728068219     A.U. after   15 cycles

 The electronic state is 2-A'.
 Alpha  occ. eigenvalues --  -19.45107 -10.55255 -10.51795 -10.49410 -10.41041
 Alpha  occ. eigenvalues --   -1.36953  -1.19999  -0.99117  -0.84088  -0.79439
 Alpha  occ. eigenvalues --   -0.75123  -0.71945  -0.71501  -0.69092  -0.65290
 Alpha  occ. eigenvalues --   -0.63006  -0.57097  -0.52901
 Alpha virt. eigenvalues --   -0.27097  -0.23385  -0.17840  -0.13643  -0.12563
 Alpha virt. eigenvalues --   -0.11515  -0.11038  -0.09888  -0.08900  -0.07992
 Alpha virt. eigenvalues --   -0.07698  -0.06276  -0.05810  -0.04488  -0.03512

  Beta  occ. eigenvalues --  -19.43539 -10.55241 -10.51348 -10.49192 -10.40979
  Beta  occ. eigenvalues --   -1.34140  -1.18329  -0.98548  -0.82427  -0.77819
  Beta  occ. eigenvalues --   -0.73267  -0.71303  -0.68670  -0.66352  -0.64905
  Beta  occ. eigenvalues --   -0.61518  -0.56356
  Beta virt. eigenvalues --   -0.40857  -0.26618  -0.23020  -0.17644  -0.13377
  Beta virt. eigenvalues --   -0.12336  -0.11336  -0.11018  -0.09314  -0.08769
  Beta virt. eigenvalues --   -0.07967  -0.07260  -0.06268  -0.05274  -0.04302

 Mulliken charges and spin densities:
               1          2
     1  O   -0.447600   0.549291
     2  C    0.035686   0.265792
     3  C    0.362978  -0.044193
     4  C    0.454870   0.129105
     5  C   -0.370926   0.013587
     6  H    0.335896   0.055761
     7  H    0.213981   0.000040
     8  H    0.201134   0.030577
     9  H    0.213981   0.000040
 Sum of Mulliken charges =   1.00000   1.00000

 Dipole moment (field-independent basis, Debye):
    X=             -2.7178    Y=              1.6317    Z=             -0.0000  Tot=              3.1700
 Quadrupole moment (field-independent basis, Debye-Ang):
   XX=            -19.1050   YY=            -17.2686   ZZ=            -25.7750
   XY=              3.8291   XZ=              0.0000   YZ=              0.0000

  Exact polarizability:  60.105   1.561  44.735   0.000  -0.000  28.001
 Approx polarizability:  98.839  -4.541  70.765   0.000   0.000  41.112

                      1                      2                      3
                     A"                     A'                     A"
 Frequencies --     88.7603               211.6396               332.3548
 Red. masses --      1.0653                 4.2452                 2.5908
 Frc consts  --      0.0049                 0.1120                 0.1686
 IR Inten    --      1.3600                 1.0506                 5.6934

                      4                      5                      6
                     A'                     A'                     A"
 Frequencies --    431.1600               539.3336               549.5712
 Red. masses --      4.7197                 4.7479                 5.0546
 Frc consts  --      0.5169                 0.8137                 0.8995
 IR Inten    --     13.3569                32.1990                 1.4833

                      7                      8                      9
                     A"                     A'                     A'
 Frequencies --    766.1114               834.6351               928.8841
 Red. masses --      1.5105                 2.8788                 5.6621
 Frc consts  --      0.5223                 1.1815                 2.8784
 IR Inten    --     36.9066                18.3432                27.5618

                     10                     11                     12
                     A'                     A"                     A'
 Frequencies --   1024.9598              1033.0188              1038.1878
 Red. masses --      1.5976                 1.5066                 1.4945
 Frc consts  --      0.9889                 0.9473                 0.9491
 IR Inten    --      7.3027                 3.4485                40.6798

                     13                     14                     15
                     A'                     A"                     A'
 Frequencies --   1388.7978              1421.3720              1441.0397
 Red. masses --      1.1927                 1.0381                 1.0434
 Frc consts  --      1.3554                 1.2357                 1.2766
 IR Inten    --     18.4000                20.1932                18.2186

                     16                     17                     18
                     A'                     A'                     A'
 Frequencies --   1654.6021              1875.5274              3019.7262
 Red. masses --     10.0641                 8.2745                 1.0321
 Frc consts  --     16.2335                17.1491                 5.5448
 IR Inten    --     35.1343                 6.4597                54.6573

                     19                     20                     21
                     A"                     A'                     A'
 Frequencies --   3097.8950              3101.9392              3193.2339
 Red. masses --      1.1006                 1.1034                 1.1224
 Frc consts  --      6.2229                 6.2553                 6.7431
 IR Inten    --     12.5769                20.4548               116.0955

 - Thermochemistry -
 -------------------
 Temperature   298.150 Kelvin.  Pressure   1.00000 Atm.
 Atom     1 has atomic number  8 and mass  15.99491

 Molecular mass:    68.02621 amu.
 Principal axes and moments of inertia in atomic units:
                           1         2         3
     Eigenvalues --   147.78083 437.15660 573.67342
           X            0.99175  -0.12819   0.00000
           Y            0.12819   0.99175   0.00000
           Z            0.00000  -0.00000   1.00000
 This molecule is an asymmetric top.
 Rotational symmetry number  1.
 Rotational temperatures (Kelvin)      0.58610     0.19813     0.15098
 Rotational constants (GHZ):          12.21228     4.12836     3.14594
 Zero-point vibrational energy     167314.2 (Joules/Mol)
                                   39.98905 (Kcal/Mol)
 Warning -- explicit consideration of   6 degrees of freedom as
           vibrations may cause significant error
 Vibrational temperatures:    127.71   304.50   478.18   620.34   775.98
          (Kelvin)            790.71  1102.26  1200.85  1336.46  1474.69
                             1486.28  1493.72  1998.17  2045.03  2073.33
                             2380.60  2698.46  4344.71  4457.17  4462.99
                             4594.35

 Zero-point correction=                           0.063727 (Hartree/Particle)
 Thermal correction to Energy=                    0.069235
 Thermal correction to Enthalpy=                  0.070179
 Thermal correction to Gibbs Free Energy=         0.034617
 Sum of electronic and zero-point Energies=           -229.664342
 Sum of electronic and thermal Energies=              -229.658834
 Sum of electronic and thermal Enthalpies=            -229.657890
 Sum of electronic and thermal Free Energies=         -229.693451

                     E (Thermal)             CV                S
                      KCal/Mol        Cal/Mol-Kelvin    Cal/Mol-Kelvin
 Total                   43.445             18.218             74.846
 Electronic               0.000              0.000              1.377
 Translational            0.889              2.981             38.570
 Rotational               0.889              2.981             25.120
 Vibrational             41.668             12.256              9.779
 Vibration     1          0.602              1.957              3.687
 Vibration     2          0.643              1.823              2.029
 Vibration     3          0.714              1.611              1.249
 Vibration     4          0.792              1.402              0.855
 Vibration     5          0.894              1.163              0.567
 Vibration     6          0.905              1.141              0.545

 Optimization completed.
    -- Stationary point found.
 Normal termination of Gaussian 09 at Fri Mar  1 08:02:52 2019.
