 Gaussian 09, Revision E.01,
 Gaussian 09:  EM64L-G09RevE.01 30-Nov-2015

 ------------------------------------------------------
 #p b3lyp/6-311++G(3df,2p) freq IOp(2/17=3) IOp(2/18=3)
 ------------------------------------------------------

 ---------
 b3lyp opt
 ---------
 Symbolic Z-matrix:
 Charge =  1 Multiplicity = 2

                         Standard orientation:
 ---------------------------------------------------------------------
 Center     Atomic      Atomic             Coordinates (Angstroms)
 Number     Number       Type             X           Y           Z
 ---------------------------------------------------------------------
      1          8           0       -0.000000   -0.000000    2.287060
      2          6           0        0.000000    0.749349   -1.452940
      3          6           0       -0.000000   -0.749349   -1.452940
      4          6           0        0.000000    0.000000   -0.176134
      5          6           0       -0.000000   -0.000000    1.151937
      6          1           0       -0.917142    1.284814   -1.679004
      7          1           0        0.917142    1.284814   -1.679004
      8          1           0        0.917142   -1.284814   -1.679004
      9          1           0       -0.917142   -1.284814   -1.679004
 ---------------------------------------------------------------------

 SCF Done:  E(UB3LYP) =  -229.738013598     A.U. after   13 cycles

 The electronic state is 2-B1.
 Alpha  occ. eigenvalues --  -19.47674 -10.57276 -10.50611 -10.43690 -10.43665
 Alpha  occ. eigenvalues --   -1.40831  -1.14584  -1.00539  -0.85579  -0.78467
 Alpha  occ. eigenvalues --   -0.75565  -0.75542  -0.72640  -0.71856  -0.61091
 Alpha  occ. eigenvalues --   -0.58798  -0.58542  -0.52345
 Alpha virt. eigenvalues --   -0.29462  -0.22350  -0.17260  -0.15263  -0.13750
 Alpha virt. eigenvalues --   -0.12305  -0.09391  -0.08255  -0.07983  -0.07264
 Alpha virt. eigenvalues --   -0.06994  -0.06050  -0.05976  -0.04067  -0.02110

  Beta  occ. eigenvalues --  -19.46900 -10.57273 -10.49580 -10.43723 -10.43698
  Beta  occ. eigenvalues --   -1.39568  -1.13228  -0.98620  -0.85316  -0.77423
  Beta  occ. eigenvalues --   -0.74938  -0.72776  -0.72097  -0.69550  -0.60508
  Beta  occ. eigenvalues --   -0.58633  -0.57705
  Beta virt. eigenvalues --   -0.40477  -0.29250  -0.18579  -0.16997  -0.14661
  Beta virt. eigenvalues --   -0.13714  -0.11954  -0.09319  -0.08085  -0.07605
  Beta virt. eigenvalues --   -0.07231  -0.06531  -0.05993  -0.05157  -0.03788

 Mulliken charges and spin densities:
               1          2
     1  O   -0.408814   0.260430
     2  C   -0.218459  -0.015772
     3  C   -0.218459  -0.015772
     4  C    0.506525   0.738369
     5  C    0.421260  -0.058456
     6  H    0.229487   0.022800
     7  H    0.229487   0.022800
     8  H    0.229487   0.022800
     9  H    0.229487   0.022800
 Sum of Mulliken charges =   1.00000   1.00000

 Dipole moment (field-independent basis, Debye):
    X=             -0.0000    Y=              0.0000    Z=             -2.0812  Tot=              2.0812
 Quadrupole moment (field-independent basis, Debye-Ang):
   XX=            -23.6752   YY=            -22.3921   ZZ=            -17.3611
   XY=             -0.0000   XZ=              0.0000   YZ=              0.0000

  Exact polarizability:  30.085   0.000  36.579   0.000  -0.000  66.218
 Approx polarizability:  43.028  -0.000  52.393   0.000  -0.000 110.806

                      1                      2                      3
                     B1                     B2                     B1
 Frequencies --    122.9077               167.0899               453.0166
 Red. masses --      3.5503                 4.8809                 9.3110
 Frc consts  --      0.0316                 0.0803                 1.1258
 IR Inten    --      0.0271                 1.2483                11.4229

                      4                      5                      6
                     B2                     A1                     B1
 Frequencies --    585.9096               609.4617               718.9582
 Red. masses --      8.1558                 6.1671                 1.0484
 Frc consts  --      1.6496                 1.3497                 0.3193
 IR Inten    --     12.4606                19.1191                 5.0131

                      7                      8                      9
                     A2                     B2                     B1
 Frequencies --    859.9303               903.1159              1012.2939
 Red. masses --      1.1146                10.3512                 1.3248
 Frc consts  --      0.4856                 4.9742                 0.7999
 IR Inten    --      0.0000                 0.0965                 0.0001

                     10                     11                     12
                     A1                     A1                     B2
 Frequencies --   1018.2331              1081.7037              1113.7412
 Red. masses --      4.8591                 1.1721                 1.3205
 Frc consts  --      2.9682                 0.8080                 0.9651
 IR Inten    --     35.5836                 0.9552                10.0512

                     13                     14                     15
                     A2                     B2                     A1
 Frequencies --   1182.5313              1427.9812              1436.8321
 Red. masses --      1.2555                 1.0729                 1.1885
 Frc consts  --      1.0344                 1.2890                 1.4456
 IR Inten    --      0.0000                25.5027                 7.9524

                     16                     17                     18
                     A1                     A1                     B2
 Frequencies --   1486.7546              2233.8705              3086.6487
 Red. masses --      6.5583                12.5375                 1.0469
 Frc consts  --      8.5412                36.8619                 5.8767
 IR Inten    --     30.8913               524.4998                34.8934

                     19                     20                     21
                     A1                     A2                     B1
 Frequencies --   3093.8309              3170.2185              3185.1975
 Red. masses --      1.0577                 1.1175                 1.1153
 Frc consts  --      5.9647                 6.6170                 6.6669
 IR Inten    --     26.5338                 0.0000                35.0724

 - Thermochemistry -
 -------------------
 Temperature   298.150 Kelvin.  Pressure   1.00000 Atm.
 Atom     1 has atomic number  8 and mass  15.99491

 Molecular mass:    68.02621 amu.
 Principal axes and moments of inertia in atomic units:
                           1         2         3
     Eigenvalues --    83.99910 588.25884 648.03952
           X            0.00000   0.00000   1.00000
           Y           -0.00000   1.00000  -0.00000
           Z            1.00000   0.00000  -0.00000
 This molecule is an asymmetric top.
 Rotational symmetry number  2.
 Rotational temperatures (Kelvin)      1.03113     0.14724     0.13366
 Rotational constants (GHZ):          21.48524     3.06794     2.78492
 Zero-point vibrational energy     173160.8 (Joules/Mol)
                                   41.38643 (Kcal/Mol)
 Warning -- explicit consideration of   5 degrees of freedom as
           vibrations may cause significant error
 Vibrational temperatures:    176.84   240.40   651.79   842.99   876.88
          (Kelvin)           1034.42  1237.25  1299.38  1456.46  1465.01
                             1556.33  1602.42  1701.40  2054.54  2067.28
                             2139.11  3214.04  4440.99  4451.33  4561.23
                             4582.78

 Zero-point correction=                           0.065953 (Hartree/Particle)
 Thermal correction to Energy=                    0.071054
 Thermal correction to Enthalpy=                  0.071998
 Thermal correction to Gibbs Free Energy=         0.037913
 Sum of electronic and zero-point Energies=           -229.672060
 Sum of electronic and thermal Energies=              -229.666960
 Sum of electronic and thermal Enthalpies=            -229.666016
 Sum of electronic and thermal Free Energies=         -229.700101

                     E (Thermal)             CV                S
                      KCal/Mol        Cal/Mol-Kelvin    Cal/Mol-Kelvin
 Total                   44.587             16.824             71.738
 Electronic               0.000              0.000              1.377
 Translational            0.889              2.981             38.570
 Rotational               0.889              2.981             23.597
 Vibrational             42.809             10.863              8.194
 Vibration     1          0.610              1.930              3.054
 Vibration     2          0.624              1.883              2.468
 Vibration     3          0.812              1.354              0.787
 Vibration     4          0.943              1.062              0.475
 Vibration     5          0.968              1.012              0.434

 Optimization completed.
    -- Stationary point found.
 Normal termination of Gaussian 09 at Sun Mar  3 15:45:30 2019.
