 Gaussian 09, Revision E.01,
 Gaussian 09:  EM64L-G09RevE.01 30-Nov-2015

 ------------------------------------------------------
 #p b3lyp/6-311++G(3df,2p) freq IOp(2/17=3) IOp(2/18=3)
 ------------------------------------------------------

 ---------
 b3lyp opt
 ---------
 Symbolic Z-matrix:
 Charge =  1 Multiplicity = 2

                         Standard orientation:
 ---------------------------------------------------------------------
 Center     Atomic      Atomic             Coordinates (Angstroms)
 Number     Number       Type             X           Y           Z
 ---------------------------------------------------------------------
      1          6           0        1.167976    0.077536   -0.065837
      2          6           0       -1.992333   -0.588519   -0.305555
      3          8           0        2.031106   -0.619386    0.050592
      4          6           0       -1.189279    0.115333    0.433832
      5          6           0       -0.005447    0.892952   -0.182396
      6          1           0        0.197440    1.842562    0.325995
      7          1           0       -2.892279   -1.179068   -0.272952
      8          1           0       -1.294672    0.214468    1.512794
      9          1           0       -0.144848    1.093314   -1.250842
 ---------------------------------------------------------------------

 SCF Done:  E(UB3LYP) =  -229.716881785     A.U. after   16 cycles

 The electronic state is 2-A.
 Alpha  occ. eigenvalues --  -19.50008 -10.59990 -10.47528 -10.40665 -10.40562
 Alpha  occ. eigenvalues --   -1.43908  -1.08217  -0.96872  -0.82352  -0.79074
 Alpha  occ. eigenvalues --   -0.76647  -0.76439  -0.73214  -0.70271  -0.64990
 Alpha  occ. eigenvalues --   -0.63985  -0.49859  -0.44408
 Alpha virt. eigenvalues --   -0.29851  -0.29356  -0.20110  -0.18718  -0.13512
 Alpha virt. eigenvalues --   -0.12338  -0.11428  -0.10253  -0.09352  -0.07972
 Alpha virt. eigenvalues --   -0.06781  -0.06321  -0.05844  -0.04878  -0.03292

  Beta  occ. eigenvalues --  -19.49982 -10.59979 -10.47397 -10.40778 -10.39063
  Beta  occ. eigenvalues --   -1.43862  -1.07930  -0.95124  -0.82031  -0.77915
  Beta  occ. eigenvalues --   -0.76557  -0.76130  -0.72607  -0.69681  -0.63934
  Beta  occ. eigenvalues --   -0.63159  -0.49156
  Beta virt. eigenvalues --   -0.30420  -0.29482  -0.27512  -0.19133  -0.18337
  Beta virt. eigenvalues --   -0.13410  -0.12279  -0.11202  -0.10102  -0.09244
  Beta virt. eigenvalues --   -0.07695  -0.06771  -0.06264  -0.05718  -0.04660

 Mulliken charges and spin densities:
               1          2
     1  C    0.800697   0.015341
     2  C   -0.356137   1.080433
     3  O   -0.388373   0.007837
     4  C    0.031025  -0.207077
     5  C   -0.022392   0.034391
     6  H    0.223093  -0.002985
     7  H    0.262355   0.009051
     8  H    0.203251   0.063246
     9  H    0.246482  -0.000237
 Sum of Mulliken charges =   1.00000   1.00000

 Dipole moment (field-independent basis, Debye):
    X=              0.1615    Y=              1.6806    Z=             -0.0888  Tot=              1.6907
 Quadrupole moment (field-independent basis, Debye-Ang):
   XX=            -15.9446   YY=            -22.5175   ZZ=            -24.0016
   XY=              3.6286   XZ=             -0.6598   YZ=              0.0212

  Exact polarizability:  63.193   3.297  39.936   2.892   1.860  35.598
 Approx polarizability:  95.205   1.564  62.496   8.974   5.041  53.710

                      1                      2                      3
                      A                      A                      A
 Frequencies --     70.8888               201.2175               382.7069
 Red. masses --      3.9519                 3.3418                 1.9053
 Frc consts  --      0.0117                 0.0797                 0.1644
 IR Inten    --      1.7971                 1.5633                 1.8613

                      4                      5                      6
                      A                      A                      A
 Frequencies --    410.7589               544.0315               669.9486
 Red. masses --      3.3432                 3.1126                 1.3794
 Frc consts  --      0.3323                 0.5428                 0.3648
 IR Inten    --     17.1280                25.1421                40.6407

                      7                      8                      9
                      A                      A                      A
 Frequencies --    687.7084               848.0107               862.9231
 Red. masses --      1.7460                 1.4282                 2.3191
 Frc consts  --      0.4865                 0.6051                 1.0174
 IR Inten    --     63.7652                 5.2703                 7.4900

                     10                     11                     12
                      A                      A                      A
 Frequencies --    901.5038               963.1810              1192.0380
 Red. masses --      4.2613                 3.2590                 1.1871
 Frc consts  --      2.0404                 1.7814                 0.9939
 IR Inten    --      2.9084                15.0646                 0.7748

                     13                     14                     15
                      A                      A                      A
 Frequencies --   1238.0457              1262.5504              1393.4497
 Red. masses --      1.2745                 1.1327                 1.0785
 Frc consts  --      1.1510                 1.0638                 1.2339
 IR Inten    --     17.7921                 0.8071                33.9271

                     16                     17                     18
                      A                      A                      A
 Frequencies --   1642.9770              2334.6495              3014.9917
 Red. masses --      6.0239                12.8636                 1.0570
 Frc consts  --      9.5806                41.3102                 5.6609
 IR Inten    --      2.5905               353.3639                45.8064

                     19                     20                     21
                      A                      A                      A
 Frequencies --   3060.7906              3094.3021              3272.9213
 Red. masses --      1.1030                 1.0868                 1.1099
 Frc consts  --      6.0885                 6.1310                 7.0047
 IR Inten    --     31.1536                11.2752                53.0596

 - Thermochemistry -
 -------------------
 Temperature   298.150 Kelvin.  Pressure   1.00000 Atm.
 Atom     1 has atomic number  6 and mass  12.00000

 Molecular mass:    68.02621 amu.
 Principal axes and moments of inertia in atomic units:
                           1         2         3
     Eigenvalues --   121.28030 588.89400 653.54927
           X            0.99968   0.02430  -0.00643
           Y           -0.02435   0.99968  -0.00722
           Z            0.00625   0.00738   0.99995
 This molecule is an asymmetric top.
 Rotational symmetry number  1.
 Rotational temperatures (Kelvin)      0.71416     0.14708     0.13253
 Rotational constants (GHZ):          14.88075     3.06463     2.76145
 Zero-point vibrational energy     167773.8 (Joules/Mol)
                                   40.09891 (Kcal/Mol)
 Warning -- explicit consideration of   5 degrees of freedom as
           vibrations may cause significant error
 Vibrational temperatures:    101.99   289.51   550.63   590.99   782.74
          (Kelvin)            963.91   989.46  1220.10  1241.55  1297.06
                             1385.80  1715.07  1781.27  1816.53  2004.86
                             2363.87  3359.04  4337.90  4403.79  4452.01
                             4709.00

 Zero-point correction=                           0.063902 (Hartree/Particle)
 Thermal correction to Energy=                    0.069426
 Thermal correction to Enthalpy=                  0.070370
 Thermal correction to Gibbs Free Energy=         0.034528
 Sum of electronic and zero-point Energies=           -229.652980
 Sum of electronic and thermal Energies=              -229.647456
 Sum of electronic and thermal Enthalpies=            -229.646511
 Sum of electronic and thermal Free Energies=         -229.682353

                     E (Thermal)             CV                S
                      KCal/Mol        Cal/Mol-Kelvin    Cal/Mol-Kelvin
 Total                   43.566             18.376             75.436
 Electronic               0.000              0.000              1.377
 Translational            0.889              2.981             38.570
 Rotational               0.889              2.981             25.349
 Vibrational             41.788             12.414             10.140
 Vibration     1          0.598              1.968              4.129
 Vibration     2          0.638              1.838              2.122
 Vibration     3          0.752              1.507              1.028
 Vibration     4          0.775              1.447              0.924
 Vibration     5          0.899              1.153              0.557

 Normal termination of Gaussian 09 at Fri Mar  1 08:04:30 2019.
