 Gaussian 09, Revision E.01,
 Gaussian 09:  EM64L-G09RevE.01 30-Nov-2015

 ------------------------------------------------------
 #p b3lyp/6-311++G(3df,2p) freq IOp(2/17=3) IOp(2/18=3)
 ------------------------------------------------------

 ---------
 b3lyp opt
 ---------
 Symbolic Z-matrix:
 Charge =  1 Multiplicity = 2

                         Standard orientation:
 ---------------------------------------------------------------------
 Center     Atomic      Atomic             Coordinates (Angstroms)
 Number     Number       Type             X           Y           Z
 ---------------------------------------------------------------------
      1          8           0        2.038556   -0.674672   -0.000028
      2          6           0       -2.419152   -0.158238    0.000291
      3          6           0       -1.019490    0.096180    0.000414
      4          6           0        0.173164    0.383954    0.000175
      5          6           0        1.577820    0.459437   -0.000122
      6          1           0       -2.711858   -0.674711    0.919724
      7          1           0       -2.693338   -0.767301   -0.867211
      8          1           0       -2.972337    0.788159   -0.056395
      9          1           0        2.195040    1.363233   -0.000439
 ---------------------------------------------------------------------

 SCF Done:  E(UB3LYP) =  -229.700941006     A.U. after   19 cycles

 The electronic state is 2-A.
 Alpha  occ. eigenvalues --  -19.46357 -10.54708 -10.48309 -10.45205 -10.40410
 Alpha  occ. eigenvalues --   -1.36850  -1.05998  -0.97968  -0.91246  -0.81222
 Alpha  occ. eigenvalues --   -0.74153  -0.70198  -0.69470  -0.65865  -0.65392
 Alpha  occ. eigenvalues --   -0.60095  -0.53813  -0.53739
 Alpha virt. eigenvalues --   -0.33107  -0.22483  -0.15947  -0.15423  -0.13798
 Alpha virt. eigenvalues --   -0.11096  -0.10243  -0.09233  -0.08680  -0.07038
 Alpha virt. eigenvalues --   -0.06531  -0.05745  -0.05267  -0.03895  -0.02502

  Beta  occ. eigenvalues --  -19.44622 -10.54807 -10.47954 -10.44857 -10.40400
  Beta  occ. eigenvalues --   -1.33533  -1.04604  -0.97233  -0.90213  -0.78925
  Beta  occ. eigenvalues --   -0.72326  -0.69734  -0.68415  -0.65150  -0.64717
  Beta  occ. eigenvalues --   -0.53118  -0.52699
  Beta virt. eigenvalues --   -0.43650  -0.32613  -0.20250  -0.15836  -0.15198
  Beta virt. eigenvalues --   -0.13710  -0.10901  -0.10219  -0.09116  -0.08412
  Beta virt. eigenvalues --   -0.07063  -0.06418  -0.05686  -0.04983  -0.03683

 Mulliken charges and spin densities:
               1          2
     1  O   -0.260332   0.611358
     2  C   -0.410535   0.009172
     3  C    0.267551   0.192196
     4  C    0.466321   0.154527
     5  C    0.039799  -0.034925
     6  H    0.207997   0.005238
     7  H    0.207849   0.008468
     8  H    0.217747   0.030312
     9  H    0.263603   0.023654
 Sum of Mulliken charges =   1.00000   1.00000

 Dipole moment (field-independent basis, Debye):
    X=             -1.4511    Y=              1.8173    Z=             -0.0057  Tot=              2.3256
 Quadrupole moment (field-independent basis, Debye-Ang):
   XX=             -3.5794   YY=            -24.1302   ZZ=            -26.0502
   XY=              5.3723   XZ=              0.0145   YZ=              0.0004

  Exact polarizability: 125.100  -4.839  37.580   0.158  -0.007  29.509
 Approx polarizability: 242.828 -23.045  63.252   0.242  -0.023  42.080

                      1                      2                      3
                      A                      A                      A
 Frequencies --     18.7721               122.1056               183.5601
 Red. masses --      1.1726                 5.3687                 2.8902
 Frc consts  --      0.0002                 0.0472                 0.0574
 IR Inten    --      0.8457                 1.5037                21.5960

                      4                      5                      6
                      A                      A                      A
 Frequencies --    342.1302               406.8996               538.6219
 Red. masses --      3.6076                 3.7193                 8.4282
 Frc consts  --      0.2488                 0.3628                 1.4406
 IR Inten    --      8.0826                 0.6385                 7.0428

                      7                      8                      9
                      A                      A                      A
 Frequencies --    741.2417               957.8226               972.6710
 Red. masses --      4.3608                 1.5254                 1.5373
 Frc consts  --      1.4117                 0.8245                 0.8569
 IR Inten    --     13.5313                13.7142                47.5671

                     10                     11                     12
                      A                      A                      A
 Frequencies --    998.0926              1188.7647              1279.1321
 Red. masses --      1.5415                 4.0882                 1.2091
 Frc consts  --      0.9048                 3.4039                 1.1656
 IR Inten    --      4.1796                52.6412               183.1068

                     13                     14                     15
                      A                      A                      A
 Frequencies --   1368.8872              1391.1481              1406.2926
 Red. masses --      1.1640                 1.0348                 1.1570
 Frc consts  --      1.2851                 1.1800                 1.3481
 IR Inten    --     59.6763                19.9477                10.4679

                     16                     17                     18
                      A                      A                      A
 Frequencies --   1564.5941              2212.7184              2982.9641
 Red. masses --      8.0739                11.4207                 1.0369
 Frc consts  --     11.6449                32.9453                 5.4362
 IR Inten    --     32.4753              1037.5094               223.7442

                     19                     20                     21
                      A                      A                      A
 Frequencies --   3044.5757              3066.6029              3075.2351
 Red. masses --      1.0922                 1.0989                 1.0958
 Frc consts  --      5.9647                 6.0885                 6.1058
 IR Inten    --     28.9580                20.9233                33.7718

 - Thermochemistry -
 -------------------
 Temperature   298.150 Kelvin.  Pressure   1.00000 Atm.
 Atom     1 has atomic number  8 and mass  15.99491

 Molecular mass:    68.02621 amu.
 Principal axes and moments of inertia in atomic units:
                           1         2         3
     Eigenvalues --    60.88303 746.53699 795.89505
           X            0.99973   0.02313   0.00004
           Y           -0.02313   0.99973  -0.00000
           Z           -0.00004   0.00000   1.00000
 This molecule is an asymmetric top.
 Rotational symmetry number  1.
 Rotational temperatures (Kelvin)      1.42263     0.11602     0.10883
 Rotational constants (GHZ):          29.64276     2.41748     2.26756
 Zero-point vibrational energy     166656.7 (Joules/Mol)
                                   39.83192 (Kcal/Mol)
 Warning -- explicit consideration of   6 degrees of freedom as
           vibrations may cause significant error
 Vibrational temperatures:     27.01   175.68   264.10   492.25   585.44
          (Kelvin)            774.96  1066.48  1378.09  1399.45  1436.03
                             1710.37  1840.38  1969.52  2001.55  2023.34
                             2251.10  3183.60  4291.81  4380.46  4412.15
                             4424.57

 Zero-point correction=                           0.063476 (Hartree/Particle)
 Thermal correction to Energy=                    0.069636
 Thermal correction to Enthalpy=                  0.070581
 Thermal correction to Gibbs Free Energy=         0.032295
 Sum of electronic and zero-point Energies=           -229.637465
 Sum of electronic and thermal Energies=              -229.631305
 Sum of electronic and thermal Enthalpies=            -229.630360
 Sum of electronic and thermal Free Energies=         -229.668646

                     E (Thermal)             CV                S
                      KCal/Mol        Cal/Mol-Kelvin    Cal/Mol-Kelvin
 Total                   43.698             18.684             80.579
 Electronic               0.000              0.000              1.377
 Translational            0.889              2.981             38.570
 Rotational               0.889              2.981             25.095
 Vibrational             41.920             12.722             15.536
 Vibration     1          0.593              1.986              6.760
 Vibration     2          0.610              1.931              3.067
 Vibration     3          0.631              1.862              2.292
 Vibration     4          0.721              1.591              1.202
 Vibration     5          0.772              1.455              0.938
 Vibration     6          0.894              1.165              0.568

 Normal termination of Gaussian 09 at Fri Mar  1 08:33:13 2019.
