 Gaussian 09, Revision E.01,
 Gaussian 09:  EM64L-G09RevE.01 30-Nov-2015

 ------------------------------------------------------
 #p b3lyp/6-311++G(3df,2p) freq IOp(2/17=3) IOp(2/18=3)
 ------------------------------------------------------

 ---------
 b3lyp opt
 ---------
 Symbolic Z-matrix:
 Charge =  0 Multiplicity = 1

                         Standard orientation:
 ---------------------------------------------------------------------
 Center     Atomic      Atomic             Coordinates (Angstroms)
 Number     Number       Type             X           Y           Z
 ---------------------------------------------------------------------
      1          6           0       -0.000000    0.783699   -0.611775
      2          6           0       -0.000000   -0.000000   -1.793754
      3          6           0        0.000000    0.000000    0.624053
      4          6           0       -0.000000   -0.783699   -0.611775
      5          8           0        0.000000    0.000000    1.794934
 ---------------------------------------------------------------------

 SCF Done:  E(RB3LYP) =  -227.466790406     A.U. after   11 cycles

 The electronic state is 1-A1.
 Alpha  occ. eigenvalues --  -19.21411 -10.36907 -10.30681 -10.30663 -10.27211
 Alpha  occ. eigenvalues --   -1.15299  -1.03178  -0.74532  -0.60961  -0.54647
 Alpha  occ. eigenvalues --   -0.51993  -0.49898  -0.40804  -0.37738  -0.35399
 Alpha  occ. eigenvalues --   -0.29828
 Alpha virt. eigenvalues --   -0.13511  -0.12623  -0.05694   0.00711   0.03762
 Alpha virt. eigenvalues --    0.03839   0.04351   0.04756   0.06568   0.07597
 Alpha virt. eigenvalues --    0.07791   0.09497   0.09707   0.11772   0.12475

 Mulliken charges:
               1
     1  C    0.323245
     2  C   -0.594697
     3  C    0.538521
     4  C    0.323245
     5  O   -0.590314
 Sum of Mulliken charges =  -0.00000

 Dipole moment (field-independent basis, Debye):
    X=              0.0000    Y=             -0.0000    Z=              0.7783  Tot=              0.7783
 Quadrupole moment (field-independent basis, Debye-Ang):
   XX=            -25.7123   YY=            -29.0364   ZZ=            -36.9468
   XY=              0.0000   XZ=             -0.0000   YZ=              0.0000

  Exact polarizability:  28.042  -0.000  41.195   0.000   0.000  58.895
 Approx polarizability:  44.784  -0.000  88.769   0.000   0.000 107.429

                      1                      2                      3
                     B1                     B2                     B2
 Frequencies --    267.6721               460.9785               678.9129
 Red. masses --     12.5900                12.7396                12.2284
 Frc consts  --      0.5315                 1.5950                 3.3208
 IR Inten    --     22.9277                 0.1920                48.8560

                      4                      5                      6
                     B1                     A1                     A1
 Frequencies --    690.5242               777.7831               960.5728
 Red. masses --     12.2008                12.9165                12.3948
 Frc consts  --      3.4276                 4.6037                 6.7383
 IR Inten    --      6.9189                 3.2165                34.1998

                      7                      8                      9
                     B2                     A1                     A1
 Frequencies --    979.2577              1406.2354              1986.3774
 Red. masses --     12.0242                12.0092                13.0971
 Frc consts  --      6.7936                13.9920                30.4474
 IR Inten    --     21.9634               133.9554               469.2254

 - Thermochemistry -
 -------------------
 Temperature   298.150 Kelvin.  Pressure   1.00000 Atm.
 Atom     1 has atomic number  6 and mass  12.00000

 Molecular mass:    63.99491 amu.
 Principal axes and moments of inertia in atomic units:
                           1         2         3
     Eigenvalues --    52.63893 370.67150 423.31042
           X            0.00000   0.00000   1.00000
           Y            0.00000   1.00000  -0.00000
           Z            1.00000  -0.00000  -0.00000
 This molecule is an asymmetric top.
 Rotational symmetry number  2.
 Rotational temperatures (Kelvin)      1.64543     0.23367     0.20461
 Rotational constants (GHZ):          34.28530     4.86884     4.26340
 Zero-point vibrational energy      49096.6 (Joules/Mol)
                                   11.73437 (Kcal/Mol)
 Warning -- explicit consideration of   2 degrees of freedom as
           vibrations may cause significant error
 Vibrational temperatures:    385.12   663.24   976.80   993.51  1119.05
          (Kelvin)           1382.05  1408.93  2023.26  2857.95

 Zero-point correction=                           0.018700 (Hartree/Particle)
 Thermal correction to Energy=                    0.022663
 Thermal correction to Enthalpy=                  0.023607
 Thermal correction to Gibbs Free Energy=        -0.006858
 Sum of electronic and zero-point Energies=           -227.448090
 Sum of electronic and thermal Energies=              -227.444127
 Sum of electronic and thermal Enthalpies=            -227.443183
 Sum of electronic and thermal Free Energies=         -227.473648

                     E (Thermal)             CV                S
                      KCal/Mol        Cal/Mol-Kelvin    Cal/Mol-Kelvin
 Total                   14.221             12.375             64.118
 Electronic               0.000              0.000              0.000
 Translational            0.889              2.981             38.388
 Rotational               0.889              2.981             22.250
 Vibrational             12.444              6.414              3.480
 Vibration     1          0.673              1.733              1.611
 Vibration     2          0.819              1.337              0.763

 Optimization completed.
    -- Stationary point found.

 1\1\GINC-BOHRIO\Freq\RB3LYP\6-311++G(3df,2p)\C4O1\ROOT\01-Mar-2019\0\\
 #p b3lyp/6-311++G(3df,2p) freq IOp(2/17=3) IOp(2/18=3)\\b3lyp opt\\0,1
 \C,-0.9275443548,0.3198022578,0.136674504\C,-0.7508654189,1.5886155187
 ,-0.4717277547\C,0.291057223,-0.4881792948,0.1969347749\C,0.4445300951
 ,0.8268890632,-0.4263601685\O,0.7956331109,-1.4939167122,0.5207505516\
 \Version=EM64L-G09RevE.01\State=1-A1\HF=-227.4667904\RMSD=5.957e-09\RM
 SF=1.746e-04\ZeroPoint=0.0186999\Thermal=0.0226629\Dipole=0.1319487,-0
 .2630046,0.0846792\DipoleDeriv=-0.3580836,0.2909053,-0.0212238,0.02087

 Normal termination of Gaussian 09 at Fri Mar  1 08:35:09 2019.
