 Gaussian 09, Revision E.01,
 Gaussian 09:  EM64L-G09RevE.01 30-Nov-2015

 ------------------------------------------------------
 #p b3lyp/6-311++G(3df,2p) freq IOp(2/17=3) IOp(2/18=3)
 ------------------------------------------------------

 ---------
 b3lyp opt
 ---------
 Symbolic Z-matrix:
 Charge =  0 Multiplicity = 3

                         Standard orientation:
 ---------------------------------------------------------------------
 Center     Atomic      Atomic             Coordinates (Angstroms)
 Number     Number       Type             X           Y           Z
 ---------------------------------------------------------------------
      1          6           0       -0.000000    0.000000   -0.126831
      2          6           0       -0.000000    0.000000   -1.407937
      3          6           0        0.000000   -0.000000    1.155913
      4          6           0       -0.000000    0.000000   -2.711712
      5          8           0        0.000000   -0.000000    2.317925
 ---------------------------------------------------------------------

 SCF Done:  E(UB3LYP) =  -227.505553946     A.U. after   15 cycles

 The electronic state is 3-SG.
 Alpha  occ. eigenvalues --  -19.25290 -10.35266 -10.27214 -10.24812 -10.24651
 Alpha  occ. eigenvalues --   -1.18235  -0.87975  -0.80398  -0.68487  -0.57488
 Alpha  occ. eigenvalues --   -0.52749  -0.52749  -0.40306  -0.40306  -0.32773
 Alpha  occ. eigenvalues --   -0.28311  -0.28311
 Alpha virt. eigenvalues --   -0.06571  -0.06571  -0.01518   0.02980   0.03989
 Alpha virt. eigenvalues --    0.03989   0.05916   0.07391   0.07391   0.08719
 Alpha virt. eigenvalues --    0.11359   0.11359   0.12339   0.14484   0.14484

  Beta  occ. eigenvalues --  -19.24266 -10.34978 -10.26557 -10.24488 -10.23540
  Beta  occ. eigenvalues --   -1.16521  -0.85607  -0.76816  -0.66536  -0.56155
  Beta  occ. eigenvalues --   -0.49754  -0.49754  -0.36787  -0.36787  -0.30428
  Beta virt. eigenvalues --   -0.18539  -0.18539  -0.02701  -0.02701  -0.01283
  Beta virt. eigenvalues --    0.03154   0.04195   0.04195   0.06123   0.07865
  Beta virt. eigenvalues --    0.07865   0.08865   0.12365   0.12365   0.13344

 Mulliken charges and spin densities:
               1          2
     1  C    0.581819   0.733937
     2  C    1.007264   0.434247
     3  C   -0.003879  -0.138431
     4  C   -1.022541   0.625550
     5  O   -0.562663   0.344696
 Sum of Mulliken charges =   0.00000   2.00000

 Dipole moment (field-independent basis, Debye):
    X=              0.0000    Y=             -0.0000    Z=              2.6308  Tot=              2.6308
 Quadrupole moment (field-independent basis, Debye-Ang):
   XX=            -26.9209   YY=            -26.9209   ZZ=            -40.9865
   XY=              0.0000   XZ=             -0.0000   YZ=              0.0000

  Exact polarizability:  31.065  -0.000  31.065  -0.000  -0.000 114.767
 Approx polarizability:  42.442  -0.000  42.442   0.000  -0.000 244.286

                      1                      2                      3
                     PI                     PI                     PI
 Frequencies --    132.8188               132.8188               376.5184
 Red. masses --     12.5817                12.5817                12.1015
 Frc consts  --      0.1308                 0.1308                 1.0108
 IR Inten    --      8.8666                 8.8666                 4.3982

                      4                      5                      6
                     PI                     PI                     PI
 Frequencies --    376.5184               518.5884               518.5884
 Red. masses --     12.1015                12.4030                12.4030
 Frc consts  --      1.0108                 1.9653                 1.9653
 IR Inten    --      4.3982                13.6465                13.6465

                      7                      8                      9
                     SG                     SG                     SG
 Frequencies --    773.9134              1470.2879              1984.8482
 Red. masses --     13.1092                12.5501                12.3761
 Frc consts  --      4.6260                15.9846                28.7270
 IR Inten    --      4.0388                13.7795               383.2362

                     10
                     SG
 Frequencies --   2292.1410
 Red. masses --     12.3521
 Frc consts  --     38.2360
 IR Inten    --    822.5030

 - Thermochemistry -
 -------------------
 Temperature   298.150 Kelvin.  Pressure   1.00000 Atm.
 Atom     1 has atomic number  6 and mass  12.00000

 Molecular mass:    63.99491 amu.
 Principal axes and moments of inertia in atomic units:
                           1         2         3
     Eigenvalues --     0.00000 764.89293 764.89293
           X            0.00000  -0.10749   0.99421
           Y           -0.00000   0.99421   0.10749
           Z            1.00000   0.00000   0.00000
 This molecule is a prolate symmetric top.
 Rotational symmetry number  1.
 Warning -- assumption of classical behavior for rotation
           may cause significant error
 Rotational temperature (Kelvin)      0.11324
 Rotational constant (GHZ):           2.359469
 Zero-point vibrational energy      51302.1 (Joules/Mol)
                                   12.26150 (Kcal/Mol)
 Warning -- explicit consideration of   6 degrees of freedom as
           vibrations may cause significant error
 Vibrational temperatures:    191.10   191.10   541.73   541.73   746.13
          (Kelvin)            746.13  1113.49  2115.41  2855.75  3297.88

 Zero-point correction=                           0.019540 (Hartree/Particle)
 Thermal correction to Energy=                    0.024428
 Thermal correction to Enthalpy=                  0.025372
 Thermal correction to Gibbs Free Energy=        -0.006745
 Sum of electronic and zero-point Energies=           -227.486014
 Sum of electronic and thermal Energies=              -227.481126
 Sum of electronic and thermal Enthalpies=            -227.480182
 Sum of electronic and thermal Free Energies=         -227.512299

                     E (Thermal)             CV                S
                      KCal/Mol        Cal/Mol-Kelvin    Cal/Mol-Kelvin
 Total                   15.329             15.061             67.596
 Electronic               0.000              0.000              2.183
 Translational            0.889              2.981             38.388
 Rotational               0.592              1.987             17.638
 Vibrational             13.847             10.093              9.387
 Vibration     1          0.613              1.921              2.905
 Vibration     2          0.613              1.921              2.905
 Vibration     3          0.747              1.520              1.053
 Vibration     4          0.747              1.520              1.053
 Vibration     5          0.874              1.209              0.613
 Vibration     6          0.874              1.209              0.613

 Optimization completed.
    -- Stationary point found.
 Normal termination of Gaussian 09 at Fri Mar  1 08:36:08 2019.
