 Gaussian 09, Revision E.01,
 Gaussian 09:  EM64L-G09RevE.01 30-Nov-2015

 ------------------------------------------------------
 #p b3lyp/6-311++G(3df,2p) freq IOp(2/17=3) IOp(2/18=3)
 ------------------------------------------------------

 ---------
 b3lyp opt
 ---------
 Symbolic Z-matrix:
 Charge =  0 Multiplicity = 1

                         Standard orientation:
 ---------------------------------------------------------------------
 Center     Atomic      Atomic             Coordinates (Angstroms)
 Number     Number       Type             X           Y           Z
 ---------------------------------------------------------------------
      1          6           0        0.002561    0.176838    0.831820
      2          6           0        0.002561    0.176838   -0.831820
      3          6           0       -0.000000    1.383111    0.000000
      4          6           0        0.966408   -0.691187   -0.000000
      5          8           0       -0.728857   -0.784171   -0.000000
 ---------------------------------------------------------------------

 SCF Done:  E(RB3LYP) =  -227.284978941     A.U. after   12 cycles

 The electronic state is 1-A'.
 Alpha  occ. eigenvalues --  -19.29656 -10.32626 -10.32613 -10.32142 -10.29297
 Alpha  occ. eigenvalues --   -1.23804  -0.90248  -0.73161  -0.67797  -0.55555
 Alpha  occ. eigenvalues --   -0.49631  -0.44193  -0.39381  -0.39219  -0.33010
 Alpha  occ. eigenvalues --   -0.31192
 Alpha virt. eigenvalues --   -0.15872  -0.12400  -0.07620   0.02129   0.02360
 Alpha virt. eigenvalues --    0.03557   0.03881   0.04532   0.07211   0.07925
 Alpha virt. eigenvalues --    0.08164   0.08364   0.08668   0.11596   0.12342

 Mulliken charges:
               1
     1  C    0.455977
     2  C    0.455977
     3  C   -0.330711
     4  C   -0.234335
     5  O   -0.346908
 Sum of Mulliken charges =  -0.00000

 Dipole moment (field-independent basis, Debye):
    X=             -0.9004    Y=             -0.4756    Z=             -0.0000  Tot=              1.0183
 Quadrupole moment (field-independent basis, Debye-Ang):
   XX=            -28.1944   YY=            -32.6521   ZZ=            -28.2469
   XY=              0.3024   XZ=             -0.0000   YZ=             -0.0000

  Exact polarizability:  38.945  -5.121  49.574   0.000   0.000  43.936
 Approx polarizability:  77.898 -13.873  99.671   0.000   0.000 109.761

                      1                      2                      3
                     A'                     A"                     A'
 Frequencies --    285.8341               474.8895               530.6722
 Red. masses --     12.1012                13.0345                13.3787
 Frc consts  --      0.5825                 1.7319                 2.2198
 IR Inten    --      5.6978                 4.5124                29.9081

                      4                      5                      6
                     A"                     A"                     A'
 Frequencies --    589.2059               706.0835               874.1995
 Red. masses --     12.0042                12.0931                12.3092
 Frc consts  --      2.4554                 3.5522                 5.5424
 IR Inten    --     68.8392                 5.9474                10.6535

                      7                      8                      9
                     A'                     A'                     A'
 Frequencies --    904.4071              1159.3054              1216.4247
 Red. masses --     13.7599                12.3930                12.0107
 Frc consts  --      6.6312                 9.8134                10.4710
 IR Inten    --     47.8057                35.6994                10.6020

 - Thermochemistry -
 -------------------
 Temperature   298.150 Kelvin.  Pressure   1.00000 Atm.
 Atom     1 has atomic number  6 and mass  12.00000

 Molecular mass:    63.99491 amu.
 Principal axes and moments of inertia in atomic units:
                           1         2         3
     Eigenvalues --   129.43272 199.79058 210.61975
           X            0.05781   0.99833   0.00000
           Y            0.99833  -0.05781   0.00000
           Z           -0.00000  -0.00000   1.00000
 This molecule is an asymmetric top.
 Rotational symmetry number  1.
 Rotational temperatures (Kelvin)      0.66918     0.43352     0.41123
 Rotational constants (GHZ):          13.94347     9.03316     8.56872
 Zero-point vibrational energy      40320.3 (Joules/Mol)
                                    9.63677 (Kcal/Mol)
 Warning -- explicit consideration of   4 degrees of freedom as
           vibrations may cause significant error
 Vibrational temperatures:    411.25   683.26   763.52   847.73  1015.90
          (Kelvin)           1257.78  1301.24  1667.98  1750.16

 Zero-point correction=                           0.015357 (Hartree/Particle)
 Thermal correction to Energy=                    0.019498
 Thermal correction to Enthalpy=                  0.020442
 Thermal correction to Gibbs Free Energy=        -0.010706
 Sum of electronic and zero-point Energies=           -227.269622
 Sum of electronic and thermal Energies=              -227.265481
 Sum of electronic and thermal Enthalpies=            -227.264537
 Sum of electronic and thermal Free Energies=         -227.295685

                     E (Thermal)             CV                S
                      KCal/Mol        Cal/Mol-Kelvin    Cal/Mol-Kelvin
 Total                   12.235             13.480             65.557
 Electronic               0.000              0.000              0.000
 Translational            0.889              2.981             38.388
 Rotational               0.889              2.981             23.214
 Vibrational             10.458              7.518              3.955
 Vibration     1          0.684              1.700              1.499
 Vibration     2          0.832              1.306              0.724
 Vibration     3          0.886              1.182              0.586
 Vibration     4          0.946              1.055              0.469

 Optimization completed.
    -- Stationary point found.

 1\1\GINC-BOHRIO\Freq\RB3LYP\6-311++G(3df,2p)\C4O1\ROOT\01-Mar-2019\0\\
 #p b3lyp/6-311++G(3df,2p) freq IOp(2/17=3) IOp(2/18=3)\\b3lyp opt\\0,1
 \C,0.098195,-0.162204,-0.836067\C,0.2637107638,0.1590441993,0.78784869
 01\C,1.376963993,-0.1246318953,-0.1216686907\C,-0.6009454009,1.0259573
 353,-0.1476857645\O,-0.8319153813,-0.6194582081,0.2013569577\\Version=
 EM64L-G09RevE.01\State=1-A'\HF=-227.2849789\RMSD=5.272e-09\RMSF=1.224e
 -04\ZeroPoint=0.0153572\Thermal=0.0194979\Dipole=-0.2145564,-0.3270836
 ,0.0865731\DipoleDeriv=-0.1312503,0.1389107,0.0145943,0.2447477,0.0814

 Normal termination of Gaussian 09 at Fri Mar  1 08:25:08 2019.
