 Gaussian 09, Revision E.01,
 Gaussian 09:  EM64L-G09RevE.01 30-Nov-2015

 ------------------------------------------------------
 #p b3lyp/6-311++G(3df,2p) freq IOp(2/17=3) IOp(2/18=3)
 ------------------------------------------------------

 ---------
 b3lyp opt
 ---------
 Symbolic Z-matrix:
 Charge =  0 Multiplicity = 1

                         Standard orientation:
 ---------------------------------------------------------------------
 Center     Atomic      Atomic             Coordinates (Angstroms)
 Number     Number       Type             X           Y           Z
 ---------------------------------------------------------------------
      1          6           0       -0.000000    0.714344   -0.064704
      2          6           0       -0.000000   -0.714344   -0.064704
      3          6           0       -0.000000   -1.866511   -0.689228
      4          6           0        0.000000    1.866511   -0.689228
      5          8           0        0.000000    0.000000    1.130901
 ---------------------------------------------------------------------

 SCF Done:  E(RB3LYP) =  -227.312556035     A.U. after   11 cycles

 The electronic state is 1-A1.
 Alpha  occ. eigenvalues --  -19.28241 -10.31128 -10.31086 -10.28855 -10.28853
 Alpha  occ. eigenvalues --   -1.21367  -0.82429  -0.80995  -0.67799  -0.57570
 Alpha  occ. eigenvalues --   -0.53130  -0.45377  -0.35201  -0.34965  -0.32399
 Alpha  occ. eigenvalues --   -0.31654
 Alpha virt. eigenvalues --   -0.20563  -0.15307  -0.05923   0.00004   0.03180
 Alpha virt. eigenvalues --    0.04281   0.04860   0.05041   0.06179   0.06739
 Alpha virt. eigenvalues --    0.09011   0.09488   0.09942   0.11256   0.12053

 Mulliken charges:
               1
     1  C    0.788898
     2  C    0.788898
     3  C   -0.552977
     4  C   -0.552977
     5  O   -0.471842
 Sum of Mulliken charges =   0.00000

 Dipole moment (field-independent basis, Debye):
    X=             -0.0000    Y=             -0.0000    Z=              1.2827  Tot=              1.2827
 Quadrupole moment (field-independent basis, Debye-Ang):
   XX=            -29.2325   YY=            -35.1862   ZZ=            -28.9597
   XY=             -0.0000   XZ=              0.0000   YZ=              0.0000

  Exact polarizability:  32.121  -0.000  75.845  -0.000  -0.000  41.003
 Approx polarizability:  45.358   0.000 135.188   0.000   0.000  73.568

                      1                      2                      3
                     A1                     B2                     B1
 Frequencies --    164.3521               293.7796               294.5742
 Red. masses --     12.2720                12.4014                12.3385
 Frc consts  --      0.1953                 0.6306                 0.6308
 IR Inten    --     25.2421                13.7592                 1.7147

                      4                      5                      6
                     A2                     B2                     A1
 Frequencies --    413.7046               706.0858               822.7606
 Red. masses --     12.0000                13.5537                12.2381
 Frc consts  --      1.2101                 3.9813                 4.8810
 IR Inten    --      0.0000                 5.1893                37.5539

                      7                      8                      9
                     A1                     B2                     A1
 Frequencies --    965.1523              1576.2838              1903.4142
 Red. masses --     13.8909                12.0043                12.1162
 Frc consts  --      7.6238                17.5734                25.8632
 IR Inten    --     58.3368               182.4680                 0.4417

 - Thermochemistry -
 -------------------
 Temperature   298.150 Kelvin.  Pressure   1.00000 Atm.
 Atom     1 has atomic number  6 and mass  12.00000

 Molecular mass:    63.99491 amu.
 Principal axes and moments of inertia in atomic units:
                           1         2         3
     Eigenvalues --   114.12345 342.32105 456.44451
           X            0.00000   0.00000   1.00000
           Y            1.00000   0.00000  -0.00000
           Z           -0.00000   1.00000   0.00000
 This molecule is an asymmetric top.
 Rotational symmetry number  2.
 Rotational temperatures (Kelvin)      0.75895     0.25302     0.18976
 Rotational constants (GHZ):          15.81394     5.27207     3.95391
 Zero-point vibrational energy      42707.3 (Joules/Mol)
                                   10.20730 (Kcal/Mol)
 Warning -- explicit consideration of   4 degrees of freedom as
           vibrations may cause significant error
 Vibrational temperatures:    236.47   422.68   423.83   595.23  1015.90
          (Kelvin)           1183.77  1388.64  2267.92  2738.59

 Zero-point correction=                           0.016266 (Hartree/Particle)
 Thermal correction to Energy=                    0.021098
 Thermal correction to Enthalpy=                  0.022042
 Thermal correction to Gibbs Free Energy=        -0.010420
 Sum of electronic and zero-point Energies=           -227.296290
 Sum of electronic and thermal Energies=              -227.291458
 Sum of electronic and thermal Enthalpies=            -227.290514
 Sum of electronic and thermal Free Energies=         -227.322976

                     E (Thermal)             CV                S
                      KCal/Mol        Cal/Mol-Kelvin    Cal/Mol-Kelvin
 Total                   13.239             14.580             68.322
 Electronic               0.000              0.000              0.000
 Translational            0.889              2.981             38.388
 Rotational               0.889              2.981             23.015
 Vibrational             11.462              8.619              6.919
 Vibration     1          0.623              1.886              2.499
 Vibration     2          0.689              1.685              1.452
 Vibration     3          0.689              1.684              1.448
 Vibration     4          0.777              1.440              0.914

 1\1\GINC-BOHRIO\Freq\RB3LYP\6-311++G(3df,2p)\C4O1\ROOT\01-Mar-2019\0\\
 #p b3lyp/6-311++G(3df,2p) freq IOp(2/17=3) IOp(2/18=3)\\b3lyp opt\\0,1
 \C,0.6559180672,-0.2780297248,0.0626202077\C,-0.7001975766,0.144660091
 6,-0.0904575999\C,-1.970475844,-0.1086559038,-0.2898181162\C,1.5729228
 268,-1.2131034045,0.1101593505\O,0.3160181481,1.0708569215,0.131406656
 9\\Version=EM64L-G09RevE.01\State=1-A1\HF=-227.312556\RMSD=8.901e-09\R
 MSF=1.715e-04\ZeroPoint=0.0162664\Thermal=0.0210978\Dipole=0.1427356,0
 .4801535,0.0613415\DipoleDeriv=-0.1943708,0.5525521,0.0100579,0.699434

 Normal termination of Gaussian 09 at Fri Mar  1 08:23:54 2019.
