 Gaussian 09, Revision E.01,
 Gaussian 09:  EM64L-G09RevE.01 30-Nov-2015

 ------------------------------------------------------
 #p b3lyp/6-311++G(3df,2p) freq IOp(2/17=3) IOp(2/18=3)
 ------------------------------------------------------

 ---------
 b3lyp opt
 ---------
 Symbolic Z-matrix:
 Charge =  1 Multiplicity = 2

                         Standard orientation:
 ---------------------------------------------------------------------
 Center     Atomic      Atomic             Coordinates (Angstroms)
 Number     Number       Type             X           Y           Z
 ---------------------------------------------------------------------
      1          6           0        0.260847    0.346690    0.000000
      2          6           0        0.000000    1.816404   -0.000000
      3          6           0        1.253515    1.220601    0.000000
      4          6           0       -0.351210   -0.883789    0.000000
      5          8           0       -0.872364   -1.874929    0.000000
 ---------------------------------------------------------------------

 SCF Done:  E(UB3LYP) =  -227.110216484     A.U. after   17 cycles

 The electronic state is 2-A'.
 Alpha  occ. eigenvalues --  -19.54869 -10.64919 -10.56741 -10.54553 -10.51849
 Alpha  occ. eigenvalues --   -1.47958  -1.23251  -1.05825  -0.84346  -0.82220
 Alpha  occ. eigenvalues --   -0.79393  -0.77138  -0.72164  -0.67415  -0.56905
 Alpha  occ. eigenvalues --   -0.53304
 Alpha virt. eigenvalues --   -0.42099  -0.34202  -0.28233  -0.21020  -0.20402
 Alpha virt. eigenvalues --   -0.14437  -0.12012  -0.11788  -0.08631  -0.08445
 Alpha virt. eigenvalues --   -0.07068  -0.06197  -0.06043  -0.05299  -0.03726

  Beta  occ. eigenvalues --  -19.54609 -10.64863 -10.56476 -10.53167 -10.51633
  Beta  occ. eigenvalues --   -1.47548  -1.22470  -1.04837  -0.83962  -0.80339
  Beta  occ. eigenvalues --   -0.79270  -0.75523  -0.68438  -0.66805  -0.53105
  Beta virt. eigenvalues --   -0.43547  -0.41481  -0.31647  -0.26926  -0.20295
  Beta virt. eigenvalues --   -0.20085  -0.13904  -0.11760  -0.11722  -0.08469
  Beta virt. eigenvalues --   -0.08062  -0.06730  -0.06116  -0.05720  -0.04001

 Mulliken charges and spin densities:
               1          2
     1  C    0.816736   0.155126
     2  C   -0.152381   0.073122
     3  C    0.226507   0.628793
     4  C    0.436384   0.057779
     5  O   -0.327246   0.085179
 Sum of Mulliken charges =   1.00000   1.00000

 Dipole moment (field-independent basis, Debye):
    X=              1.0244    Y=             -1.0313    Z=              0.0000  Tot=              1.4537
 Quadrupole moment (field-independent basis, Debye-Ang):
   XX=            -22.0220   YY=            -19.4573   ZZ=            -22.9094
   XY=              4.7821   XZ=             -0.0000   YZ=              0.0000

  Exact polarizability:  39.783  12.466  60.692  -0.000  -0.000  23.533
 Approx polarizability:  71.745  35.268 124.327   0.000  -0.000  35.928

                      1                      2                      3
                     A'                     A"                     A'
 Frequencies --    183.3705               223.8018               486.3201
 Red. masses --     12.7384                12.6459                12.2059
 Frc consts  --      0.2524                 0.3732                 1.7008
 IR Inten    --     10.2218                 9.9960                28.9705

                      4                      5                      6
                     A"                     A'                     A'
 Frequencies --    601.6779               625.5600               763.7237
 Red. masses --     12.2273                12.2807                12.8917
 Frc consts  --      2.6080                 2.8315                 4.4303
 IR Inten    --      7.2185                37.5166                40.2018

                      7                      8                      9
                     A'                     A'                     A'
 Frequencies --   1155.4673              1716.6238              2318.0790
 Red. masses --     12.0793                12.0897                13.1229
 Frc consts  --      9.5018                20.9903                41.5466
 IR Inten    --      6.7952               106.6309               598.2654

 - Thermochemistry -
 -------------------
 Temperature   298.150 Kelvin.  Pressure   1.00000 Atm.
 Atom     1 has atomic number  6 and mass  12.00000

 Molecular mass:    63.99491 amu.
 Principal axes and moments of inertia in atomic units:
                           1         2         3
     Eigenvalues --    41.93841 521.71189 563.65029
           X            0.40079   0.91617   0.00000
           Y            0.91617  -0.40079   0.00000
           Z           -0.00000   0.00000   1.00000
 This molecule is an asymmetric top.
 Rotational symmetry number  1.
 Rotational temperatures (Kelvin)      2.06526     0.16602     0.15367
 Rotational constants (GHZ):          43.03314     3.45927     3.20188
 Zero-point vibrational energy      48297.0 (Joules/Mol)
                                   11.54325 (Kcal/Mol)
 Warning -- explicit consideration of   4 degrees of freedom as
           vibrations may cause significant error
 Vibrational temperatures:    263.83   322.00   699.71   865.68   900.04
          (Kelvin)           1098.83  1662.46  2469.84  3335.19

 Zero-point correction=                           0.018395 (Hartree/Particle)
 Thermal correction to Energy=                    0.022991
 Thermal correction to Enthalpy=                  0.023935
 Thermal correction to Gibbs Free Energy=        -0.009255
 Sum of electronic and zero-point Energies=           -227.091821
 Sum of electronic and thermal Energies=              -227.087225
 Sum of electronic and thermal Enthalpies=            -227.086281
 Sum of electronic and thermal Free Energies=         -227.119471

                     E (Thermal)             CV                S
                      KCal/Mol        Cal/Mol-Kelvin    Cal/Mol-Kelvin
 Total                   14.427             13.902             69.854
 Electronic               0.000              0.000              1.377
 Translational            0.889              2.981             38.388
 Rotational               0.889              2.981             24.026
 Vibrational             12.650              7.940              6.063
 Vibration     1          0.631              1.862              2.294
 Vibration     2          0.649              1.805              1.928
 Vibration     3          0.842              1.280              0.693
 Vibration     4          0.960              1.028              0.447

 Normal termination of Gaussian 09 at Fri Mar  1 08:36:54 2019.
