 Gaussian 09, Revision E.01,
 Gaussian 09:  EM64L-G09RevE.01 30-Nov-2015

 ------------------------------------------------------
 #p b3lyp/6-311++G(3df,2p) freq IOp(2/17=3) IOp(2/18=3)
 ------------------------------------------------------

 ---------
 b3lyp opt
 ---------
 Symbolic Z-matrix:
 Charge =  0 Multiplicity = 1

                         Standard orientation:
 ---------------------------------------------------------------------
 Center     Atomic      Atomic             Coordinates (Angstroms)
 Number     Number       Type             X           Y           Z
 ---------------------------------------------------------------------
      1          6           0        0.171724   -0.401011    2.674105
      2          6           0        0.089329   -0.252907    1.383441
      3          6           0       -0.073211    0.202490   -1.134639
      4          6           0        0.008050   -0.116572    0.108590
      5          8           0       -0.146919    0.426000   -2.273622
 ---------------------------------------------------------------------

 SCF Done:  E(RB3LYP) =  -227.479863064     A.U. after   13 cycles

 The electronic state is 1-A.
 Alpha  occ. eigenvalues --  -19.24665 -10.34979 -10.27253 -10.25025 -10.24301
 Alpha  occ. eigenvalues --   -1.17179  -0.86776  -0.78657  -0.67630  -0.56672
 Alpha  occ. eigenvalues --   -0.51166  -0.50986  -0.38610  -0.38391  -0.32045
 Alpha  occ. eigenvalues --   -0.25958
 Alpha virt. eigenvalues --   -0.21201  -0.04970  -0.04673  -0.01356   0.03015
 Alpha virt. eigenvalues --    0.03963   0.04215   0.06070   0.07454   0.07603
 Alpha virt. eigenvalues --    0.08821   0.11686   0.11759   0.12432   0.14877

 Mulliken charges:
               1
     1  C   -0.927792
     2  C    1.019710
     3  C    0.012736
     4  C    0.459221
     5  O   -0.563874
 Sum of Mulliken charges =  -0.00000

 Dipole moment (field-independent basis, Debye):
    X=             -0.1559    Y=              0.3623    Z=             -2.4285  Tot=              2.4603
 Quadrupole moment (field-independent basis, Debye-Ang):
   XX=            -25.4025   YY=            -28.9418   ZZ=            -40.4067
   XY=              0.1484   XZ=             -0.9620   YZ=              1.7495

  Exact polarizability:  30.993  -0.844  33.305   4.991 -13.029 108.151
 Approx polarizability:  44.931  -2.361  48.927  13.806 -36.873 258.234

                      1                      2                      3
                      A                      A                      A
 Frequencies --     22.9984               250.1438               347.5476
 Red. masses --     12.3530                12.0465                12.2971
 Frc consts  --      0.0038                 0.4441                 0.8752
 IR Inten    --      0.7711                41.7070                11.2624

                      4                      5                      6
                      A                      A                      A
 Frequencies --    379.4121               447.6123               773.9865
 Red. masses --     12.6851                12.4381                13.1013
 Frc consts  --      1.0759                 1.4683                 4.6241
 IR Inten    --     16.5304                 3.8474                 4.5920

                      7                      8                      9
                      A                      A                      A
 Frequencies --   1475.3381              1997.7889              2289.0622
 Red. masses --     12.5527                12.3631                12.3587
 Frc consts  --     16.0979                29.0721                38.1538
 IR Inten    --     19.4122               461.6561               666.7352

 - Thermochemistry -
 -------------------
 Temperature   298.150 Kelvin.  Pressure   1.00000 Atm.
 Atom     1 has atomic number  6 and mass  12.00000

 Molecular mass:    63.99491 amu.
 Principal axes and moments of inertia in atomic units:
                           1         2         3
     Eigenvalues --     0.62248 764.17755 764.80002
           X            0.06339  -0.00000   0.99799
           Y           -0.16864   0.98562   0.01071
           Z            0.98364   0.16898  -0.06248
 This molecule is an asymmetric top.
 Rotational symmetry number  1.
 Rotational temperatures (Kelvin)    139.14412     0.11334     0.11325
 Rotational constants (GHZ):        2899.29648     2.36168     2.35976
 Zero-point vibrational energy      47754.3 (Joules/Mol)
                                   11.41354 (Kcal/Mol)
 Warning -- explicit consideration of   5 degrees of freedom as
           vibrations may cause significant error
 Vibrational temperatures:     33.09   359.90   500.04   545.89   644.01
          (Kelvin)           1113.59  2122.68  2874.37  3293.45

 Zero-point correction=                           0.018189 (Hartree/Particle)
 Thermal correction to Energy=                    0.023452
 Thermal correction to Enthalpy=                  0.024397
 Thermal correction to Gibbs Free Energy=        -0.008989
 Sum of electronic and zero-point Energies=           -227.461674
 Sum of electronic and thermal Energies=              -227.456411
 Sum of electronic and thermal Enthalpies=            -227.455466
 Sum of electronic and thermal Free Energies=         -227.488852

                     E (Thermal)             CV                S
                      KCal/Mol        Cal/Mol-Kelvin    Cal/Mol-Kelvin
 Total                   14.717             14.962             70.266
 Electronic               0.000              0.000              0.000
 Translational            0.889              2.981             38.388
 Rotational               0.889              2.981             20.525
 Vibrational             12.939              9.000             11.353
 Vibration     1          0.593              1.985              6.357
 Vibration     2          0.663              1.763              1.730
 Vibration     3          0.725              1.580              1.177
 Vibration     4          0.749              1.514              1.042
 Vibration     5          0.807              1.366              0.803

 Normal termination of Gaussian 09 at Sun Mar  3 15:40:29 2019.
