 Gaussian 09, Revision E.01,
 Gaussian 09:  EM64L-G09RevE.01 30-Nov-2015

 ------------------------------------------------------
 #p b3lyp/6-311++G(3df,2p) freq IOp(2/17=3) IOp(2/18=3)
 ------------------------------------------------------

 ---------
 b3lyp opt
 ---------
 Symbolic Z-matrix:
 Charge =  0 Multiplicity = 1

                         Standard orientation:
 ---------------------------------------------------------------------
 Center     Atomic      Atomic             Coordinates (Angstroms)
 Number     Number       Type             X           Y           Z
 ---------------------------------------------------------------------
      1          6           0        0.000000    0.000000   -0.642546
      2          8           0        0.000000    0.000000    0.481910
 ---------------------------------------------------------------------

 SCF Done:  E(RB3LYP) =  -113.356792817     A.U. after    8 cycles

 The electronic state is 1-SG.
 Alpha  occ. eigenvalues --  -19.23701 -10.29317  -1.17541  -0.58515  -0.48665
 Alpha  occ. eigenvalues --   -0.48665  -0.38687
 Alpha virt. eigenvalues --   -0.04019  -0.04019   0.02510   0.05857   0.06946
 Alpha virt. eigenvalues --    0.06946   0.17317   0.20118   0.20118   0.23575
 Alpha virt. eigenvalues --    0.31857   0.31857   0.38514   0.46584   0.46584

 Mulliken charges:
               1
     1  C    0.214888
     2  O   -0.214888
 Sum of Mulliken charges =  -0.00000

 Dipole moment (field-independent basis, Debye):
    X=              0.0000    Y=              0.0000    Z=              0.0954  Tot=              0.0954
 Quadrupole moment (field-independent basis, Debye-Ang):
   XX=            -10.2994   YY=            -10.2994   ZZ=            -12.3967
   XY=              0.0000   XZ=              0.0000   YZ=              0.0000

  Exact polarizability:  11.812   0.000  11.812  -0.000   0.000  15.461
 Approx polarizability:  15.756  -0.000  15.756  -0.000  -0.000  24.656

                      1
                     SG
 Frequencies --   2216.8130
 Red. masses --     13.4388
 Frc consts  --     38.9105
 IR Inten    --     79.7745

 - Thermochemistry -
 -------------------
 Temperature   298.150 Kelvin.  Pressure   1.00000 Atm.
 Atom     1 has atomic number  6 and mass  12.00000

 Molecular mass:    27.99491 amu.
 Principal axes and moments of inertia in atomic units:
                           1         2         3
     Eigenvalues --     0.00000  30.95756  30.95756
           X            0.00000  -0.00000   1.00000
           Y            0.00000   1.00000   0.00000
           Z            1.00000   0.00000   0.00000
 This molecule is a prolate symmetric top.
 Rotational symmetry number  1.
 Rotational temperature (Kelvin)      2.79782
 Rotational constant (GHZ):          58.297273
 Zero-point vibrational energy      13259.5 (Joules/Mol)
                                    3.16909 (Kcal/Mol)
 Vibrational temperatures:   3189.50
          (Kelvin)

 Zero-point correction=                           0.005050 (Hartree/Particle)
 Thermal correction to Energy=                    0.007411
 Thermal correction to Enthalpy=                  0.008355
 Thermal correction to Gibbs Free Energy=        -0.014066
 Sum of electronic and zero-point Energies=           -113.351743
 Sum of electronic and thermal Energies=              -113.349382
 Sum of electronic and thermal Enthalpies=            -113.348438
 Sum of electronic and thermal Free Energies=         -113.370858

                     E (Thermal)             CV                S
                      KCal/Mol        Cal/Mol-Kelvin    Cal/Mol-Kelvin
 Total                    4.650              4.973             47.189
 Electronic               0.000              0.000              0.000
 Translational            0.889              2.981             35.923
 Rotational               0.592              1.987             11.265
 Vibrational              3.169              0.005              0.001

 Optimization completed.
    -- Stationary point found.

 1\1\GINC-BOHRIO\Freq\RB3LYP\6-311++G(3df,2p)\C1O1\ROOT\01-Mar-2019\0\\
 #p b3lyp/6-311++G(3df,2p) freq IOp(2/17=3) IOp(2/18=3)\\b3lyp opt\\0,1
 \C,-0.774245,0.,0.\O,0.350211,0.,0.\\Version=EM64L-G09RevE.01\State=1-
 SG\HF=-113.3567928\RMSD=4.853e-09\RMSF=5.624e-07\ZeroPoint=0.0050503\T
 hermal=0.007411\Dipole=0.03755,0.,0.\DipoleDeriv=0.7490286,0.,0.,0.,-0
 .0176582,0.,0.,0.,-0.0176582,-0.7490286,0.,0.,0.,0.0176582,0.,0.,0.,0.
 0176582\Polar=15.4614496,0.,11.8121948,0.,0.,11.8121948\PG=C*V [C*(C1O
 1)]\NImag=0\\1.27506871,0.,0.00006096,0.,0.,0.00006096,-1.27506871,0.,

 Normal termination of Gaussian 09 at Fri Mar  1 08:33:23 2019.
