 Gaussian 09, Revision E.01,
 Gaussian 09:  EM64L-G09RevE.01 30-Nov-2015

 ------------------------------------------------------
 #p b3lyp/6-311++G(3df,2p) freq IOp(2/17=3) IOp(2/18=3)
 ------------------------------------------------------

 ---------
 b3lyp opt
 ---------
 Symbolic Z-matrix:
 Charge =  0 Multiplicity = 3

                         Standard orientation:
 ---------------------------------------------------------------------
 Center     Atomic      Atomic             Coordinates (Angstroms)
 Number     Number       Type             X           Y           Z
 ---------------------------------------------------------------------
      1          6           0        0.000000    0.000000   -0.685812
      2          8           0        0.000000    0.000000    0.514359
 ---------------------------------------------------------------------

 SCF Done:  E(UB3LYP) =  -113.141101640     A.U. after   12 cycles

 Unable to determine electronic state:  an orbital has unidentified symmetry.
 Alpha  occ. eigenvalues --  -19.21438 -10.33418  -1.12136  -0.60016  -0.47185
 Alpha  occ. eigenvalues --   -0.46968  -0.44881  -0.18400
 Alpha virt. eigenvalues --   -0.08860   0.02149   0.04721   0.05864   0.06362
 Alpha virt. eigenvalues --    0.17704   0.20677   0.20835   0.23369   0.30946
 Alpha virt. eigenvalues --    0.31085   0.33301   0.42314   0.43251   0.48777

  Beta  occ. eigenvalues --  -19.20344 -10.30286  -1.09287  -0.53160  -0.43802
  Beta  occ. eigenvalues --   -0.40744
  Beta virt. eigenvalues --   -0.26397  -0.04545  -0.01627   0.03293   0.05395
  Beta virt. eigenvalues --    0.06972   0.07700   0.18200   0.20797   0.21282
  Beta virt. eigenvalues --    0.24639   0.32698   0.32725   0.36701   0.44855

 Mulliken charges and spin densities:
               1          2
     1  C    0.277746   1.770248
     2  O   -0.277746   0.229752
 Sum of Mulliken charges =  -0.00000   2.00000

 Dipole moment (field-independent basis, Debye):
    X=              0.0000    Y=              0.0000    Z=             -1.3925  Tot=              1.3925
 Quadrupole moment (field-independent basis, Debye-Ang):
   XX=            -11.8942   YY=            -10.1358   ZZ=            -10.4013
   XY=              0.0000   XZ=              0.0000   YZ=              0.0000

  Exact polarizability:  17.082   0.000  12.420  -0.000  -0.000  20.178
 Approx polarizability:  16.691  -0.000  15.501  -0.000  -0.000  33.605

                      1
                     SG
 Frequencies --   1792.0090
 Red. masses --     13.4388
 Frc consts  --     25.4267
 IR Inten    --     22.7215

 - Thermochemistry -
 -------------------
 Temperature   298.150 Kelvin.  Pressure   1.00000 Atm.
 Atom     1 has atomic number  6 and mass  12.00000

 Molecular mass:    27.99491 amu.
 Principal axes and moments of inertia in atomic units:
                           1         2         3
     Eigenvalues --     0.00000  35.26696  35.26696
           X            0.00000  -0.00000   1.00000
           Y            0.00000   1.00000   0.00000
           Z            1.00000   0.00000   0.00000
 This molecule is a prolate symmetric top.
 Rotational symmetry number  1.
 Rotational temperature (Kelvin)      2.45595
 Rotational constant (GHZ):          51.173711
 Zero-point vibrational energy      10718.6 (Joules/Mol)
                                    2.56181 (Kcal/Mol)
 Vibrational temperatures:   2578.30
          (Kelvin)

 Zero-point correction=                           0.004082 (Hartree/Particle)
 Thermal correction to Energy=                    0.006444
 Thermal correction to Enthalpy=                  0.007389
 Thermal correction to Gibbs Free Energy=        -0.016194
 Sum of electronic and zero-point Energies=           -113.137019
 Sum of electronic and thermal Energies=              -113.134657
 Sum of electronic and thermal Enthalpies=            -113.133713
 Sum of electronic and thermal Free Energies=         -113.157296

                     E (Thermal)             CV                S
                      KCal/Mol        Cal/Mol-Kelvin    Cal/Mol-Kelvin
 Total                    4.044              4.994             49.634
 Electronic               0.000              0.000              2.183
 Translational            0.889              2.981             35.923
 Rotational               0.592              1.987             11.524
 Vibrational              2.563              0.026              0.003

 Optimization completed.
    -- Stationary point found.
 Normal termination of Gaussian 09 at Fri Mar  1 08:33:26 2019.
