 Gaussian 09, Revision E.01,
 Gaussian 09:  EM64L-G09RevE.01 30-Nov-2015

 ------------------------------------------------------
 #p b3lyp/6-311++G(3df,2p) freq IOp(2/17=3) IOp(2/18=3)
 ------------------------------------------------------

 ---------
 b3lyp opt
 ---------
 Symbolic Z-matrix:
 Charge =  1 Multiplicity = 4

                         Standard orientation:
 ---------------------------------------------------------------------
 Center     Atomic      Atomic             Coordinates (Angstroms)
 Number     Number       Type             X           Y           Z
 ---------------------------------------------------------------------
      1          6           0        0.000000    0.000000   -1.065399
      2          8           0        0.000000    0.000000    0.799050
 ---------------------------------------------------------------------

 SCF Done:  E(UB3LYP) =  -112.585699788     A.U. after   12 cycles

 Unable to determine electronic state:  partially filled degenerate orbitals.
 Alpha  occ. eigenvalues --  -19.69418 -10.72740  -1.42368  -0.95398  -0.84739
 Alpha  occ. eigenvalues --   -0.84594  -0.76236  -0.61877
 Alpha virt. eigenvalues --   -0.49141  -0.41955  -0.16899  -0.11313  -0.10953
 Alpha virt. eigenvalues --   -0.10536  -0.04002  -0.02789  -0.02675   0.05590
 Alpha virt. eigenvalues --    0.06725   0.07033   0.13981   0.14140   0.20641

  Beta  occ. eigenvalues --  -19.63771 -10.71098  -1.26128  -0.89023  -0.70801
  Beta virt. eigenvalues --   -0.56569  -0.55660  -0.45753  -0.40729  -0.39247
  Beta virt. eigenvalues --   -0.16079  -0.10305  -0.10252  -0.09584  -0.03645
  Beta virt. eigenvalues --   -0.01027  -0.00720   0.06656   0.08559   0.08567

 Mulliken charges and spin densities:
               1          2
     1  C    0.655405   0.940794
     2  O    0.344595   2.059206
 Sum of Mulliken charges =   1.00000   3.00000

 Dipole moment (field-independent basis, Debye):
    X=              0.0000    Y=              0.0000    Z=             -1.3528  Tot=              1.3528
 Quadrupole moment (field-independent basis, Debye-Ang):
   XX=             -7.7377   YY=             -9.2543   ZZ=             -4.7862
   XY=              0.0000   XZ=              0.0000   YZ=              0.0000

  Exact polarizability:  10.722   0.000  10.622   0.000  -0.000  20.363
 Approx polarizability:  14.600  -0.000  11.191  -0.000  -0.000  32.569

                      1
                     SG
 Frequencies --    485.9328
 Red. masses --     13.4388
 Frc consts  --      1.8697
 IR Inten    --    111.1830

 - Thermochemistry -
 -------------------
 Temperature   298.150 Kelvin.  Pressure   1.00000 Atm.
 Atom     1 has atomic number  6 and mass  12.00000

 Molecular mass:    27.99491 amu.
 Principal axes and moments of inertia in atomic units:
                           1         2         3
     Eigenvalues --     0.00000  85.11043  85.11043
           X            0.00000  -0.00000   1.00000
           Y            0.00000   1.00000   0.00000
           Z            1.00000   0.00000   0.00000
 This molecule is a prolate symmetric top.
 Rotational symmetry number  1.
 Rotational temperature (Kelvin)      1.01766
 Rotational constant (GHZ):          21.204701
 Zero-point vibrational energy       2906.5 (Joules/Mol)
                                    0.69468 (Kcal/Mol)
 Warning -- explicit consideration of   1 degrees of freedom as
           vibrations may cause significant error
 Vibrational temperatures:    699.15
          (Kelvin)

 Zero-point correction=                           0.001107 (Hartree/Particle)
 Thermal correction to Energy=                    0.003702
 Thermal correction to Enthalpy=                  0.004646
 Thermal correction to Gibbs Free Energy=        -0.020368
 Sum of electronic and zero-point Energies=           -112.584593
 Sum of electronic and thermal Energies=              -112.581998
 Sum of electronic and thermal Enthalpies=            -112.581053
 Sum of electronic and thermal Free Energies=         -112.606068

                     E (Thermal)             CV                S
                      KCal/Mol        Cal/Mol-Kelvin    Cal/Mol-Kelvin
 Total                    2.323              6.249             52.647
 Electronic               0.000              0.000              2.755
 Translational            0.889              2.981             35.923
 Rotational               0.592              1.987             13.275
 Vibrational              0.842              1.281              0.694
 Vibration     1          0.842              1.281              0.694

 Optimization completed.
    -- Stationary point found.
 Normal termination of Gaussian 09 at Sun Mar  3 08:40:30 2019.
