 Gaussian 09, Revision E.01,
 Gaussian 09:  EM64L-G09RevE.01 30-Nov-2015

 ------------------------------------------------------
 #p b3lyp/6-311++G(3df,2p) freq IOp(2/17=3) IOp(2/18=3)
 ------------------------------------------------------

 ---------
 b3lyp opt
 ---------
 Symbolic Z-matrix:
 Charge =  1 Multiplicity = 2

                         Standard orientation:
 ---------------------------------------------------------------------
 Center     Atomic      Atomic             Coordinates (Angstroms)
 Number     Number       Type             X           Y           Z
 ---------------------------------------------------------------------
      1          6           0        0.000000    0.000000   -0.633239
      2          8           0        0.000000    0.000000    0.474929
 ---------------------------------------------------------------------

 SCF Done:  E(UB3LYP) =  -112.835853047     A.U. after   11 cycles

 The electronic state is 2-SG.
 Alpha  occ. eigenvalues --  -19.64730 -10.79169  -1.57667  -0.96766  -0.86857
 Alpha  occ. eigenvalues --   -0.86857  -0.86588
 Alpha virt. eigenvalues --   -0.43098  -0.43098  -0.18206  -0.13941  -0.12550
 Alpha virt. eigenvalues --   -0.12550  -0.03926   0.00489   0.00489   0.03399
 Alpha virt. eigenvalues --    0.03576   0.03576   0.09931   0.17433   0.17433

  Beta  occ. eigenvalues --  -19.64802 -10.76656  -1.56864  -0.93421  -0.86431
  Beta  occ. eigenvalues --   -0.86431
  Beta virt. eigenvalues --   -0.64861  -0.38919  -0.38919  -0.16979  -0.13100
  Beta virt. eigenvalues --   -0.12258  -0.12258  -0.03173   0.00432   0.00432
  Beta virt. eigenvalues --    0.04221   0.04256   0.04256   0.11961   0.18795

 Mulliken charges and spin densities:
               1          2
     1  C    0.916221   1.099769
     2  O    0.083779  -0.099769
 Sum of Mulliken charges =   1.00000   1.00000

 Dipole moment (field-independent basis, Debye):
    X=              0.0000    Y=              0.0000    Z=             -2.7316  Tot=              2.7316
 Quadrupole moment (field-independent basis, Debye-Ang):
   XX=             -7.9361   YY=             -7.9361   ZZ=             -5.4509
   XY=              0.0000   XZ=              0.0000   YZ=              0.0000

  Exact polarizability:   7.682  -0.000   7.682   0.000  -0.000  11.571
 Approx polarizability:   9.584  -0.000   9.584  -0.000  -0.000  24.740

                      1
                     SG
 Frequencies --   2300.5545
 Red. masses --     13.4388
 Frc consts  --     41.9058
 IR Inten    --     12.8139

 - Thermochemistry -
 -------------------
 Temperature   298.150 Kelvin.  Pressure   1.00000 Atm.
 Atom     1 has atomic number  6 and mass  12.00000

 Molecular mass:    27.99491 amu.
 Principal axes and moments of inertia in atomic units:
                           1         2         3
     Eigenvalues --     0.00000  30.06720  30.06720
           X            0.00000  -0.00000   1.00000
           Y            0.00000   1.00000   0.00000
           Z            1.00000   0.00000   0.00000
 This molecule is a prolate symmetric top.
 Rotational symmetry number  1.
 Rotational temperature (Kelvin)      2.88067
 Rotational constant (GHZ):          60.023589
 Zero-point vibrational energy      13760.4 (Joules/Mol)
                                    3.28881 (Kcal/Mol)
 Vibrational temperatures:   3309.98
          (Kelvin)

 Zero-point correction=                           0.005241 (Hartree/Particle)
 Thermal correction to Energy=                    0.007602
 Thermal correction to Enthalpy=                  0.008546
 Thermal correction to Gibbs Free Energy=        -0.014502
 Sum of electronic and zero-point Energies=           -112.830612
 Sum of electronic and thermal Energies=              -112.828251
 Sum of electronic and thermal Enthalpies=            -112.827307
 Sum of electronic and thermal Free Energies=         -112.850355

                     E (Thermal)             CV                S
                      KCal/Mol        Cal/Mol-Kelvin    Cal/Mol-Kelvin
 Total                    4.770              4.972             48.508
 Electronic               0.000              0.000              1.377
 Translational            0.889              2.981             35.923
 Rotational               0.592              1.987             11.207
 Vibrational              3.289              0.004              0.000

 Optimization completed.
    -- Stationary point found.
 Normal termination of Gaussian 09 at Sun Mar  3 08:40:29 2019.
