 Gaussian 09, Revision E.01,
 Gaussian 09:  EM64L-G09RevE.01 30-Nov-2015

 ------------------------------------------------------
 #p b3lyp/6-311++G(3df,2p) freq IOp(2/17=3) IOp(2/18=3)
 ------------------------------------------------------

 ---------
 b3lyp opt
 ---------
 Symbolic Z-matrix:
 Charge =  1 Multiplicity = 2

                         Standard orientation:
 ---------------------------------------------------------------------
 Center     Atomic      Atomic             Coordinates (Angstroms)
 Number     Number       Type             X           Y           Z
 ---------------------------------------------------------------------
      1          6           0       -0.000000    0.000000    0.139861
      2          8           0       -0.000000    0.000000    1.262363
      3          6           0        0.000000   -0.000000   -1.236433
      4          1           0        0.000000   -0.952737   -1.759748
      5          1           0        0.000000    0.952737   -1.759748
 ---------------------------------------------------------------------

 SCF Done:  E(UB3LYP) =  -152.308003176     A.U. after   13 cycles

 The electronic state is 2-B1.
 Alpha  occ. eigenvalues --  -19.53404 -10.62598 -10.54347  -1.46713  -1.10763
 Alpha  occ. eigenvalues --   -0.85312  -0.80546  -0.80101  -0.79169  -0.72620
 Alpha  occ. eigenvalues --   -0.59040
 Alpha virt. eigenvalues --   -0.33180  -0.27247  -0.21134  -0.13888  -0.13589
 Alpha virt. eigenvalues --   -0.11493  -0.10823  -0.08658  -0.07470  -0.06581
 Alpha virt. eigenvalues --   -0.05855  -0.01892  -0.01322   0.00486   0.01474

  Beta  occ. eigenvalues --  -19.52723 -10.62659 -10.53156  -1.45624  -1.07520
  Beta  occ. eigenvalues --   -0.84165  -0.79543  -0.79527  -0.75896  -0.71908
  Beta virt. eigenvalues --   -0.45292  -0.33012  -0.22982  -0.20492  -0.13628
  Beta virt. eigenvalues --   -0.13469  -0.10673  -0.10637  -0.07465  -0.07239
  Beta virt. eigenvalues --   -0.06309  -0.05358  -0.01664  -0.01214   0.01473

 Mulliken charges and spin densities:
               1          2
     1  C    0.819860  -0.004395
     2  O   -0.333985   0.229988
     3  C   -0.004304   0.813502
     4  H    0.259214  -0.019547
     5  H    0.259214  -0.019547
 Sum of Mulliken charges =   1.00000   1.00000

 Dipole moment (field-independent basis, Debye):
    X=              0.0000    Y=              0.0000    Z=             -3.3207  Tot=              3.3207
 Quadrupole moment (field-independent basis, Debye-Ang):
   XX=            -14.9248   YY=            -12.3958   ZZ=             -7.7406
   XY=             -0.0000   XZ=              0.0000   YZ=             -0.0000

  Exact polarizability:  14.270  -0.000  16.241   0.000  -0.000  32.544
 Approx polarizability:  18.980   0.000  21.762  -0.000  -0.000  54.413

                      1                      2                      3
                     B2                     B1                     B1
 Frequencies --    416.7713               471.1054               761.0652
 Red. masses --      2.6405                 5.8489                 1.3643
 Frc consts  --      0.2702                 0.7648                 0.4656
 IR Inten    --      2.4759                 2.6602                48.0527

                      4                      5                      6
                     B2                     A1                     A1
 Frequencies --   1013.6016              1050.3487              1376.8970
 Red. masses --      1.6672                 4.9118                 1.1653
 Frc consts  --      1.0092                 3.1927                 1.3016
 IR Inten    --      4.4031                 1.2594                41.1920

                      7                      8                      9
                     A1                     A1                     B2
 Frequencies --   2282.0430              3095.5773              3214.8697
 Red. masses --     12.8349                 1.0472                 1.1240
 Frc consts  --     39.3814                 5.9122                 6.8445
 IR Inten    --    172.2072               115.6889               108.1065

 - Thermochemistry -
 -------------------
 Temperature   298.150 Kelvin.  Pressure   1.00000 Atm.
 Atom     1 has atomic number  6 and mass  12.00000

 Molecular mass:    42.01056 amu.
 Principal axes and moments of inertia in atomic units:
                           1         2         3
     Eigenvalues --     6.53370 178.63000 185.16370
           X           -0.00000  -0.00000   1.00000
           Y            0.00000   1.00000   0.00000
           Z            1.00000  -0.00000   0.00000
 This molecule is an asymmetric top.
 Rotational symmetry number  2.
 Rotational temperatures (Kelvin)     13.25647     0.48488     0.46777
 Rotational constants (GHZ):         276.22045    10.10324     9.74673
 Zero-point vibrational energy      81838.2 (Joules/Mol)
                                   19.55980 (Kcal/Mol)
 Warning -- explicit consideration of   2 degrees of freedom as
           vibrations may cause significant error
 Vibrational temperatures:    599.64   677.81  1095.00  1458.34  1511.22
          (Kelvin)           1981.05  3283.35  4453.84  4625.47

 Zero-point correction=                           0.031171 (Hartree/Particle)
 Thermal correction to Energy=                    0.034707
 Thermal correction to Enthalpy=                  0.035651
 Thermal correction to Gibbs Free Energy=         0.007521
 Sum of electronic and zero-point Energies=           -152.276833
 Sum of electronic and thermal Energies=              -152.273296
 Sum of electronic and thermal Enthalpies=            -152.272352
 Sum of electronic and thermal Free Energies=         -152.300482

                     E (Thermal)             CV                S
                      KCal/Mol        Cal/Mol-Kelvin    Cal/Mol-Kelvin
 Total                   21.779             10.233             59.205
 Electronic               0.000              0.000              1.377
 Translational            0.889              2.981             37.133
 Rotational               0.889              2.981             18.630
 Vibrational             20.001              4.271              2.064
 Vibration     1          0.780              1.434              0.903
 Vibration     2          0.828              1.314              0.734

 Optimization completed.
    -- Stationary point found.
 Normal termination of Gaussian 09 at Fri Mar  1 08:38:33 2019.
