 Gaussian 09, Revision E.01,
 Gaussian 09:  EM64L-G09RevE.01 30-Nov-2015

 ------------------------------------------------------
 #p b3lyp/6-311++G(3df,2p) freq IOp(2/17=3) IOp(2/18=3)
 ------------------------------------------------------

 ---------
 b3lyp opt
 ---------
 Symbolic Z-matrix:
 Charge =  0 Multiplicity = 1

                         Standard orientation:
 ---------------------------------------------------------------------
 Center     Atomic      Atomic             Coordinates (Angstroms)
 Number     Number       Type             X           Y           Z
 ---------------------------------------------------------------------
      1          6           0       -0.341932   -1.375063    0.000000
      2          6           0        0.276509   -0.221596    0.000000
      3          1           0        1.346577   -0.482732    0.000000
      4          1           0       -0.954044    1.236614   -0.000000
      5          8           0        0.000000    1.103260   -0.000000
 ---------------------------------------------------------------------

 SCF Done:  E(RB3LYP) =  -152.524769553     A.U. after   11 cycles

 The electronic state is 1-A'.
 Alpha  occ. eigenvalues --  -19.20053 -10.24730 -10.23477  -1.10306  -0.78886
 Alpha  occ. eigenvalues --   -0.63554  -0.50825  -0.43581  -0.43312  -0.30474
 Alpha  occ. eigenvalues --   -0.27166
 Alpha virt. eigenvalues --   -0.12673  -0.01140   0.00817   0.01733   0.05407
 Alpha virt. eigenvalues --    0.05978   0.07663   0.08969   0.09427   0.10994
 Alpha virt. eigenvalues --    0.11836   0.14131   0.15369   0.18949   0.19477

 Mulliken charges:
               1
     1  C   -0.444332
     2  C    0.545771
     3  H    0.136794
     4  H    0.252113
     5  O   -0.490346
 Sum of Mulliken charges =  -0.00000

 Dipole moment (field-independent basis, Debye):
    X=             -0.1645    Y=              2.0102    Z=             -0.0000  Tot=              2.0169
 Quadrupole moment (field-independent basis, Debye-Ang):
   XX=            -14.1511   YY=            -23.2831   ZZ=            -19.8004
   XY=             -4.3861   XZ=             -0.0000   YZ=              0.0000

  Exact polarizability:  28.187   2.209  36.575   0.000   0.000  23.089
 Approx polarizability:  43.980   6.119  53.704   0.000  -0.000  30.408

                      1                      2                      3
                     A'                     A"                     A"
 Frequencies --    213.0887               346.8860               693.8089
 Red. masses --      4.5695                 1.2457                 1.8733
 Frc consts  --      0.1222                 0.0883                 0.5313
 IR Inten    --     54.5945               120.6401                14.3005

                      4                      5                      6
                     A'                     A'                     A'
 Frequencies --    962.5903              1092.1789              1346.1505
 Red. masses --      2.3057                 1.7613                 1.2160
 Frc consts  --      1.2587                 1.2378                 1.2983
 IR Inten    --     16.4253               146.7455                 9.7567

                      7                      8                      9
                     A'                     A'                     A'
 Frequencies --   1746.1236              3007.7771              3819.5529
 Red. masses --      8.1521                 1.0777                 1.0665
 Frc consts  --     14.6444                 5.7444                 9.1675
 IR Inten    --     47.4017                32.3858                75.3573

 - Thermochemistry -
 -------------------
 Temperature   298.150 Kelvin.  Pressure   1.00000 Atm.
 Atom     1 has atomic number  6 and mass  12.00000

 Molecular mass:    42.01056 amu.
 Principal axes and moments of inertia in atomic units:
                           1         2         3
     Eigenvalues --    17.23528 159.78866 177.02393
           X            0.07677   0.99705  -0.00000
           Y            0.99705  -0.07677   0.00000
           Z           -0.00000   0.00000   1.00000
 This molecule is an asymmetric top.
 Rotational symmetry number  1.
 Rotational temperatures (Kelvin)      5.02538     0.54205     0.48928
 Rotational constants (GHZ):         104.71206    11.29455    10.19490
 Zero-point vibrational energy      79121.9 (Joules/Mol)
                                   18.91060 (Kcal/Mol)
 Warning -- explicit consideration of   2 degrees of freedom as
           vibrations may cause significant error
 Vibrational temperatures:    306.59   499.09   998.23  1384.95  1571.40
          (Kelvin)           1936.81  2512.28  4327.51  5495.48

 Zero-point correction=                           0.030136 (Hartree/Particle)
 Thermal correction to Energy=                    0.034068
 Thermal correction to Enthalpy=                  0.035012
 Thermal correction to Gibbs Free Energy=         0.005716
 Sum of electronic and zero-point Energies=           -152.494634
 Sum of electronic and thermal Energies=              -152.490701
 Sum of electronic and thermal Enthalpies=            -152.489757
 Sum of electronic and thermal Free Energies=         -152.519054

                     E (Thermal)             CV                S
                      KCal/Mol        Cal/Mol-Kelvin    Cal/Mol-Kelvin
 Total                   21.378             11.070             61.660
 Electronic               0.000              0.000              0.000
 Translational            0.889              2.981             37.133
 Rotational               0.889              2.981             20.816
 Vibrational             19.601              5.109              3.711
 Vibration     1          0.644              1.821              2.017
 Vibration     2          0.725              1.582              1.180

 Normal termination of Gaussian 09 at Fri Mar  1 08:34:04 2019.
