 Gaussian 09, Revision E.01,
 Gaussian 09:  EM64L-G09RevE.01 30-Nov-2015

 ------------------------------------------------------
 #p b3lyp/6-311++G(3df,2p) freq IOp(2/17=3) IOp(2/18=3)
 ------------------------------------------------------

 ---------
 b3lyp opt
 ---------
 Symbolic Z-matrix:
 Charge =  0 Multiplicity = 3

                         Standard orientation:
 ---------------------------------------------------------------------
 Center     Atomic      Atomic             Coordinates (Angstroms)
 Number     Number       Type             X           Y           Z
 ---------------------------------------------------------------------
      1          6           0        0.000000    1.182511   -0.000000
      2          6           0        0.410692   -0.189832    0.000000
      3          1           0        0.738413    1.969022   -0.000000
      4          1           0       -1.056016    1.439975   -0.000000
      5          8           0       -0.268319   -1.170633    0.000000
 ---------------------------------------------------------------------

 SCF Done:  E(UB3LYP) =  -152.578875582     A.U. after   13 cycles

 The electronic state is 3-A".
 Alpha  occ. eigenvalues --  -19.18090 -10.26741 -10.24544  -1.10263  -0.78539
 Alpha  occ. eigenvalues --   -0.57033  -0.50093  -0.49205  -0.45184  -0.41328
 Alpha  occ. eigenvalues --   -0.29699  -0.21501
 Alpha virt. eigenvalues --   -0.00918  -0.00527   0.02033   0.03836   0.05434
 Alpha virt. eigenvalues --    0.07229   0.08319   0.10117   0.10215   0.12740
 Alpha virt. eigenvalues --    0.13557   0.15665   0.17464   0.20829   0.22784

  Beta  occ. eigenvalues --  -19.16598 -10.25815 -10.23064  -1.07505  -0.74034
  Beta  occ. eigenvalues --   -0.54434  -0.47954  -0.46632  -0.41145  -0.36701
  Beta virt. eigenvalues --   -0.15782  -0.07706   0.00021   0.02149   0.02825
  Beta virt. eigenvalues --    0.04166   0.06523   0.07419   0.08583   0.10934
  Beta virt. eigenvalues --    0.11130   0.13373   0.13797   0.16210   0.18117

 Mulliken charges and spin densities:
               1          2
     1  C   -0.183660   0.815239
     2  C    0.320269   0.703327
     3  H    0.168507  -0.028862
     4  H    0.149300   0.040799
     5  O   -0.454417   0.469497
 Sum of Mulliken charges =  -0.00000   2.00000

 Dipole moment (field-independent basis, Debye):
    X=             -0.1269    Y=              2.7711    Z=             -0.0000  Tot=              2.7740
 Quadrupole moment (field-independent basis, Debye-Ang):
   XX=            -17.9848   YY=            -17.3530   ZZ=            -17.7648
   XY=             -0.2724   XZ=             -0.0000   YZ=              0.0000

  Exact polarizability:  28.969   0.759  38.517  -0.000  -0.000  21.236
 Approx polarizability:  38.523   5.016  55.814   0.000  -0.000  28.275

                      1                      2                      3
                     A"                     A'                     A"
 Frequencies --    392.3835               465.1113               801.0427
 Red. masses --      1.3830                 2.9730                 1.3745
 Frc consts  --      0.1255                 0.3789                 0.5197
 IR Inten    --      0.2098                 5.0071                32.4150

                      4                      5                      6
                     A'                     A'                     A'
 Frequencies --    993.3455              1063.3275              1438.9070
 Red. masses --      2.3223                 2.4944                 1.1520
 Frc consts  --      1.3501                 1.6617                 1.4053
 IR Inten    --      2.8778                17.5660                 4.9509

                      7                      8                      9
                     A'                     A'                     A'
 Frequencies --   1784.8246              3090.5512              3245.6095
 Red. masses --     12.4052                 1.0555                 1.1114
 Frc consts  --     23.2833                 5.9401                 6.8977
 IR Inten    --    100.9249                 9.0236                 0.8341

 - Thermochemistry -
 -------------------
 Temperature   298.150 Kelvin.  Pressure   1.00000 Atm.
 Atom     1 has atomic number  6 and mass  12.00000

 Molecular mass:    42.01056 amu.
 Principal axes and moments of inertia in atomic units:
                           1         2         3
     Eigenvalues --    15.86057 161.63542 177.49599
           X            0.09963   0.99502   0.00000
           Y            0.99502  -0.09963   0.00000
           Z            0.00000   0.00000   1.00000
 This molecule is an asymmetric top.
 Rotational symmetry number  1.
 Rotational temperatures (Kelvin)      5.46095     0.53586     0.48798
 Rotational constants (GHZ):         113.78789    11.16551    10.16779
 Zero-point vibrational energy      79402.7 (Joules/Mol)
                                   18.97771 (Kcal/Mol)
 Warning -- explicit consideration of   2 degrees of freedom as
           vibrations may cause significant error
 Vibrational temperatures:    564.55   669.19  1152.52  1429.20  1529.89
          (Kelvin)           2070.26  2567.96  4446.61  4669.70

 Zero-point correction=                           0.030243 (Hartree/Particle)
 Thermal correction to Energy=                    0.033796
 Thermal correction to Enthalpy=                  0.034740
 Thermal correction to Gibbs Free Energy=         0.005187
 Sum of electronic and zero-point Energies=           -152.548633
 Sum of electronic and thermal Energies=              -152.545080
 Sum of electronic and thermal Enthalpies=            -152.544135
 Sum of electronic and thermal Free Energies=         -152.573689

                     E (Thermal)             CV                S
                      KCal/Mol        Cal/Mol-Kelvin    Cal/Mol-Kelvin
 Total                   21.207             10.242             62.200
 Electronic               0.000              0.000              2.183
 Translational            0.889              2.981             37.133
 Rotational               0.889              2.981             20.748
 Vibrational             19.430              4.280              2.136
 Vibration     1          0.760              1.486              0.991
 Vibration     2          0.823              1.327              0.751

 Optimization completed.
    -- Stationary point found.
 Normal termination of Gaussian 09 at Fri Mar  1 08:38:45 2019.
