 Gaussian 09, Revision E.01,
 Gaussian 09:  EM64L-G09RevE.01 30-Nov-2015

 ------------------------------------------------------
 #p b3lyp/6-311++G(3df,2p) freq IOp(2/17=3) IOp(2/18=3)
 ------------------------------------------------------

 ---------
 b3lyp opt
 ---------
 Symbolic Z-matrix:
 Charge =  1 Multiplicity = 4

                         Standard orientation:
 ---------------------------------------------------------------------
 Center     Atomic      Atomic             Coordinates (Angstroms)
 Number     Number       Type             X           Y           Z
 ---------------------------------------------------------------------
      1          6           0        0.000000    1.339135   -0.000000
      2          6           0        0.480590    0.009894   -0.000000
      3          1           0       -1.005062    1.762566   -0.000000
      4          1           0       -1.083831   -1.169335    0.000000
      5          8           0       -0.099331   -1.085925    0.000000
 ---------------------------------------------------------------------

 SCF Done:  E(UB3LYP) =  -152.143183094     A.U. after   12 cycles

 The electronic state is 4-A".
 Alpha  occ. eigenvalues --  -19.52162 -10.60869 -10.55043  -1.44352  -1.07877
 Alpha  occ. eigenvalues --   -0.97311  -0.81330  -0.77573  -0.76480  -0.60333
 Alpha  occ. eigenvalues --   -0.57987  -0.54141
 Alpha virt. eigenvalues --   -0.30920  -0.22023  -0.15572  -0.13416  -0.11006
 Alpha virt. eigenvalues --   -0.09446  -0.07939  -0.07409  -0.05224  -0.05079
 Alpha virt. eigenvalues --   -0.02803  -0.00381  -0.00011   0.00810   0.02191

  Beta  occ. eigenvalues --  -19.51248 -10.58944 -10.52159  -1.42297  -1.01220
  Beta  occ. eigenvalues --   -0.94069  -0.77557  -0.73080  -0.72615
  Beta virt. eigenvalues --   -0.43081  -0.41922  -0.34205  -0.22999  -0.20489
  Beta virt. eigenvalues --   -0.14424  -0.12536  -0.10224  -0.08674  -0.06812
  Beta virt. eigenvalues --   -0.06332  -0.04435  -0.04418  -0.01356   0.00695

 Mulliken charges and spin densities:
               1          2
     1  C   -0.044776   1.669686
     2  C    0.721195   1.022658
     3  H    0.241003   0.046971
     4  H    0.346295   0.065030
     5  O   -0.263718   0.195654
 Sum of Mulliken charges =   1.00000   3.00000

 Dipole moment (field-independent basis, Debye):
    X=             -2.4049    Y=              1.0221    Z=              0.0000  Tot=              2.6131
 Quadrupole moment (field-independent basis, Debye-Ang):
   XX=            -11.3660   YY=             -8.8509   ZZ=            -15.3376
   XY=              0.8234   XZ=              0.0000   YZ=             -0.0000

  Exact polarizability:  20.984   0.205  33.230   0.000   0.000  15.494
 Approx polarizability:  28.651   1.247  49.538   0.000  -0.000  20.896

                      1                      2                      3
                     A'                     A"                     A"
 Frequencies --    455.8969               547.7763               754.8233
 Red. masses --      2.4248                 1.3775                 1.4850
 Frc consts  --      0.2969                 0.2435                 0.4985
 IR Inten    --      2.2898               115.0055                13.1405

                      4                      5                      6
                     A'                     A'                     A'
 Frequencies --    907.0006               992.6050              1223.3539
 Red. masses --      1.2277                 1.6716                 4.6598
 Frc consts  --      0.5951                 0.9704                 4.1089
 IR Inten    --     84.6769               148.6988                10.8821

                      7                      8                      9
                     A'                     A'                     A'
 Frequencies --   1642.3323              3121.3955              3452.4046
 Red. masses --     10.7665                 1.0922                 1.0647
 Frc consts  --     17.1099                 6.2700                 7.4769
 IR Inten    --    192.4144                48.0514               249.3523

 - Thermochemistry -
 -------------------
 Temperature   298.150 Kelvin.  Pressure   1.00000 Atm.
 Atom     1 has atomic number  6 and mass  12.00000

 Molecular mass:    42.01056 amu.
 Principal axes and moments of inertia in atomic units:
                           1         2         3
     Eigenvalues --    17.80709 160.43278 178.23987
           X            0.03264   0.99947   0.00000
           Y            0.99947  -0.03264   0.00000
           Z            0.00000   0.00000   1.00000
 This molecule is an asymmetric top.
 Rotational symmetry number  1.
 Rotational temperatures (Kelvin)      4.86401     0.53988     0.48594
 Rotational constants (GHZ):         101.34961    11.24920    10.12535
 Zero-point vibrational energy      78341.0 (Joules/Mol)
                                   18.72394 (Kcal/Mol)
 Warning -- explicit consideration of   2 degrees of freedom as
           vibrations may cause significant error
 Vibrational temperatures:    655.93   788.13  1086.02  1304.97  1428.14
          (Kelvin)           1760.13  2362.95  4490.99  4967.23

 Zero-point correction=                           0.029839 (Hartree/Particle)
 Thermal correction to Energy=                    0.033322
 Thermal correction to Enthalpy=                  0.034266
 Thermal correction to Gibbs Free Energy=         0.004524
 Sum of electronic and zero-point Energies=           -152.113345
 Sum of electronic and thermal Energies=              -152.109861
 Sum of electronic and thermal Enthalpies=            -152.108917
 Sum of electronic and thermal Free Energies=         -152.138659

                     E (Thermal)             CV                S
                      KCal/Mol        Cal/Mol-Kelvin    Cal/Mol-Kelvin
 Total                   20.910             10.293             62.598
 Electronic               0.000              0.000              2.755
 Translational            0.889              2.981             37.133
 Rotational               0.889              2.981             20.859
 Vibrational             19.132              4.332              1.850
 Vibration     1          0.814              1.348              0.778
 Vibration     2          0.903              1.145              0.549

 Normal termination of Gaussian 09 at Fri Mar  1 08:40:49 2019.
