 Gaussian 09, Revision E.01,
 Gaussian 09:  EM64L-G09RevE.01 30-Nov-2015

 ------------------------------------------------------
 #p b3lyp/6-311++G(3df,2p) freq IOp(2/17=3) IOp(2/18=3)
 ------------------------------------------------------

 ---------
 b3lyp opt
 ---------
 Symbolic Z-matrix:
 Charge =  0 Multiplicity = 1

                         Standard orientation:
 ---------------------------------------------------------------------
 Center     Atomic      Atomic             Coordinates (Angstroms)
 Number     Number       Type             X           Y           Z
 ---------------------------------------------------------------------
      1          6           0        0.000000    0.000000   -1.205229
      2          6           0       -0.000000   -0.000000    0.102713
      3          1           0        0.000000    0.936840   -1.738752
      4          1           0       -0.000000   -0.936840   -1.738752
      5          8           0       -0.000000   -0.000000    1.261583
 ---------------------------------------------------------------------

 SCF Done:  E(RB3LYP) =  -152.662697637     A.U. after   10 cycles

 The electronic state is 1-A1.
 Alpha  occ. eigenvalues --  -19.19562 -10.30039 -10.18303  -1.12920  -0.78708
 Alpha  occ. eigenvalues --   -0.54983  -0.49966  -0.49711  -0.46336  -0.41713
 Alpha  occ. eigenvalues --   -0.25536
 Alpha virt. eigenvalues --   -0.04725  -0.00986   0.02553   0.03140   0.03272
 Alpha virt. eigenvalues --    0.06840   0.08045   0.08776   0.10325   0.10943
 Alpha virt. eigenvalues --    0.13412   0.13969   0.14455   0.21949   0.23430

 Mulliken charges:
               1
     1  C   -0.342079
     2  C    0.596191
     3  H    0.167097
     4  H    0.167097
     5  O   -0.588307
 Sum of Mulliken charges =  -0.00000

 Dipole moment (field-independent basis, Debye):
    X=             -0.0000    Y=             -0.0000    Z=             -1.5201  Tot=              1.5201
 Quadrupole moment (field-independent basis, Debye-Ang):
   XX=            -19.1535   YY=            -15.4769   ZZ=            -18.2293
   XY=              0.0000   XZ=              0.0000   YZ=              0.0000

  Exact polarizability:  22.284   0.000  20.845   0.000  -0.000  41.965
 Approx polarizability:  28.547   0.000  28.578  -0.000   0.000  72.016

                      1                      2                      3
                     B2                     B1                     B1
 Frequencies --    446.3775               552.1423               594.2659
 Red. masses --      2.1986                 5.9339                 1.3593
 Frc consts  --      0.2581                 1.0658                 0.2828
 IR Inten    --      2.4853                49.9757                68.7806

                      4                      5                      6
                     B2                     A1                     A1
 Frequencies --    989.6725              1171.4720              1411.4083
 Red. masses --      1.9279                 2.5733                 1.4814
 Frc consts  --      1.1125                 2.0807                 1.7387
 IR Inten    --      4.4448                 4.8047                17.9334

                      7                      8                      9
                     A1                     A1                     B2
 Frequencies --   2218.3609              3176.2299              3268.4682
 Red. masses --     11.9644                 1.0555                 1.1172
 Frc consts  --     34.6900                 6.2739                 7.0317
 IR Inten    --    679.1608                29.5088                 8.9839

 - Thermochemistry -
 -------------------
 Temperature   298.150 Kelvin.  Pressure   1.00000 Atm.
 Atom     1 has atomic number  6 and mass  12.00000

 Molecular mass:    42.01056 amu.
 Principal axes and moments of inertia in atomic units:
                           1         2         3
     Eigenvalues --     6.31748 174.36217 180.67964
           X           -0.00000   0.00000   1.00000
           Y           -0.00000   1.00000  -0.00000
           Z            1.00000   0.00000   0.00000
 This molecule is an asymmetric top.
 Rotational symmetry number  2.
 Rotational temperatures (Kelvin)     13.71019     0.49675     0.47938
 Rotational constants (GHZ):         285.67438    10.35053     9.98862
 Zero-point vibrational energy      82712.2 (Joules/Mol)
                                   19.76869 (Kcal/Mol)
 Warning -- explicit consideration of   3 degrees of freedom as
           vibrations may cause significant error
 Vibrational temperatures:    642.24   794.41   855.02  1423.92  1685.48
          (Kelvin)           2030.70  3191.72  4569.88  4702.59

 Zero-point correction=                           0.031503 (Hartree/Particle)
 Thermal correction to Energy=                    0.035019
 Thermal correction to Enthalpy=                  0.035963
 Thermal correction to Gibbs Free Energy=         0.008572
 Sum of electronic and zero-point Energies=           -152.631194
 Sum of electronic and thermal Energies=              -152.627679
 Sum of electronic and thermal Enthalpies=            -152.626735
 Sum of electronic and thermal Free Energies=         -152.654126

                     E (Thermal)             CV                S
                      KCal/Mol        Cal/Mol-Kelvin    Cal/Mol-Kelvin
 Total                   21.975             10.229             57.649
 Electronic               0.000              0.000              0.000
 Translational            0.889              2.981             37.133
 Rotational               0.889              2.981             18.549
 Vibrational             20.197              4.268              1.968
 Vibration     1          0.806              1.369              0.807
 Vibration     2          0.907              1.135              0.540
 Vibration     3          0.952              1.044              0.460

 Optimization completed.
    -- Stationary point found.
 Normal termination of Gaussian 09 at Fri Mar  1 08:38:04 2019.
