 Gaussian 09, Revision E.01,
 Gaussian 09:  EM64L-G09RevE.01 30-Nov-2015

 ------------------------------------------------------
 #p b3lyp/6-311++G(3df,2p) freq IOp(2/17=3) IOp(2/18=3)
 ------------------------------------------------------

 ---------
 b3lyp opt
 ---------
 Symbolic Z-matrix:
 Charge =  0 Multiplicity = 1

                         Standard orientation:
 ---------------------------------------------------------------------
 Center     Atomic      Atomic             Coordinates (Angstroms)
 Number     Number       Type             X           Y           Z
 ---------------------------------------------------------------------
      1          6           0        1.180513    0.836873    0.000000
      2          6           0       -0.000000    0.291681   -0.000000
      3          1           0       -0.565490    1.251627   -0.000000
      4          1           0       -1.572565   -0.790067   -0.000000
      5          8           0       -0.618128   -0.904111   -0.000000
 ---------------------------------------------------------------------

 SCF Done:  E(RB3LYP) =  -152.523270483     A.U. after   11 cycles

 The electronic state is 1-A'.
 Alpha  occ. eigenvalues --  -19.20391 -10.24873 -10.22877  -1.10773  -0.79704
 Alpha  occ. eigenvalues --   -0.62064  -0.54137  -0.43623  -0.41422  -0.30295
 Alpha  occ. eigenvalues --   -0.27086
 Alpha virt. eigenvalues --   -0.11044  -0.02560   0.01515   0.02285   0.04952
 Alpha virt. eigenvalues --    0.05845   0.07647   0.08647   0.09996   0.11733
 Alpha virt. eigenvalues --    0.11861   0.12712   0.15451   0.18768   0.20368

 Mulliken charges:
               1
     1  C   -0.624955
     2  C    0.691689
     3  H    0.157714
     4  H    0.265675
     5  O   -0.490123
 Sum of Mulliken charges =  -0.00000

 Dipole moment (field-independent basis, Debye):
    X=             -3.7990    Y=             -0.4823    Z=             -0.0000  Tot=              3.8295
 Quadrupole moment (field-independent basis, Debye-Ang):
   XX=            -16.8180   YY=            -19.7414   ZZ=            -19.7575
   XY=             -2.7676   XZ=             -0.0000   YZ=              0.0000

  Exact polarizability:  35.788   6.200  29.847   0.000   0.000  23.236
 Approx polarizability:  56.971   8.175  42.869   0.000   0.000  30.721

                      1                      2                      3
                     A"                     A'                     A"
 Frequencies --    100.2656               200.1906               604.4022
 Red. masses --      1.0832                 4.5543                 2.2699
 Frc consts  --      0.0064                 0.1075                 0.4885
 IR Inten    --     71.1008                11.3307                21.6268

                      4                      5                      6
                     A'                     A'                     A'
 Frequencies --    921.7695              1109.4962              1277.7640
 Red. masses --      2.0140                 1.9023                 1.3002
 Frc consts  --      1.0082                 1.3797                 1.2507
 IR Inten    --     66.4514                23.3380               144.4379

                      7                      8                      9
                     A'                     A'                     A'
 Frequencies --   1837.8144              2901.8092              3849.3866
 Red. masses --      7.0451                 1.0761                 1.0672
 Frc consts  --     14.0197                 5.3389                 9.3172
 IR Inten    --     32.1563                35.9965               112.2506

 - Thermochemistry -
 -------------------
 Temperature   298.150 Kelvin.  Pressure   1.00000 Atm.
 Atom     1 has atomic number  6 and mass  12.00000

 Molecular mass:    42.01056 amu.
 Principal axes and moments of inertia in atomic units:
                           1         2         3
     Eigenvalues --    13.43539 165.99142 179.42681
           X            0.71402  -0.70013   0.00000
           Y            0.70013   0.71402   0.00000
           Z           -0.00000   0.00000   1.00000
 This molecule is an asymmetric top.
 Rotational symmetry number  1.
 Rotational temperatures (Kelvin)      6.44669     0.52180     0.48273
 Rotational constants (GHZ):         134.32737    10.87250    10.05837
 Zero-point vibrational energy      76578.3 (Joules/Mol)
                                   18.30266 (Kcal/Mol)
 Warning -- explicit consideration of   3 degrees of freedom as
           vibrations may cause significant error
 Vibrational temperatures:    144.26   288.03   869.60  1326.22  1596.32
          (Kelvin)           1838.42  2644.20  4175.05  5538.40

 Zero-point correction=                           0.029167 (Hartree/Particle)
 Thermal correction to Energy=                    0.033539
 Thermal correction to Enthalpy=                  0.034483
 Thermal correction to Gibbs Free Energy=         0.004076
 Sum of electronic and zero-point Energies=           -152.494103
 Sum of electronic and thermal Energies=              -152.489732
 Sum of electronic and thermal Enthalpies=            -152.488787
 Sum of electronic and thermal Free Energies=         -152.519194

                     E (Thermal)             CV                S
                      KCal/Mol        Cal/Mol-Kelvin    Cal/Mol-Kelvin
 Total                   21.046             11.697             63.996
 Electronic               0.000              0.000              0.000
 Translational            0.889              2.981             37.133
 Rotational               0.889              2.981             20.620
 Vibrational             19.269              5.736              6.243
 Vibration     1          0.604              1.949              3.449
 Vibration     2          0.638              1.840              2.131
 Vibration     3          0.963              1.022              0.442

 Optimization completed.
    -- Stationary point found.
 Normal termination of Gaussian 09 at Sun Mar  3 15:35:43 2019.
