 Gaussian 09, Revision E.01,
 Gaussian 09:  EM64L-G09RevE.01 30-Nov-2015

 ------------------------------------------------------
 #p b3lyp/6-311++G(3df,2p) freq IOp(2/17=3) IOp(2/18=3)
 ------------------------------------------------------

 ---------
 b3lyp opt
 ---------
 Symbolic Z-matrix:
 Charge =  1 Multiplicity = 4

                         Standard orientation:
 ---------------------------------------------------------------------
 Center     Atomic      Atomic             Coordinates (Angstroms)
 Number     Number       Type             X           Y           Z
 ---------------------------------------------------------------------
      1          6           0        0.279340   -1.253971    0.000000
      2          6           0       -0.451114   -0.047695   -0.000000
      3          1           0        0.053981   -2.312733   -0.000000
      4          1           0        0.976662    1.280775    0.000000
      5          8           0        0.000000    1.105244    0.000000
 ---------------------------------------------------------------------

 SCF Done:  E(UB3LYP) =  -152.132357442     A.U. after   12 cycles

 The electronic state is 4-A".
 Alpha  occ. eigenvalues --  -19.51990 -10.60830 -10.54701  -1.44221  -1.07750
 Alpha  occ. eigenvalues --   -0.96891  -0.81845  -0.76473  -0.75758  -0.64273
 Alpha  occ. eigenvalues --   -0.57909  -0.51635
 Alpha virt. eigenvalues --   -0.30913  -0.21136  -0.15691  -0.12261  -0.11246
 Alpha virt. eigenvalues --   -0.11023  -0.09119  -0.06674  -0.05426  -0.05204
 Alpha virt. eigenvalues --   -0.03182  -0.00881  -0.00746   0.00084   0.03670

  Beta  occ. eigenvalues --  -19.51102 -10.58903 -10.51845  -1.42254  -1.01028
  Beta  occ. eigenvalues --   -0.93674  -0.78578  -0.72510  -0.71229
  Beta virt. eigenvalues --   -0.44886  -0.43077  -0.32644  -0.22982  -0.19063
  Beta virt. eigenvalues --   -0.14564  -0.11099  -0.10257  -0.10101  -0.07803
  Beta virt. eigenvalues --   -0.06134  -0.04534  -0.04448  -0.01883  -0.00269

 Mulliken charges and spin densities:
               1          2
     1  C   -0.096394   1.694787
     2  C    0.744229   1.036823
     3  H    0.269542   0.008158
     4  H    0.347880   0.077623
     5  O   -0.265257   0.182608
 Sum of Mulliken charges =   1.00000   3.00000

 Dipole moment (field-independent basis, Debye):
    X=              1.4407    Y=             -1.3696    Z=              0.0000  Tot=              1.9878
 Quadrupole moment (field-independent basis, Debye-Ang):
   XX=            -13.2581   YY=             -5.8388   ZZ=            -15.3496
   XY=              2.6539   XZ=             -0.0000   YZ=              0.0000

  Exact polarizability:  19.957   0.468  34.356   0.000  -0.000  15.349
 Approx polarizability:  27.284   0.682  49.464   0.000   0.000  20.394

                      1                      2                      3
                     A'                     A"                     A"
 Frequencies --    432.9116               560.8255               586.9009
 Red. masses --      2.3888                 1.5060                 1.1445
 Frc consts  --      0.2638                 0.2791                 0.2323
 IR Inten    --     14.0463               106.5175                34.8516

                      4                      5                      6
                     A'                     A'                     A'
 Frequencies --    806.8352               975.6249              1233.8456
 Red. masses --      1.3620                 1.4654                 5.4069
 Frc consts  --      0.5224                 0.8218                 4.8498
 IR Inten    --     19.9624               232.8217                18.7156

                      7                      8                      9
                     A'                     A'                     A'
 Frequencies --   1635.8040              3214.4595              3379.5952
 Red. masses --     10.9043                 1.0950                 1.0632
 Frc consts  --     17.1914                 6.6664                 7.1550
 IR Inten    --    160.4652               118.7647               217.8702

 - Thermochemistry -
 -------------------
 Temperature   298.150 Kelvin.  Pressure   1.00000 Atm.
 Atom     1 has atomic number  6 and mass  12.00000

 Molecular mass:    42.01056 amu.
 Principal axes and moments of inertia in atomic units:
                           1         2         3
     Eigenvalues --    14.74860 162.99171 177.74031
           X           -0.06725   0.99774   0.00000
           Y            0.99774   0.06725   0.00000
           Z           -0.00000  -0.00000   1.00000
 This molecule is an asymmetric top.
 Rotational symmetry number  1.
 Rotational temperatures (Kelvin)      5.87268     0.53140     0.48731
 Rotational constants (GHZ):         122.36691    11.07260    10.15381
 Zero-point vibrational energy      76721.3 (Joules/Mol)
                                   18.33683 (Kcal/Mol)
 Warning -- explicit consideration of   3 degrees of freedom as
           vibrations may cause significant error
 Vibrational temperatures:    622.86   806.90   844.42  1160.85  1403.70
          (Kelvin)           1775.23  2353.55  4624.88  4862.48

 Zero-point correction=                           0.029222 (Hartree/Particle)
 Thermal correction to Energy=                    0.032817
 Thermal correction to Enthalpy=                  0.033762
 Thermal correction to Gibbs Free Energy=         0.003940
 Sum of electronic and zero-point Energies=           -152.103136
 Sum of electronic and thermal Energies=              -152.099540
 Sum of electronic and thermal Enthalpies=            -152.098596
 Sum of electronic and thermal Free Energies=         -152.128417

                     E (Thermal)             CV                S
                      KCal/Mol        Cal/Mol-Kelvin    Cal/Mol-Kelvin
 Total                   20.593             10.810             62.765
 Electronic               0.000              0.000              2.755
 Translational            0.889              2.981             37.133
 Rotational               0.889              2.981             20.685
 Vibrational             18.816              4.849              2.192
 Vibration     1          0.794              1.399              0.849
 Vibration     2          0.916              1.116              0.522
 Vibration     3          0.944              1.060              0.473

 Optimization completed.
    -- Stationary point found.
 Normal termination of Gaussian 09 at Fri Mar  1 08:38:43 2019.
