 Gaussian 09, Revision E.01,
 Gaussian 09:  EM64L-G09RevE.01 30-Nov-2015

 ------------------------------------------------------
 #p b3lyp/6-311++G(3df,2p) freq IOp(2/17=3) IOp(2/18=3)
 ------------------------------------------------------

 ---------
 b3lyp opt
 ---------
 Symbolic Z-matrix:
 Charge =  0 Multiplicity = 1

                         Standard orientation:
 ---------------------------------------------------------------------
 Center     Atomic      Atomic             Coordinates (Angstroms)
 Number     Number       Type             X           Y           Z
 ---------------------------------------------------------------------
      1          6           0        0.000000    1.319514    0.000000
      2          6           0       -0.005188    0.122803   -0.000000
      3          1           0        0.011753    2.379437    0.000000
      4          1           0        0.780606   -1.585546    0.000000
      5          8           0       -0.095154   -1.180974   -0.000000
 ---------------------------------------------------------------------

 SCF Done:  E(RB3LYP) =  -152.603818128     A.U. after   11 cycles

 The electronic state is 1-A'.
 Alpha  occ. eigenvalues --  -19.20594 -10.23167 -10.16356  -1.11390  -0.75489
 Alpha  occ. eigenvalues --   -0.63581  -0.52298  -0.47715  -0.43700  -0.28261
 Alpha  occ. eigenvalues --   -0.26200
 Alpha virt. eigenvalues --   -0.02800   0.01217   0.03511   0.04990   0.05649
 Alpha virt. eigenvalues --    0.06869   0.07303   0.08982   0.10551   0.12086
 Alpha virt. eigenvalues --    0.12565   0.15466   0.17245   0.19259   0.22537

 Mulliken charges:
               1
     1  C    0.009917
     2  C   -0.076116
     3  H    0.314855
     4  H    0.279980
     5  O   -0.528635
 Sum of Mulliken charges =  -0.00000

 Dipole moment (field-independent basis, Debye):
    X=              1.5004    Y=             -0.7180    Z=              0.0000  Tot=              1.6633
 Quadrupole moment (field-independent basis, Debye-Ang):
   XX=            -17.1801   YY=            -12.7584   ZZ=            -19.0279
   XY=             -2.9009   XZ=             -0.0000   YZ=              0.0000

  Exact polarizability:  21.866  -0.924  41.398  -0.000  -0.000  21.436
 Approx polarizability:  29.225  -0.926  68.929   0.000   0.000  27.581

                      1                      2                      3
                     A'                     A"                     A"
 Frequencies --    405.2401               445.0209               547.0993
 Red. masses --      4.9043                 9.4687                 1.1612
 Frc consts  --      0.4745                 1.1048                 0.2048
 IR Inten    --     13.0524                 2.7107                66.8417

                      4                      5                      6
                     A'                     A'                     A'
 Frequencies --    651.5131              1086.3993              1245.8713
 Red. masses --      1.1945                 9.4037                 1.1776
 Frc consts  --      0.2987                 6.5393                 1.0770
 IR Inten    --     50.0331                98.3577                85.4072

                      7                      8                      9
                     A'                     A'                     A'
 Frequencies --   2275.7290              3478.5926              3786.2335
 Red. masses --      6.1142                 1.1605                 1.0661
 Frc consts  --     18.6565                 8.2738                 9.0047
 IR Inten    --    162.7796                99.9688               114.1987

 - Thermochemistry -
 -------------------
 Temperature   298.150 Kelvin.  Pressure   1.00000 Atm.
 Atom     1 has atomic number  6 and mass  12.00000

 Molecular mass:    42.01056 amu.
 Principal axes and moments of inertia in atomic units:
                           1         2         3
     Eigenvalues --     2.63769 184.31571 186.95340
           X            0.01093   0.99994   0.00000
           Y            0.99994  -0.01093   0.00000
           Z           -0.00000  -0.00000   1.00000
 This molecule is an asymmetric top.
 Rotational symmetry number  1.
 Rotational temperatures (Kelvin)     32.83699     0.46992     0.46329
 Rotational constants (GHZ):         684.21269     9.79158     9.65343
 Zero-point vibrational energy      83270.3 (Joules/Mol)
                                   19.90207 (Kcal/Mol)
 Warning -- explicit consideration of   3 degrees of freedom as
           vibrations may cause significant error
 Vibrational temperatures:    583.05   640.29   787.15   937.38  1563.08
          (Kelvin)           1792.53  3274.26  5004.91  5447.54

 Zero-point correction=                           0.031716 (Hartree/Particle)
 Thermal correction to Energy=                    0.035487
 Thermal correction to Enthalpy=                  0.036431
 Thermal correction to Gibbs Free Energy=         0.008372
 Sum of electronic and zero-point Energies=           -152.572102
 Sum of electronic and thermal Energies=              -152.568332
 Sum of electronic and thermal Enthalpies=            -152.567387
 Sum of electronic and thermal Free Energies=         -152.595446

                     E (Thermal)             CV                S
                      KCal/Mol        Cal/Mol-Kelvin    Cal/Mol-Kelvin
 Total                   22.268             11.336             59.055
 Electronic               0.000              0.000              0.000
 Translational            0.889              2.981             37.133
 Rotational               0.889              2.981             19.147
 Vibrational             20.491              5.374              2.774
 Vibration     1          0.770              1.459              0.944
 Vibration     2          0.804              1.372              0.811
 Vibration     3          0.902              1.146              0.550

 Optimization completed.
    -- Stationary point found.
 Normal termination of Gaussian 09 at Fri Mar  1 08:38:18 2019.
