 Gaussian 09, Revision E.01,
 Gaussian 09:  EM64L-G09RevE.01 30-Nov-2015

 ------------------------------------------------------
 #p b3lyp/6-311++G(3df,2p) freq IOp(2/17=3) IOp(2/18=3)
 ------------------------------------------------------

 ---------
 b3lyp opt
 ---------
 Symbolic Z-matrix:
 Charge =  1 Multiplicity = 4

                         Standard orientation:
 ---------------------------------------------------------------------
 Center     Atomic      Atomic             Coordinates (Angstroms)
 Number     Number       Type             X           Y           Z
 ---------------------------------------------------------------------
      1          6           0        0.372276   -0.074984   -0.000000
      2          6           0       -0.000000    1.263013    0.000000
      3          1           0       -0.905910    1.858618    0.000000
      4          1           0        1.461113   -0.341139   -0.000000
      5          8           0       -0.348608   -1.080706    0.000000
 ---------------------------------------------------------------------

 SCF Done:  E(UB3LYP) =  -152.158204817     A.U. after   13 cycles

 The electronic state is 4-A".
 Alpha  occ. eigenvalues --  -19.56839 -10.59267 -10.55259  -1.45093  -1.08672
 Alpha  occ. eigenvalues --   -0.91090  -0.83317  -0.81115  -0.77904  -0.68356
 Alpha  occ. eigenvalues --   -0.58862  -0.58023
 Alpha virt. eigenvalues --   -0.31077  -0.18558  -0.16115  -0.13600  -0.11498
 Alpha virt. eigenvalues --   -0.10016  -0.09096  -0.06506  -0.05678  -0.05024
 Alpha virt. eigenvalues --   -0.01900  -0.00855  -0.00639   0.00185   0.03740

  Beta  occ. eigenvalues --  -19.53595 -10.59257 -10.52430  -1.38600  -1.01983
  Beta  occ. eigenvalues --   -0.85938  -0.78640  -0.76199  -0.72119
  Beta virt. eigenvalues --   -0.48886  -0.44070  -0.37919  -0.25138  -0.17616
  Beta virt. eigenvalues --   -0.15190  -0.12535  -0.10967  -0.09023  -0.07587
  Beta virt. eigenvalues --   -0.05438  -0.04821  -0.04588  -0.01322  -0.00212

 Mulliken charges and spin densities:
               1          2
     1  C    0.570337   0.019767
     2  C   -0.033230   1.693781
     3  H    0.288520   0.011683
     4  H    0.289118   0.157334
     5  O   -0.114744   1.117436
 Sum of Mulliken charges =   1.00000   3.00000

 Dipole moment (field-independent basis, Debye):
    X=              0.9561    Y=              1.7439    Z=             -0.0000  Tot=              1.9888
 Quadrupole moment (field-independent basis, Debye-Ang):
   XX=            -11.0403   YY=             -9.5699   ZZ=            -15.2539
   XY=             -2.8917   XZ=              0.0000   YZ=              0.0000

  Exact polarizability:  21.093  -0.322  31.712   0.000   0.000  14.942
 Approx polarizability:  30.143   3.695  49.105  -0.000   0.000  20.030

                      1                      2                      3
                     A'                     A"                     A'
 Frequencies --    470.4699               672.8596               784.3647
 Red. masses --      2.8746                 1.3435                 1.5325
 Frc consts  --      0.3749                 0.3584                 0.5555
 IR Inten    --     27.4479                29.6097                11.2828

                      4                      5                      6
                     A"                     A'                     A'
 Frequencies --    817.3104              1133.2883              1191.1138
 Red. masses --      1.5987                 1.0913                 7.3688
 Frc consts  --      0.6292                 0.8258                 6.1596
 IR Inten    --     13.7887                18.6243                 3.0818

                      7                      8                      9
                     A'                     A'                     A'
 Frequencies --   1464.5341              2775.9141              3200.3406
 Red. masses --     10.9794                 1.0722                 1.0975
 Frc consts  --     13.8748                 4.8678                 6.6229
 IR Inten    --     30.9035               162.7824               122.7840

 - Thermochemistry -
 -------------------
 Temperature   298.150 Kelvin.  Pressure   1.00000 Atm.
 Atom     1 has atomic number  6 and mass  12.00000

 Molecular mass:    42.01056 amu.
 Principal axes and moments of inertia in atomic units:
                           1         2         3
     Eigenvalues --    22.26873 149.19362 171.46235
           X            0.09816   0.99517   0.00000
           Y            0.99517  -0.09816   0.00000
           Z           -0.00000   0.00000   1.00000
 This molecule is an asymmetric top.
 Rotational symmetry number  1.
 Rotational temperatures (Kelvin)      3.88948     0.58055     0.50515
 Rotational constants (GHZ):          81.04376    12.09664    10.52558
 Zero-point vibrational energy      74827.6 (Joules/Mol)
                                   17.88422 (Kcal/Mol)
 Warning -- explicit consideration of   1 degrees of freedom as
           vibrations may cause significant error
 Vibrational temperatures:    676.90   968.09  1128.52  1175.93  1630.55
          (Kelvin)           1713.74  2107.14  3993.92  4604.57

 Zero-point correction=                           0.028500 (Hartree/Particle)
 Thermal correction to Energy=                    0.031905
 Thermal correction to Enthalpy=                  0.032850
 Thermal correction to Gibbs Free Energy=         0.003173
 Sum of electronic and zero-point Energies=           -152.129704
 Sum of electronic and thermal Energies=              -152.126299
 Sum of electronic and thermal Enthalpies=            -152.125355
 Sum of electronic and thermal Free Energies=         -152.155032

                     E (Thermal)             CV                S
                      KCal/Mol        Cal/Mol-Kelvin    Cal/Mol-Kelvin
 Total                   20.021             10.008             62.460
 Electronic               0.000              0.000              2.755
 Translational            0.889              2.981             37.133
 Rotational               0.889              2.981             20.971
 Vibrational             18.243              4.046              1.601
 Vibration     1          0.827              1.316              0.736

 Optimization completed.
    -- Stationary point found.
 Normal termination of Gaussian 09 at Fri Mar  1 08:40:48 2019.
