 Gaussian 09, Revision E.01,
 Gaussian 09:  EM64L-G09RevE.01 30-Nov-2015

 ------------------------------------------------------
 #p b3lyp/6-311++G(3df,2p) freq IOp(2/17=3) IOp(2/18=3)
 ------------------------------------------------------

 ---------
 b3lyp opt
 ---------
 Symbolic Z-matrix:
 Charge =  1 Multiplicity = 4

                         Standard orientation:
 ---------------------------------------------------------------------
 Center     Atomic      Atomic             Coordinates (Angstroms)
 Number     Number       Type             X           Y           Z
 ---------------------------------------------------------------------
      1          6           0        0.707879    0.886615   -0.000000
      2          6           0        0.294539   -0.424107    0.000000
      3          1           0        1.778667    1.120060   -0.000000
      4          1           0        0.000000    1.726514   -0.000000
      5          8           0       -0.974147   -0.702703    0.000000
 ---------------------------------------------------------------------

 SCF Done:  E(UB3LYP) =  -152.121761971     A.U. after   14 cycles

 The electronic state is 4-A".
 Alpha  occ. eigenvalues --  -19.57637 -10.61192 -10.53836  -1.43477  -1.09576
 Alpha  occ. eigenvalues --   -0.88553  -0.82365  -0.80152  -0.76957  -0.72706
 Alpha  occ. eigenvalues --   -0.59561  -0.58382
 Alpha virt. eigenvalues --   -0.32162  -0.17746  -0.15665  -0.13328  -0.11445
 Alpha virt. eigenvalues --   -0.11305  -0.08838  -0.08263  -0.05519  -0.03473
 Alpha virt. eigenvalues --   -0.02917  -0.01415  -0.00752   0.00133   0.02763

  Beta  occ. eigenvalues --  -19.54139 -10.59339 -10.52606  -1.35355  -1.04134
  Beta  occ. eigenvalues --   -0.83664  -0.76719  -0.73513  -0.70237
  Beta virt. eigenvalues --   -0.54648  -0.45493  -0.37161  -0.25243  -0.16787
  Beta virt. eigenvalues --   -0.14296  -0.12818  -0.10549  -0.10474  -0.07505
  Beta virt. eigenvalues --   -0.07356  -0.04910  -0.02564  -0.02116  -0.01073

 Mulliken charges and spin densities:
               1          2
     1  C   -0.072904   0.645908
     2  C    0.602647   1.043341
     3  H    0.256400   0.040997
     4  H    0.253345   0.054500
     5  O   -0.039488   1.215254
 Sum of Mulliken charges =   1.00000   3.00000

 Dipole moment (field-independent basis, Debye):
    X=              1.9407    Y=              1.8512    Z=             -0.0000  Tot=              2.6820
 Quadrupole moment (field-independent basis, Debye-Ang):
   XX=            -11.0247   YY=             -8.9623   ZZ=            -15.3233
   XY=              2.8627   XZ=             -0.0000   YZ=             -0.0000

  Exact polarizability:  27.340   7.891  29.229   0.000  -0.000  15.514
 Approx polarizability:  44.471  16.854  47.761  -0.000  -0.000  20.819

                      1                      2                      3
                     A'                     A"                     A'
 Frequencies --    381.8488               577.1728               800.7580
 Red. masses --      2.9170                 1.2596                 1.6600
 Frc consts  --      0.2506                 0.2472                 0.6271
 IR Inten    --      2.2213                 0.8808                 6.4346

                      4                      5                      6
                     A"                     A'                     A'
 Frequencies --    882.7692              1236.9006              1306.1942
 Red. masses --      1.3810                 3.3996                 1.3700
 Frc consts  --      0.6341                 3.0644                 1.3771
 IR Inten    --     40.4011                10.6894                76.2386

                      7                      8                      9
                     A'                     A'                     A'
 Frequencies --   1469.5704              2971.4548              3069.9574
 Red. masses --      6.9073                 1.0514                 1.1103
 Frc consts  --      8.7890                 5.4698                 6.1651
 IR Inten    --     32.4271               244.5969               151.6339

 - Thermochemistry -
 -------------------
 Temperature   298.150 Kelvin.  Pressure   1.00000 Atm.
 Atom     1 has atomic number  6 and mass  12.00000

 Molecular mass:    42.01056 amu.
 Principal axes and moments of inertia in atomic units:
                           1         2         3
     Eigenvalues --    19.87650 154.80621 174.68272
           X            0.72356  -0.69026  -0.00000
           Y            0.69026   0.72356   0.00000
           Z           -0.00000  -0.00000   1.00000
 This molecule is an asymmetric top.
 Rotational symmetry number  1.
 Rotational temperatures (Kelvin)      4.35760     0.55950     0.49584
 Rotational constants (GHZ):          90.79772    11.65807    10.33154
 Zero-point vibrational energy      75942.7 (Joules/Mol)
                                   18.15074 (Kcal/Mol)
 Warning -- explicit consideration of   2 degrees of freedom as
           vibrations may cause significant error
 Vibrational temperatures:    549.39   830.42  1152.11  1270.11  1779.62
          (Kelvin)           1879.32  2114.38  4275.26  4416.98

 Zero-point correction=                           0.028925 (Hartree/Particle)
 Thermal correction to Energy=                    0.032425
 Thermal correction to Enthalpy=                  0.033369
 Thermal correction to Gibbs Free Energy=         0.003552
 Sum of electronic and zero-point Energies=           -152.092837
 Sum of electronic and thermal Energies=              -152.089337
 Sum of electronic and thermal Enthalpies=            -152.088393
 Sum of electronic and thermal Free Energies=         -152.118210

                     E (Thermal)             CV                S
                      KCal/Mol        Cal/Mol-Kelvin    Cal/Mol-Kelvin
 Total                   20.347             10.135             62.755
 Electronic               0.000              0.000              2.755
 Translational            0.889              2.981             37.133
 Rotational               0.889              2.981             20.913
 Vibrational             18.569              4.174              1.954
 Vibration     1          0.751              1.509              1.032
 Vibration     2          0.934              1.081              0.491

 Optimization completed.
    -- Stationary point found.
 Normal termination of Gaussian 09 at Fri Mar  1 08:38:47 2019.
