 Gaussian 09, Revision E.01,
 Gaussian 09:  EM64L-G09RevE.01 30-Nov-2015

 ------------------------------------------------------
 #p b3lyp/6-311++G(3df,2p) freq IOp(2/17=3) IOp(2/18=3)
 ------------------------------------------------------

 ---------
 b3lyp opt
 ---------
 Symbolic Z-matrix:
 Charge =  1 Multiplicity = 2

                         Standard orientation:
 ---------------------------------------------------------------------
 Center     Atomic      Atomic             Coordinates (Angstroms)
 Number     Number       Type             X           Y           Z
 ---------------------------------------------------------------------
      1          6           0        0.011934    1.322049    0.000000
      2          6           0       -0.012728    0.085517    0.000000
      3          1           0        0.000000    2.395776    0.000000
      4          1           0       -0.745121   -1.662602   -0.000000
      5          8           0        0.093736   -1.147321   -0.000000
 ---------------------------------------------------------------------

 SCF Done:  E(UB3LYP) =  -152.242232002     A.U. after   14 cycles

 The electronic state is 2-A".
 Alpha  occ. eigenvalues --  -19.52830 -10.57866 -10.52300  -1.44376  -1.09144
 Alpha  occ. eigenvalues --   -0.95623  -0.81924  -0.77947  -0.77007  -0.59276
 Alpha  occ. eigenvalues --   -0.58218
 Alpha virt. eigenvalues --   -0.25268  -0.24720  -0.23152  -0.15292  -0.13602
 Alpha virt. eigenvalues --   -0.10894  -0.10884  -0.08859  -0.06909  -0.05534
 Alpha virt. eigenvalues --   -0.03016  -0.01581  -0.00037   0.00648   0.03642

  Beta  occ. eigenvalues --  -19.52192 -10.57629 -10.51295  -1.43201  -1.05822
  Beta  occ. eigenvalues --   -0.94858  -0.80875  -0.77398  -0.72940  -0.57200
  Beta virt. eigenvalues --   -0.46127  -0.24744  -0.22728  -0.19859  -0.14714
  Beta virt. eigenvalues --   -0.13109  -0.10709  -0.10312  -0.08474  -0.06841
  Beta virt. eigenvalues --   -0.04808  -0.02865  -0.01391   0.00290   0.00823

 Mulliken charges and spin densities:
               1          2
     1  C    0.297097   0.665845
     2  C    0.281624   0.149784
     3  H    0.417053  -0.016770
     4  H    0.359400  -0.008837
     5  O   -0.355173   0.209978
 Sum of Mulliken charges =   1.00000   1.00000

 Dipole moment (field-independent basis, Debye):
    X=             -1.6147    Y=              0.7931    Z=             -0.0000  Tot=              1.7990
 Quadrupole moment (field-independent basis, Debye-Ang):
   XX=            -14.6468   YY=             -1.1196   ZZ=            -14.8818
   XY=              3.2032   XZ=             -0.0000   YZ=              0.0000

  Exact polarizability:  15.989   1.189  37.442   0.000   0.000  14.391
 Approx polarizability:  21.029   1.253  63.206   0.000   0.000  19.081

                      1                      2                      3
                     A'                     A"                     A'
 Frequencies --    387.4932               452.1265               606.0296
 Red. masses --      5.6063                 3.4460                 1.1522
 Frc consts  --      0.4960                 0.4150                 0.2493
 IR Inten    --     11.8104                 6.0898                60.1084

                      4                      5                      6
                     A"                     A'                     A'
 Frequencies --    626.7798              1165.2525              1213.3173
 Red. masses --      1.4237                 1.3675                 4.4845
 Frc consts  --      0.3295                 1.0940                 3.8897
 IR Inten    --     15.2977               238.5468                22.5023

                      7                      8                      9
                     A'                     A'                     A'
 Frequencies --   2199.2768              3346.4093              3542.6858
 Red. masses --      6.8856                 1.1508                 1.0672
 Frc consts  --     19.6224                 7.5927                 7.8915
 IR Inten    --     35.3179               267.1755               412.7403

 - Thermochemistry -
 -------------------
 Temperature   298.150 Kelvin.  Pressure   1.00000 Atm.
 Atom     1 has atomic number  6 and mass  12.00000

 Molecular mass:    42.01056 amu.
 Principal axes and moments of inertia in atomic units:
                           1         2         3
     Eigenvalues --     2.46100 180.96767 183.42867
           X           -0.00566   0.99998   0.00000
           Y            0.99998   0.00566  -0.00000
           Z            0.00000   0.00000   1.00000
 This molecule is an asymmetric top.
 Rotational symmetry number  1.
 Rotational temperatures (Kelvin)     35.19459     0.47861     0.47219
 Rotational constants (GHZ):         733.33717     9.97273     9.83893
 Zero-point vibrational energy      80983.4 (Joules/Mol)
                                   19.35550 (Kcal/Mol)
 Warning -- explicit consideration of   3 degrees of freedom as
           vibrations may cause significant error
 Vibrational temperatures:    557.52   650.51   871.94   901.80  1676.54
          (Kelvin)           1745.69  3164.26  4814.73  5097.13

 Zero-point correction=                           0.030845 (Hartree/Particle)
 Thermal correction to Energy=                    0.034599
 Thermal correction to Enthalpy=                  0.035543
 Thermal correction to Gibbs Free Energy=         0.006901
 Sum of electronic and zero-point Energies=           -152.211387
 Sum of electronic and thermal Energies=              -152.207633
 Sum of electronic and thermal Enthalpies=            -152.206689
 Sum of electronic and thermal Free Energies=         -152.235331

                     E (Thermal)             CV                S
                      KCal/Mol        Cal/Mol-Kelvin    Cal/Mol-Kelvin
 Total                   21.711             11.240             60.283
 Electronic               0.000              0.000              1.377
 Translational            0.889              2.981             37.133
 Rotational               0.889              2.981             19.041
 Vibrational             19.934              5.278              2.732
 Vibration     1          0.756              1.497              1.010
 Vibration     2          0.811              1.356              0.789
 Vibration     3          0.965              1.019              0.439

 Optimization completed.
    -- Stationary point found.
 Normal termination of Gaussian 09 at Fri Mar  1 08:38:41 2019.
