 Gaussian 09, Revision E.01,
 Gaussian 09:  EM64L-G09RevE.01 30-Nov-2015

 ------------------------------------------------------
 #p b3lyp/6-311++G(3df,2p) freq IOp(2/17=3) IOp(2/18=3)
 ------------------------------------------------------

 ---------
 b3lyp opt
 ---------
 Symbolic Z-matrix:
 Charge =  1 Multiplicity = 4

                         Standard orientation:
 ---------------------------------------------------------------------
 Center     Atomic      Atomic             Coordinates (Angstroms)
 Number     Number       Type             X           Y           Z
 ---------------------------------------------------------------------
      1          6           0       -1.903368   -0.333680   -0.044811
      2          6           0       -0.792895    0.086302    0.070761
      3          6           0        1.563700   -0.468964   -0.179961
      4          1           0        0.677887    1.419706   -0.151603
      5          1           0        2.087672   -0.891770    0.678206
      6          8           0        0.503727    0.471265    0.049682
 ---------------------------------------------------------------------

 SCF Done:  E(UB3LYP) =  -190.062693990     A.U. after   21 cycles

 The electronic state is 4-A.
 Alpha  occ. eigenvalues --  -19.58581 -10.54542 -10.48692 -10.48433  -1.47368
 Alpha  occ. eigenvalues --   -1.05077  -1.01009  -0.95785  -0.81583  -0.78567
 Alpha  occ. eigenvalues --   -0.62641  -0.58075  -0.55795  -0.53033  -0.52127
 Alpha virt. eigenvalues --   -0.26428  -0.22189  -0.18643  -0.15144  -0.14744
 Alpha virt. eigenvalues --   -0.11925  -0.10134  -0.07982  -0.07232  -0.06664
 Alpha virt. eigenvalues --   -0.06167  -0.04903  -0.04699  -0.03517  -0.02142

  Beta  occ. eigenvalues --  -19.58270 -10.51330 -10.48538 -10.46091  -1.46412
  Beta  occ. eigenvalues --   -1.03198  -0.98030  -0.93827  -0.78812  -0.75287
  Beta  occ. eigenvalues --   -0.54236  -0.52404
  Beta virt. eigenvalues --   -0.40590  -0.36741  -0.32270  -0.25323  -0.19412
  Beta virt. eigenvalues --   -0.16167  -0.14057  -0.13048  -0.10699  -0.09390
  Beta virt. eigenvalues --   -0.07490  -0.06137  -0.05176  -0.05059  -0.04075

 Mulliken charges and spin densities:
               1          2
     1  C   -0.025422   1.430353
     2  C    0.484546  -0.383098
     3  C    0.123090   1.874664
     4  H    0.377977   0.006863
     5  H    0.266127   0.060808
     6  O   -0.226317   0.010410
 Sum of Mulliken charges =   1.00000   3.00000

 Dipole moment (field-independent basis, Debye):
    X=              2.3030    Y=              1.5592    Z=              0.3201  Tot=              2.7995
 Quadrupole moment (field-independent basis, Debye-Ang):
   XX=             -9.2988   YY=            -15.4973   ZZ=            -21.0701
   XY=              0.8884   XZ=              1.1399   YZ=             -1.2885

  Exact polarizability:  49.796   0.231  28.353   2.070   0.334  25.954
 Approx polarizability:  73.400   6.673  39.481   3.303   1.524  32.350

                      1                      2                      3
                      A                      A                      A
 Frequencies --    141.9132               156.0005               270.6036
 Red. masses --      4.8809                 5.2414                 1.6635
 Frc consts  --      0.0579                 0.0752                 0.0718
 IR Inten    --      2.4363                 7.2368                60.7278

                      4                      5                      6
                      A                      A                      A
 Frequencies --    352.7586               475.6284               882.5208
 Red. masses --      1.5009                 3.1194                 7.2608
 Frc consts  --      0.1100                 0.4158                 3.3318
 IR Inten    --     66.8996                59.9954                51.8220

                      7                      8                      9
                      A                      A                      A
 Frequencies --    996.9315              1092.6199              1388.8428
 Red. masses --      3.9303                 1.3531                 1.1580
 Frc consts  --      2.3015                 0.9517                 1.3160
 IR Inten    --     13.1459                46.1990                68.4157

                     10                     11                     12
                      A                      A                      A
 Frequencies --   2246.7638              3112.9029              3508.1210
 Red. masses --     11.9320                 1.0897                 1.0671
 Frc consts  --     35.4878                 6.2213                 7.7372
 IR Inten    --     25.2988                53.6344               371.7393

 - Thermochemistry -
 -------------------
 Temperature   298.150 Kelvin.  Pressure   1.00000 Atm.
 Atom     1 has atomic number  6 and mass  12.00000

 Molecular mass:    54.01056 amu.
 Principal axes and moments of inertia in atomic units:
                           1         2         3
     Eigenvalues --    40.74335 321.63418 355.92716
           X            0.99983  -0.00950   0.01585
           Y            0.01082   0.99625  -0.08584
           Z           -0.01498   0.08600   0.99618
 This molecule is an asymmetric top.
 Rotational symmetry number  1.
 Rotational temperatures (Kelvin)      2.12584     0.26929     0.24335
 Rotational constants (GHZ):          44.29535     5.61116     5.07054
 Zero-point vibrational energy      87480.6 (Joules/Mol)
                                   20.90835 (Kcal/Mol)
 Warning -- explicit consideration of   5 degrees of freedom as
           vibrations may cause significant error
 Vibrational temperatures:    204.18   224.45   389.34   507.54   684.32
          (Kelvin)           1269.75  1434.36  1572.03  1998.23  3232.59
                             4478.77  5047.40

 Zero-point correction=                           0.033320 (Hartree/Particle)
 Thermal correction to Energy=                    0.038630
 Thermal correction to Enthalpy=                  0.039575
 Thermal correction to Gibbs Free Energy=         0.004952
 Sum of electronic and zero-point Energies=           -190.029374
 Sum of electronic and thermal Energies=              -190.024064
 Sum of electronic and thermal Enthalpies=            -190.023119
 Sum of electronic and thermal Free Energies=         -190.057742

                     E (Thermal)             CV                S
                      KCal/Mol        Cal/Mol-Kelvin    Cal/Mol-Kelvin
 Total                   24.241             15.676             72.869
 Electronic               0.000              0.000              2.755
 Translational            0.889              2.981             37.882
 Rotational               0.889              2.981             23.060
 Vibrational             22.464              9.714              9.172
 Vibration     1          0.615              1.911              2.778
 Vibration     2          0.620              1.896              2.598
 Vibration     3          0.674              1.727              1.592
 Vibration     4          0.729              1.570              1.154
 Vibration     5          0.832              1.304              0.722

 Normal termination of Gaussian 09 at Fri Mar  1 08:43:33 2019.
