 Gaussian 09, Revision E.01,
 Gaussian 09:  EM64L-G09RevE.01 30-Nov-2015

 ------------------------------------------------------
 #p b3lyp/6-311++G(3df,2p) freq IOp(2/17=3) IOp(2/18=3)
 ------------------------------------------------------

 ---------
 b3lyp opt
 ---------
 Symbolic Z-matrix:
 Charge =  0 Multiplicity = 1

                         Standard orientation:
 ---------------------------------------------------------------------
 Center     Atomic      Atomic             Coordinates (Angstroms)
 Number     Number       Type             X           Y           Z
 ---------------------------------------------------------------------
      1          6           0        0.000000    0.811905   -0.000000
      2          6           0        0.485477    1.979520   -0.000000
      3          6           0       -0.550977   -0.406237    0.000000
      4          1           0        1.070785   -1.362976    0.000000
      5          1           0       -1.622684   -0.579824    0.000000
      6          8           0        0.118112   -1.546041    0.000000
 ---------------------------------------------------------------------

 SCF Done:  E(RB3LYP) =  -190.652095747     A.U. after   13 cycles

 The electronic state is 1-A'.
 Alpha  occ. eigenvalues --  -19.23898 -10.32739 -10.20287 -10.16997  -1.15176
 Alpha  occ. eigenvalues --   -0.81052  -0.72179  -0.64144  -0.54907  -0.47771
 Alpha  occ. eigenvalues --   -0.45314  -0.31849  -0.28964  -0.28270
 Alpha virt. eigenvalues --   -0.12782  -0.03492  -0.00590   0.01556   0.04215
 Alpha virt. eigenvalues --    0.04318   0.06807   0.07739   0.08289   0.08391
 Alpha virt. eigenvalues --    0.10209   0.10246   0.11338   0.12381   0.15023

 Mulliken charges:
               1
     1  C    0.930634
     2  C   -0.763023
     3  C   -0.182861
     4  H    0.282708
     5  H    0.207815
     6  O   -0.475273
 Sum of Mulliken charges =  -0.00000

 Dipole moment (field-independent basis, Debye):
    X=             -0.8452    Y=             -4.3168    Z=              0.0000  Tot=              4.3987
 Quadrupole moment (field-independent basis, Debye-Ang):
   XX=            -20.4450   YY=            -33.4748   ZZ=            -23.6705
   XY=             -3.8213   XZ=              0.0000   YZ=              0.0000

  Exact polarizability:  37.605   7.650  66.412   0.000  -0.000  28.692
 Approx polarizability:  56.735  21.898 127.544  -0.000  -0.000  41.017

                      1                      2                      3
                     A'                     A"                     A'
 Frequencies --    171.5518               187.5992               598.2153
 Red. masses --      7.1090                 5.2780                 4.9070
 Frc consts  --      0.1233                 0.1094                 1.0346
 IR Inten    --      5.7081                10.2463                28.2851

                      4                      5                      6
                     A"                     A"                     A'
 Frequencies --    714.5872               997.4528              1039.3081
 Red. masses --      1.3583                 1.4353                 4.4765
 Frc consts  --      0.4087                 0.8414                 2.8489
 IR Inten    --    113.1949                13.1907                94.8033

                      7                      8                      9
                     A'                     A'                     A'
 Frequencies --   1254.3831              1344.3559              1494.7487
 Red. masses --      1.2971                 2.1842                 1.9869
 Frc consts  --      1.2025                 2.3258                 2.6156
 IR Inten    --    161.5473                55.4341               176.9345

                     10                     11                     12
                     A'                     A'                     A'
 Frequencies --   2072.4922              3153.8731              3723.8849
 Red. masses --     11.2859                 1.0911                 1.0648
 Frc consts  --     28.5608                 6.3947                 8.6995
 IR Inten    --    737.6565                 3.4747                73.8150

 - Thermochemistry -
 -------------------
 Temperature   298.150 Kelvin.  Pressure   1.00000 Atm.
 Atom     1 has atomic number  6 and mass  12.00000

 Molecular mass:    54.01056 amu.
 Principal axes and moments of inertia in atomic units:
                           1         2         3
     Eigenvalues --    32.80051 352.10336 384.90387
           X            0.12118   0.99263   0.00000
           Y            0.99263  -0.12118   0.00000
           Z           -0.00000  -0.00000   1.00000
 This molecule is an asymmetric top.
 Rotational symmetry number  1.
 Rotational temperatures (Kelvin)      2.64062     0.24599     0.22503
 Rotational constants (GHZ):          55.02175     5.12560     4.68881
 Zero-point vibrational energy     100201.9 (Joules/Mol)
                                   23.94883 (Kcal/Mol)
 Warning -- explicit consideration of   3 degrees of freedom as
           vibrations may cause significant error
 Vibrational temperatures:    246.82   269.91   860.70  1028.13  1435.11
          (Kelvin)           1495.33  1804.78  1934.23  2150.61  2981.85
                             4537.71  5357.83

 Zero-point correction=                           0.038165 (Hartree/Particle)
 Thermal correction to Energy=                    0.042550
 Thermal correction to Enthalpy=                  0.043494
 Thermal correction to Gibbs Free Energy=         0.011874
 Sum of electronic and zero-point Energies=           -190.613931
 Sum of electronic and thermal Energies=              -190.609546
 Sum of electronic and thermal Enthalpies=            -190.608602
 Sum of electronic and thermal Free Energies=         -190.640222

                     E (Thermal)             CV                S
                      KCal/Mol        Cal/Mol-Kelvin    Cal/Mol-Kelvin
 Total                   26.700             12.634             66.549
 Electronic               0.000              0.000              0.000
 Translational            0.889              2.981             37.882
 Rotational               0.889              2.981             23.012
 Vibrational             24.923              6.673              5.655
 Vibration     1          0.626              1.877              2.418
 Vibration     2          0.632              1.857              2.251
 Vibration     3          0.956              1.036              0.453

 Optimization completed.
    -- Stationary point found.
 Normal termination of Gaussian 09 at Fri Mar  1 08:41:46 2019.
