 Gaussian 09, Revision E.01,
 Gaussian 09:  EM64L-G09RevE.01 30-Nov-2015

 ------------------------------------------------------
 #p b3lyp/6-311++G(3df,2p) freq IOp(2/17=3) IOp(2/18=3)
 ------------------------------------------------------

 ---------
 b3lyp opt
 ---------
 Symbolic Z-matrix:
 Charge =  0 Multiplicity = 1

                         Standard orientation:
 ---------------------------------------------------------------------
 Center     Atomic      Atomic             Coordinates (Angstroms)
 Number     Number       Type             X           Y           Z
 ---------------------------------------------------------------------
      1          6           0       -1.192792   -1.418433   -0.000000
      2          6           0       -0.000000    0.905014    0.000000
      3          6           0       -0.552096   -0.391209   -0.000000
      4          1           0        1.750996    0.084530    0.000000
      5          1           0       -1.760181   -2.317150   -0.000000
      6          8           0        1.309814    0.957549    0.000000
 ---------------------------------------------------------------------

 SCF Done:  E(RB3LYP) =  -190.644613244     A.U. after   12 cycles

 The electronic state is 1-A'.
 Alpha  occ. eigenvalues --  -19.21806 -10.26292 -10.21464 -10.19995  -1.12147
 Alpha  occ. eigenvalues --   -0.79966  -0.69980  -0.61706  -0.54945  -0.45166
 Alpha  occ. eigenvalues --   -0.44517  -0.33058  -0.32953  -0.23486
 Alpha virt. eigenvalues --   -0.10371  -0.03362  -0.00122   0.01295   0.04295
 Alpha virt. eigenvalues --    0.04775   0.06037   0.07703   0.07837   0.09445
 Alpha virt. eigenvalues --    0.09904   0.10151   0.12210   0.12860   0.15195

 Mulliken charges:
               1
     1  C    0.143723
     2  C   -0.481267
     3  C    0.183403
     4  H    0.231880
     5  H    0.315593
     6  O   -0.393332
 Sum of Mulliken charges =  -0.00000

 Dipole moment (field-independent basis, Debye):
    X=              0.7668    Y=             -3.3704    Z=              0.0000  Tot=              3.4565
 Quadrupole moment (field-independent basis, Debye-Ang):
   XX=            -20.0437   YY=            -24.2313   ZZ=            -23.6754
   XY=              2.6208   XZ=             -0.0000   YZ=             -0.0000

  Exact polarizability:  49.492  13.828  56.218   0.000  -0.000  28.609
 Approx polarizability:  76.921  31.894  97.009   0.000   0.000  40.503

                      1                      2                      3
                     A'                     A"                     A'
 Frequencies --    221.1436               259.1573               546.9499
 Red. masses --      4.5627                 3.8127                 1.2830
 Frc consts  --      0.1315                 0.1509                 0.2261
 IR Inten    --     11.6084                 8.5535                59.7857

                      4                      5                      6
                     A'                     A"                     A"
 Frequencies --    635.9779               782.7830               825.8688
 Red. masses --      4.9613                 1.3122                 1.3789
 Frc consts  --      1.1823                 0.4737                 0.5541
 IR Inten    --     11.7978                25.8107               104.7345

                      7                      8                      9
                     A'                     A'                     A'
 Frequencies --    898.4095              1311.9838              1343.7740
 Red. masses --      7.7381                 3.6837                 1.5893
 Frc consts  --      3.6799                 3.7359                 1.6909
 IR Inten    --      2.0661               251.4394                 3.5782

                     10                     11                     12
                     A'                     A'                     A'
 Frequencies --   2106.8713              3449.5944              3511.3780
 Red. masses --      6.2188                 1.1505                 1.0653
 Frc consts  --     16.2643                 8.0665                 7.7387
 IR Inten    --     19.5712                76.1090                26.3863

 - Thermochemistry -
 -------------------
 Temperature   298.150 Kelvin.  Pressure   1.00000 Atm.
 Atom     1 has atomic number  6 and mass  12.00000

 Molecular mass:    54.01056 amu.
 Principal axes and moments of inertia in atomic units:
                           1         2         3
     Eigenvalues --    28.11425 365.36895 393.48320
           X            0.70178   0.71240  -0.00000
           Y            0.71240  -0.70178   0.00000
           Z            0.00000   0.00000   1.00000
 This molecule is an asymmetric top.
 Rotational symmetry number  1.
 Rotational temperatures (Kelvin)      3.08078     0.23706     0.22012
 Rotational constants (GHZ):          64.19310     4.93950     4.58658
 Zero-point vibrational energy      95066.6 (Joules/Mol)
                                   22.72146 (Kcal/Mol)
 Warning -- explicit consideration of   3 degrees of freedom as
           vibrations may cause significant error
 Vibrational temperatures:    318.18   372.87   786.94   915.03  1126.25
          (Kelvin)           1188.24  1292.61  1887.65  1933.39  3031.31
                             4963.19  5052.08

 Zero-point correction=                           0.036209 (Hartree/Particle)
 Thermal correction to Energy=                    0.040606
 Thermal correction to Enthalpy=                  0.041550
 Thermal correction to Gibbs Free Energy=         0.010211
 Sum of electronic and zero-point Energies=           -190.608404
 Sum of electronic and thermal Energies=              -190.604007
 Sum of electronic and thermal Enthalpies=            -190.603063
 Sum of electronic and thermal Free Energies=         -190.634402

                     E (Thermal)             CV                S
                      KCal/Mol        Cal/Mol-Kelvin    Cal/Mol-Kelvin
 Total                   25.481             13.690             65.958
 Electronic               0.000              0.000              0.000
 Translational            0.889              2.981             37.882
 Rotational               0.889              2.981             22.918
 Vibrational             23.703              7.728              5.159
 Vibration     1          0.648              1.809              1.950
 Vibration     2          0.668              1.747              1.667
 Vibration     3          0.902              1.146              0.551

 Optimization completed.
    -- Stationary point found.
 Normal termination of Gaussian 09 at Fri Mar  1 08:41:41 2019.
