 Gaussian 09, Revision E.01,
 Gaussian 09:  EM64L-G09RevE.01 30-Nov-2015

 ------------------------------------------------------
 #p b3lyp/6-311++G(3df,2p) freq IOp(2/17=3) IOp(2/18=3)
 ------------------------------------------------------

 ---------
 b3lyp opt
 ---------
 Symbolic Z-matrix:
 Charge =  0 Multiplicity = 3

                         Standard orientation:
 ---------------------------------------------------------------------
 Center     Atomic      Atomic             Coordinates (Angstroms)
 Number     Number       Type             X           Y           Z
 ---------------------------------------------------------------------
      1          6           0       -0.144394   -0.146335   -0.011434
      2          6           0        0.957665   -0.834271    0.029845
      3          6           0        1.149174    0.603709   -0.133940
      4          1           0       -1.694245    0.910987   -0.169420
      5          1           0        1.511614    1.352585    0.575890
      6          8           0       -1.449005   -0.000274    0.035838
 ---------------------------------------------------------------------

 SCF Done:  E(UB3LYP) =  -190.566680937     A.U. after   15 cycles

 The electronic state is 3-A.
 Alpha  occ. eigenvalues --  -19.22023 -10.28664 -10.22300 -10.21973  -1.13144
 Alpha  occ. eigenvalues --   -0.91428  -0.66885  -0.59106  -0.51662  -0.46711
 Alpha  occ. eigenvalues --   -0.42674  -0.40563  -0.34338  -0.26857  -0.18255
 Alpha virt. eigenvalues --   -0.03019   0.00285   0.01328   0.03348   0.05263
 Alpha virt. eigenvalues --    0.06571   0.07574   0.07685   0.09324   0.09868
 Alpha virt. eigenvalues --    0.10936   0.12010   0.13337   0.15541   0.16261

  Beta  occ. eigenvalues --  -19.21925 -10.28282 -10.20837 -10.20461  -1.12813
  Beta  occ. eigenvalues --   -0.89251  -0.66245  -0.55814  -0.50146  -0.45481
  Beta  occ. eigenvalues --   -0.38729  -0.37241  -0.30648
  Beta virt. eigenvalues --   -0.13646  -0.05590  -0.02657   0.01446   0.02611
  Beta virt. eigenvalues --    0.03863   0.05666   0.06810   0.07682   0.08264
  Beta virt. eigenvalues --    0.09762   0.10044   0.11821   0.12461   0.13960

 Mulliken charges and spin densities:
               1          2
     1  C    0.569931   0.065143
     2  C   -0.228280   0.961464
     3  C   -0.277214   0.903156
     4  H    0.286860   0.003815
     5  H    0.154454   0.055643
     6  O   -0.505751   0.010779
 Sum of Mulliken charges =  -0.00000   2.00000

 Dipole moment (field-independent basis, Debye):
    X=             -1.8523    Y=              2.0415    Z=              0.4769  Tot=              2.7975
 Quadrupole moment (field-independent basis, Debye-Ang):
   XX=            -23.4011   YY=            -22.5085   ZZ=            -24.4420
   XY=             -2.2506   XZ=              1.9989   YZ=              0.6722

  Exact polarizability:  46.892  -0.743  43.372   0.029  -0.992  30.079
 Approx polarizability:  73.208  -7.333  67.658  -0.143  -2.306  40.453

                      1                      2                      3
                      A                      A                      A
 Frequencies --    285.4265               383.6192               426.2785
 Red. masses --      1.2296                 3.7260                 5.2557
 Frc consts  --      0.0590                 0.3231                 0.5627
 IR Inten    --    100.1440                 1.2258                 9.0914

                      4                      5                      6
                      A                      A                      A
 Frequencies --    661.2914               934.2721               966.7763
 Red. masses --      8.4944                 1.2583                 1.2716
 Frc consts  --      2.1886                 0.6471                 0.7002
 IR Inten    --      4.5776                32.7338                33.7324

                      7                      8                      9
                      A                      A                      A
 Frequencies --   1087.6392              1108.5432              1262.1918
 Red. masses --      5.7462                 5.4418                 1.4496
 Frc consts  --      4.0050                 3.9400                 1.3606
 IR Inten    --     51.2992                37.5974               196.6721

                     10                     11                     12
                      A                      A                      A
 Frequencies --   1860.0658              2999.5703              3778.6678
 Red. masses --     10.1396                 1.0863                 1.0658
 Frc consts  --     20.6693                 5.7585                 8.9665
 IR Inten    --    161.7556                42.8548               110.5097

 - Thermochemistry -
 -------------------
 Temperature   298.150 Kelvin.  Pressure   1.00000 Atm.
 Atom     1 has atomic number  6 and mass  12.00000

 Molecular mass:    54.01056 amu.
 Principal axes and moments of inertia in atomic units:
                           1         2         3
     Eigenvalues --    57.68341 237.35523 291.03639
           X            0.99980   0.00874   0.01786
           Y           -0.00950   0.99903   0.04294
           Z           -0.01747  -0.04310   0.99892
 This molecule is an asymmetric top.
 Rotational symmetry number  1.
 Rotational temperatures (Kelvin)      1.50154     0.36491     0.29760
 Rotational constants (GHZ):          31.28701     7.60355     6.20108
 Zero-point vibrational energy      94231.9 (Joules/Mol)
                                   22.52196 (Kcal/Mol)
 Warning -- explicit consideration of   3 degrees of freedom as
           vibrations may cause significant error
 Vibrational temperatures:    410.66   551.94   613.32   951.45  1344.21
          (Kelvin)           1390.97  1564.87  1594.94  1816.01  2676.22
                             4315.71  5436.65

 Zero-point correction=                           0.035891 (Hartree/Particle)
 Thermal correction to Energy=                    0.040055
 Thermal correction to Enthalpy=                  0.041000
 Thermal correction to Gibbs Free Energy=         0.009114
 Sum of electronic and zero-point Energies=           -190.530790
 Sum of electronic and thermal Energies=              -190.526625
 Sum of electronic and thermal Enthalpies=            -190.525681
 Sum of electronic and thermal Free Energies=         -190.557567

                     E (Thermal)             CV                S
                      KCal/Mol        Cal/Mol-Kelvin    Cal/Mol-Kelvin
 Total                   25.135             13.107             67.110
 Electronic               0.000              0.000              2.183
 Translational            0.889              2.981             37.882
 Rotational               0.889              2.981             22.904
 Vibrational             23.358              7.146              4.141
 Vibration     1          0.683              1.701              1.501
 Vibration     2          0.753              1.505              1.025
 Vibration     3          0.788              1.413              0.871

 Optimization completed.
    -- Stationary point found.
 Normal termination of Gaussian 09 at Fri Mar  1 08:43:28 2019.
