 Gaussian 09, Revision E.01,
 Gaussian 09:  EM64L-G09RevE.01 30-Nov-2015

 ------------------------------------------------------
 #p b3lyp/6-311++G(3df,2p) freq IOp(2/17=3) IOp(2/18=3)
 ------------------------------------------------------

 ---------
 b3lyp opt
 ---------
 Symbolic Z-matrix:
 Charge =  0 Multiplicity = 1

                         Standard orientation:
 ---------------------------------------------------------------------
 Center     Atomic      Atomic             Coordinates (Angstroms)
 Number     Number       Type             X           Y           Z
 ---------------------------------------------------------------------
      1          6           0        1.054151   -0.108590    0.409307
      2          6           0       -1.560673   -0.784603   -0.251756
      3          6           0       -1.526560    0.584814    0.013354
      4          6           0       -0.376071   -0.071011    0.121901
      5          1           0       -2.040398    1.529240    0.088934
      6          1           0        1.303386   -0.398921    1.447888
      7          8           0        1.898991    0.143252   -0.411706
 ---------------------------------------------------------------------

 SCF Done:  E(RB3LYP) =  -228.755293422     A.U. after   13 cycles

 The electronic state is 1-A.
 Alpha  occ. eigenvalues --  -19.15733 -10.30392 -10.26068 -10.25623 -10.22535
 Alpha  occ. eigenvalues --   -1.08734  -0.95894  -0.72548  -0.61778  -0.56576
 Alpha  occ. eigenvalues --   -0.49822  -0.48326  -0.42907  -0.40677  -0.37226
 Alpha  occ. eigenvalues --   -0.29920  -0.26485
 Alpha virt. eigenvalues --   -0.07660  -0.06493  -0.04292  -0.00924   0.00297
 Alpha virt. eigenvalues --    0.03193   0.03959   0.05285   0.06350   0.07339
 Alpha virt. eigenvalues --    0.08358   0.09669   0.10548   0.11265   0.11289

 Mulliken charges:
               1
     1  C    0.176334
     2  C   -0.433652
     3  C    0.303863
     4  C    0.135050
     5  H    0.259762
     6  H    0.140311
     7  O   -0.581667
 Sum of Mulliken charges =  -0.00000

 Dipole moment (field-independent basis, Debye):
    X=             -0.8945    Y=              2.3679    Z=              2.3608  Tot=              3.4613
 Quadrupole moment (field-independent basis, Debye-Ang):
   XX=            -34.0829   YY=            -29.2440   ZZ=            -27.7217
   XY=             -7.2376   XZ=              1.5142   YZ=             -0.9952

  Exact polarizability:  65.143   1.536  40.925   1.597   0.067  37.830
 Approx polarizability: 100.326   2.695  61.572  -1.491  -0.718  58.245

                      1                      2                      3
                      A                      A                      A
 Frequencies --    119.7426               214.9585               265.2436
 Red. masses --      3.5670                 6.8803                 3.0863
 Frc consts  --      0.0301                 0.1873                 0.1279
 IR Inten    --     20.9251                14.0224                 4.8708

                      4                      5                      6
                      A                      A                      A
 Frequencies --    586.2427               801.0978               924.1837
 Red. masses --      6.1661                 2.5379                 1.4538
 Frc consts  --      1.2486                 0.9596                 0.7316
 IR Inten    --      0.4047                37.4476                 7.2378

                      7                      8                      9
                      A                      A                      A
 Frequencies --    947.7600               989.6491              1103.4495
 Red. masses --      1.8182                 1.8690                 4.8209
 Frc consts  --      0.9623                 1.0785                 3.4585
 IR Inten    --      7.5313                33.9581                40.3970

                     10                     11                     12
                      A                      A                      A
 Frequencies --   1273.2778              1405.7438              1728.2049
 Red. masses --      7.3384                 1.2240                 7.8880
 Frc consts  --      7.0097                 1.4251                13.8806
 IR Inten    --     14.8786                 6.3308                49.2498

                     13                     14                     15
                      A                      A                      A
 Frequencies --   1766.9481              2909.5943              3242.4224
 Red. masses --     10.3992                 1.0822                 1.1133
 Frc consts  --     19.1292                 5.3980                 6.8961
 IR Inten    --    274.5253                59.6688                 2.6209

 - Thermochemistry -
 -------------------
 Temperature   298.150 Kelvin.  Pressure   1.00000 Atm.
 Atom     1 has atomic number  6 and mass  12.00000

 Molecular mass:    66.01056 amu.
 Principal axes and moments of inertia in atomic units:
                           1         2         3
     Eigenvalues --    79.05758 512.91167 537.01095
           X            0.99947  -0.02882   0.01495
           Y            0.02978   0.99722  -0.06823
           Z           -0.01294   0.06864   0.99756
 This molecule is an asymmetric top.
 Rotational symmetry number  1.
 Rotational temperatures (Kelvin)      1.09558     0.16887     0.16129
 Rotational constants (GHZ):          22.82819     3.51862     3.36072
 Zero-point vibrational energy     109329.8 (Joules/Mol)
                                   26.13045 (Kcal/Mol)
 Warning -- explicit consideration of   4 degrees of freedom as
           vibrations may cause significant error
 Vibrational temperatures:    172.28   309.28   381.63   843.47  1152.60
          (Kelvin)           1329.69  1363.61  1423.88  1587.62  1831.96
                             2022.55  2486.50  2542.24  4186.25  4665.12

 Zero-point correction=                           0.041642 (Hartree/Particle)
 Thermal correction to Energy=                    0.046601
 Thermal correction to Enthalpy=                  0.047545
 Thermal correction to Gibbs Free Energy=         0.013838
 Sum of electronic and zero-point Energies=           -228.713652
 Sum of electronic and thermal Energies=              -228.708692
 Sum of electronic and thermal Enthalpies=            -228.707748
 Sum of electronic and thermal Free Energies=         -228.741455

                     E (Thermal)             CV                S
                      KCal/Mol        Cal/Mol-Kelvin    Cal/Mol-Kelvin
 Total                   29.243             15.059             70.942
 Electronic               0.000              0.000              0.000
 Translational            0.889              2.981             38.480
 Rotational               0.889              2.981             24.591
 Vibrational             27.465              9.097              7.871
 Vibration     1          0.609              1.933              3.105
 Vibration     2          0.645              1.818              2.001
 Vibration     3          0.671              1.737              1.627
 Vibration     4          0.943              1.061              0.474

 Normal termination of Gaussian 09 at Fri Mar  1 08:44:28 2019.
