 Gaussian 09, Revision E.01,
 Gaussian 09:  EM64L-G09RevE.01 30-Nov-2015

 ------------------------------------------------------
 #p b3lyp/6-311++G(3df,2p) freq IOp(2/17=3) IOp(2/18=3)
 ------------------------------------------------------

 ---------
 b3lyp opt
 ---------
 Symbolic Z-matrix:
 Charge =  1 Multiplicity = 2

                         Standard orientation:
 ---------------------------------------------------------------------
 Center     Atomic      Atomic             Coordinates (Angstroms)
 Number     Number       Type             X           Y           Z
 ---------------------------------------------------------------------
      1          6           0       -0.000000   -1.092952    0.245229
      2          6           0        0.000000    1.092952    0.245229
      3          8           0       -0.000000   -0.000000    1.064342
      4          6           0        0.000000    0.620539   -1.074429
      5          6           0       -0.000000   -0.620539   -1.074429
      6          1           0       -0.000000   -2.063838    0.717833
      7          1           0        0.000000    2.063838    0.717833
 ---------------------------------------------------------------------

 SCF Done:  E(UB3LYP) =  -228.369521874     A.U. after   13 cycles

 The electronic state is 2-A2.
 Alpha  occ. eigenvalues --  -19.47556 -10.56510 -10.56506 -10.47878 -10.47703
 Alpha  occ. eigenvalues --   -1.40592  -1.11139  -1.03858  -0.87138  -0.84966
 Alpha  occ. eigenvalues --   -0.79335  -0.74953  -0.72282  -0.66454  -0.58310
 Alpha  occ. eigenvalues --   -0.54975  -0.53881
 Alpha virt. eigenvalues --   -0.39948  -0.31077  -0.18033  -0.15940  -0.14616
 Alpha virt. eigenvalues --   -0.13023  -0.11000  -0.10932  -0.09398  -0.08380
 Alpha virt. eigenvalues --   -0.06421  -0.05079  -0.04743  -0.03903  -0.02621

  Beta  occ. eigenvalues --  -19.47753 -10.55637 -10.55635 -10.47850 -10.47673
  Beta  occ. eigenvalues --   -1.40307  -1.10688  -1.01622  -0.85819  -0.84248
  Beta  occ. eigenvalues --   -0.79098  -0.72718  -0.71762  -0.66233  -0.57954
  Beta  occ. eigenvalues --   -0.55005
  Beta virt. eigenvalues --   -0.42216  -0.39465  -0.26407  -0.15965  -0.15714
  Beta virt. eigenvalues --   -0.13930  -0.12837  -0.10856  -0.10483  -0.09322
  Beta virt. eigenvalues --   -0.08260  -0.05841  -0.04944  -0.03958  -0.03536

 Mulliken charges and spin densities:
               1          2
     1  C    0.165450   0.527251
     2  C    0.165450   0.527251
     3  O   -0.438324  -0.079939
     4  C    0.272501   0.026480
     5  C    0.272501   0.026480
     6  H    0.281211  -0.013762
     7  H    0.281211  -0.013762
 Sum of Mulliken charges =   1.00000   1.00000

 Dipole moment (field-independent basis, Debye):
    X=              0.0000    Y=              0.0000    Z=              0.0445  Tot=              0.0445
 Quadrupole moment (field-independent basis, Debye-Ang):
   XX=            -25.8062   YY=            -13.3192   ZZ=            -23.3995
   XY=              0.0000   XZ=              0.0000   YZ=              0.0000

  Exact polarizability:  23.548   0.000  52.005  -0.000  -0.000  37.887
 Approx polarizability:  34.063   0.000 123.180   0.000  -0.000  63.874

                      1                      2                      3
                     A2                     B2                     B1
 Frequencies --    266.0246               470.7214               479.7990
 Red. masses --      3.9788                10.5672                 2.4516
 Frc consts  --      0.1659                 1.3795                 0.3325
 IR Inten    --      0.0000               131.2916                32.1526

                      4                      5                      6
                     A2                     B1                     B2
 Frequencies --    801.0696               823.8871               883.7357
 Red. masses --      1.5234                 1.6353                12.0690
 Frc consts  --      0.5760                 0.6540                 5.5535
 IR Inten    --      0.0000                 9.0045                11.4213

                      7                      8                      9
                     A1                     A1                     B2
 Frequencies --    899.6802              1024.8013              1179.2796
 Red. masses --      8.3367                 2.5485                 3.2029
 Frc consts  --      3.9758                 1.5769                 2.6244
 IR Inten    --     15.7290                80.6460                12.4267

                     10                     11                     12
                     A1                     B2                     A1
 Frequencies --   1205.4902              1274.6898              1395.6588
 Red. masses --      3.3231                 1.4311                 2.1246
 Frc consts  --      2.8452                 1.3700                 2.4383
 IR Inten    --     22.8789                20.8437                54.3094

                     13                     14                     15
                     A1                     B2                     A1
 Frequencies --   1938.2869              3243.6884              3254.4965
 Red. masses --     11.6524                 1.0945                 1.1056
 Frc consts  --     25.7930                 6.7846                 6.8993
 IR Inten    --     26.4585                71.2895                 8.0052

 - Thermochemistry -
 -------------------
 Temperature   298.150 Kelvin.  Pressure   1.00000 Atm.
 Atom     1 has atomic number  6 and mass  12.00000

 Molecular mass:    66.01056 amu.
 Principal axes and moments of inertia in atomic units:
                           1         2         3
     Eigenvalues --   166.04100 172.39639 338.43739
           X            0.00000   0.00000   1.00000
           Y            0.00000   1.00000  -0.00000
           Z            1.00000  -0.00000  -0.00000
 This molecule is an asymmetric top.
 Rotational symmetry number  2.
 Rotational temperatures (Kelvin)      0.52164     0.50241     0.25592
 Rotational constants (GHZ):          10.86925    10.46856     5.33257
 Zero-point vibrational energy     114490.5 (Joules/Mol)
                                   27.36388 (Kcal/Mol)
 Warning -- explicit consideration of   3 degrees of freedom as
           vibrations may cause significant error
 Vibrational temperatures:    382.75   677.26   690.32  1152.56  1185.39
          (Kelvin)           1271.50  1294.44  1474.46  1696.72  1734.43
                             1833.99  2008.04  2788.76  4666.94  4682.49

 Zero-point correction=                           0.043607 (Hartree/Particle)
 Thermal correction to Energy=                    0.047740
 Thermal correction to Enthalpy=                  0.048685
 Thermal correction to Gibbs Free Energy=         0.017212
 Sum of electronic and zero-point Energies=           -228.325915
 Sum of electronic and thermal Energies=              -228.321782
 Sum of electronic and thermal Enthalpies=            -228.320837
 Sum of electronic and thermal Free Energies=         -228.352310

                     E (Thermal)             CV                S
                      KCal/Mol        Cal/Mol-Kelvin    Cal/Mol-Kelvin
 Total                   29.958             13.646             66.239
 Electronic               0.000              0.000              1.377
 Translational            0.889              2.981             38.480
 Rotational               0.889              2.981             22.409
 Vibrational             28.180              7.684              3.973
 Vibration     1          0.672              1.735              1.622
 Vibration     2          0.828              1.315              0.736
 Vibration     3          0.836              1.295              0.711

 Optimization completed.
    -- Stationary point found.
 Normal termination of Gaussian 09 at Sun Mar  3 15:42:42 2019.
