 Gaussian 09, Revision E.01,
 Gaussian 09:  EM64L-G09RevE.01 30-Nov-2015

 ------------------------------------------------------
 #p b3lyp/6-311++G(3df,2p) freq IOp(2/17=3) IOp(2/18=3)
 ------------------------------------------------------

 ---------
 b3lyp opt
 ---------
 Symbolic Z-matrix:
 Charge =  0 Multiplicity = 1

                         Standard orientation:
 ---------------------------------------------------------------------
 Center     Atomic      Atomic             Coordinates (Angstroms)
 Number     Number       Type             X           Y           Z
 ---------------------------------------------------------------------
      1          6           0        0.444192    1.107253   -0.000000
      2          6           0       -1.810808   -2.051325    0.000000
      3          6           0       -0.319616    0.040772   -0.000000
      4          6           0       -1.076393   -0.995828    0.000000
      5          1           0        2.161567    0.238201   -0.000000
      6          1           0       -0.000000    2.094411   -0.000000
      7          8           0        1.801773    1.132769   -0.000000
 ---------------------------------------------------------------------

 SCF Done:  E(RB3LYP) =  -228.716073237     A.U. after   13 cycles

 The electronic state is 1-A'.
 Alpha  occ. eigenvalues --  -19.20863 -10.28823 -10.26151 -10.22742 -10.20097
 Alpha  occ. eigenvalues --   -1.11400  -0.84408  -0.77061  -0.68251  -0.62228
 Alpha  occ. eigenvalues --   -0.53160  -0.45300  -0.43528  -0.36679  -0.35646
 Alpha  occ. eigenvalues --   -0.30106  -0.25121
 Alpha virt. eigenvalues --   -0.15441  -0.05996  -0.02564  -0.00280   0.03078
 Alpha virt. eigenvalues --    0.04609   0.05510   0.06396   0.06864   0.07371
 Alpha virt. eigenvalues --    0.08455   0.09477   0.10090   0.11080   0.12873

 Mulliken charges:
               1
     1  C    0.094189
     2  C   -0.810716
     3  C    0.000052
     4  C    0.784402
     5  H    0.263213
     6  H    0.200789
     7  O   -0.531929
 Sum of Mulliken charges =  -0.00000

 Dipole moment (field-independent basis, Debye):
    X=              2.7913    Y=              2.7746    Z=             -0.0000  Tot=              3.9357
 Quadrupole moment (field-independent basis, Debye-Ang):
   XX=            -31.8006   YY=            -34.8667   ZZ=            -30.8198
   XY=             -9.8439   XZ=              0.0000   YZ=              0.0000

  Exact polarizability:  68.237  33.826  79.775   0.000   0.000  34.216
 Approx polarizability: 122.665  82.441 162.373  -0.000  -0.000  47.414

                      1                      2                      3
                     A'                     A"                     A'
 Frequencies --    124.1135               193.8223               286.5652
 Red. masses --      7.7437                 4.8581                 7.4590
 Frc consts  --      0.0703                 0.1075                 0.3609
 IR Inten    --     14.9978                 4.5723                 0.9161

                      4                      5                      6
                     A"                     A"                     A'
 Frequencies --    404.5024               455.9572               635.1971
 Red. masses --      1.2617                 9.6102                 6.9056
 Frc consts  --      0.1216                 1.1771                 1.6416
 IR Inten    --    110.3457                 1.0985                 2.4173

                      7                      8                      9
                     A"                     A'                     A'
 Frequencies --    791.5331               889.4311              1161.2154
 Red. masses --      1.5022                 5.3485                 2.3084
 Frc consts  --      0.5545                 2.4929                 1.8340
 IR Inten    --     26.5068                42.4733               245.0531

                     10                     11                     12
                     A'                     A'                     A'
 Frequencies --   1274.8435              1388.1716              1721.8064
 Red. masses --      1.7176                 1.2869                 9.7924
 Frc consts  --      1.6447                 1.4611                17.1043
 IR Inten    --      9.0129                36.5688               249.2919

                     13                     14                     15
                     A'                     A'                     A'
 Frequencies --   2129.6448              3179.9253              3807.5962
 Red. masses --     11.6982                 1.0874                 1.0663
 Frc consts  --     31.2596                 6.4787                 9.1084
 IR Inten    --    192.1330                18.5637                80.4801

 - Thermochemistry -
 -------------------
 Temperature   298.150 Kelvin.  Pressure   1.00000 Atm.
 Atom     1 has atomic number  6 and mass  12.00000

 Molecular mass:    66.01056 amu.
 Principal axes and moments of inertia in atomic units:
                           1         2         3
     Eigenvalues --    40.31559 729.09740 769.41299
           X            0.72764  -0.68596   0.00000
           Y            0.68596   0.72764   0.00000
           Z            0.00000  -0.00000   1.00000
 This molecule is an asymmetric top.
 Rotational symmetry number  1.
 Rotational temperatures (Kelvin)      2.14840     0.11880     0.11257
 Rotational constants (GHZ):          44.76534     2.47531     2.34561
 Zero-point vibrational energy     110321.6 (Joules/Mol)
                                   26.36749 (Kcal/Mol)
 Warning -- explicit consideration of   5 degrees of freedom as
           vibrations may cause significant error
 Vibrational temperatures:    178.57   278.87   412.30   581.99   656.02
          (Kelvin)            913.91  1138.84  1279.69  1670.73  1834.21
                             1997.27  2477.29  3064.08  4575.20  5478.27

 Zero-point correction=                           0.042019 (Hartree/Particle)
 Thermal correction to Energy=                    0.047434
 Thermal correction to Enthalpy=                  0.048378
 Thermal correction to Gibbs Free Energy=         0.013974
 Sum of electronic and zero-point Energies=           -228.674054
 Sum of electronic and thermal Energies=              -228.668640
 Sum of electronic and thermal Enthalpies=            -228.667696
 Sum of electronic and thermal Free Energies=         -228.702100

                     E (Thermal)             CV                S
                      KCal/Mol        Cal/Mol-Kelvin    Cal/Mol-Kelvin
 Total                   29.765             16.927             72.409
 Electronic               0.000              0.000              0.000
 Translational            0.889              2.981             38.480
 Rotational               0.889              2.981             24.629
 Vibrational             27.988             10.965              9.301
 Vibration     1          0.610              1.929              3.035
 Vibration     2          0.635              1.848              2.191
 Vibration     3          0.684              1.699              1.494
 Vibration     4          0.770              1.460              0.946
 Vibration     5          0.814              1.348              0.778

 Optimization completed.
    -- Stationary point found.
 Normal termination of Gaussian 09 at Fri Mar  1 08:43:27 2019.
