 Gaussian 09, Revision E.01,
 Gaussian 09:  EM64L-G09RevE.01 30-Nov-2015

 ------------------------------------------------------
 #p b3lyp/6-311++G(3df,2p) freq IOp(2/17=3) IOp(2/18=3)
 ------------------------------------------------------

 ---------
 b3lyp opt
 ---------
 Symbolic Z-matrix:
 Charge =  1 Multiplicity = 2

                         Standard orientation:
 ---------------------------------------------------------------------
 Center     Atomic      Atomic             Coordinates (Angstroms)
 Number     Number       Type             X           Y           Z
 ---------------------------------------------------------------------
      1          6           0       -0.135291    1.033495    0.000588
      2          6           0       -0.495586   -1.032122    0.000120
      3          8           0       -1.167975    0.110021   -0.000400
      4          6           0        0.759702   -0.976613    0.000286
      5          6           0        1.145129    0.344071   -0.000384
      6          1           0       -0.412001    2.081545    0.000238
      7          1           0        2.112074    0.825300   -0.000698
 ---------------------------------------------------------------------

 SCF Done:  E(UB3LYP) =  -228.337084801     A.U. after   19 cycles

 The electronic state is 2-A.
 Alpha  occ. eigenvalues --  -19.49232 -10.55908 -10.54273 -10.50265 -10.48102
 Alpha  occ. eigenvalues --   -1.41754  -1.11558  -1.02993  -0.89331  -0.82945
 Alpha  occ. eigenvalues --   -0.78993  -0.75552  -0.71544  -0.67505  -0.58342
 Alpha  occ. eigenvalues --   -0.54227  -0.54148
 Alpha virt. eigenvalues --   -0.42319  -0.30215  -0.19281  -0.16065  -0.14308
 Alpha virt. eigenvalues --   -0.12703  -0.11089  -0.11031  -0.09574  -0.08314
 Alpha virt. eigenvalues --   -0.06176  -0.05775  -0.05325  -0.04939  -0.02654

  Beta  occ. eigenvalues --  -19.49390 -10.55000 -10.53742 -10.50101 -10.47945
  Beta  occ. eigenvalues --   -1.41519  -1.10802  -1.00907  -0.88656  -0.82044
  Beta  occ. eigenvalues --   -0.78594  -0.73463  -0.71283  -0.67263  -0.57208
  Beta  occ. eigenvalues --   -0.53568
  Beta virt. eigenvalues --   -0.43159  -0.41603  -0.25910  -0.16725  -0.15917
  Beta virt. eigenvalues --   -0.13739  -0.12589  -0.10731  -0.10698  -0.09340
  Beta virt. eigenvalues --   -0.08247  -0.05725  -0.05231  -0.05096  -0.04503

 Mulliken charges and spin densities:
               1          2
     1  C    0.142622   0.575726
     2  C    0.228125   0.280999
     3  O   -0.444145  -0.060528
     4  C    0.524693   0.118594
     5  C    0.021877   0.103776
     6  H    0.269435  -0.012145
     7  H    0.257393  -0.006423
 Sum of Mulliken charges =   1.00000   1.00000

 Dipole moment (field-independent basis, Debye):
    X=              1.5337    Y=              1.6568    Z=              0.0006  Tot=              2.2577
 Quadrupole moment (field-independent basis, Debye-Ang):
   XX=            -20.3714   YY=            -16.9886   ZZ=            -25.8468
   XY=              1.2365   XZ=             -0.0028   YZ=              0.0002

  Exact polarizability:  48.398   1.911  46.513  -0.003  -0.001  24.824
 Approx polarizability: 127.949   8.511  79.352  -0.002  -0.006  35.064

                      1                      2                      3
                      A                      A                      A
 Frequencies --    264.5045               390.0013               455.1177
 Red. masses --      8.1916                 2.2710                10.9180
 Frc consts  --      0.3377                 0.2035                 1.3324
 IR Inten    --      1.3111                 5.6770               159.8568

                      4                      5                      6
                      A                      A                      A
 Frequencies --    695.8097               773.5645               892.9735
 Red. masses --      1.4292                 9.9671                 1.5161
 Frc consts  --      0.4077                 3.5141                 0.7123
 IR Inten    --      5.2925                 9.5752                 1.0994

                      7                      8                      9
                      A                      A                      A
 Frequencies --    948.5439               980.2565              1134.7324
 Red. masses --      5.1162                 2.4024                 4.6143
 Frc consts  --      2.7121                 1.3601                 3.5006
 IR Inten    --      4.6910                 4.2158                63.8343

                     10                     11                     12
                      A                      A                      A
 Frequencies --   1231.6855              1298.4234              1396.2665
 Red. masses --      1.5821                 1.9617                 3.2781
 Frc consts  --      1.4141                 1.9485                 3.7654
 IR Inten    --     27.0043                21.8237                19.1148

                     13                     14                     15
                      A                      A                      A
 Frequencies --   1799.9445              3205.3466              3234.2009
 Red. masses --     11.4661                 1.0966                 1.1013
 Frc consts  --     21.8868                 6.6379                 6.7874
 IR Inten    --     92.6493                31.1050                24.7699

 - Thermochemistry -
 -------------------
 Temperature   298.150 Kelvin.  Pressure   1.00000 Atm.
 Atom     1 has atomic number  6 and mass  12.00000

 Molecular mass:    66.01056 amu.
 Principal axes and moments of inertia in atomic units:
                           1         2         3
     Eigenvalues --   155.28529 187.03548 342.32070
           X            0.99419   0.10763  -0.00003
           Y           -0.10763   0.99419  -0.00000
           Z            0.00003   0.00001   1.00000
 This molecule is an asymmetric top.
 Rotational symmetry number  1.
 Rotational temperatures (Kelvin)      0.55777     0.46309     0.25302
 Rotational constants (GHZ):          11.62210     9.64919     5.27208
 Zero-point vibrational energy     111859.0 (Joules/Mol)
                                   26.73495 (Kcal/Mol)
 Warning -- explicit consideration of   3 degrees of freedom as
           vibrations may cause significant error
 Vibrational temperatures:    380.56   561.12   654.81  1001.11  1112.99
          (Kelvin)           1284.79  1364.74  1410.37  1632.62  1772.12
                             1868.14  2008.91  2589.72  4611.77  4653.29

 Zero-point correction=                           0.042605 (Hartree/Particle)
 Thermal correction to Energy=                    0.046880
 Thermal correction to Enthalpy=                  0.047824
 Thermal correction to Gibbs Free Energy=         0.015457
 Sum of electronic and zero-point Energies=           -228.294480
 Sum of electronic and thermal Energies=              -228.290205
 Sum of electronic and thermal Enthalpies=            -228.289261
 Sum of electronic and thermal Free Energies=         -228.321628

                     E (Thermal)             CV                S
                      KCal/Mol        Cal/Mol-Kelvin    Cal/Mol-Kelvin
 Total                   29.418             14.138             68.122
 Electronic               0.000              0.000              1.377
 Translational            0.889              2.981             38.480
 Rotational               0.889              2.981             23.812
 Vibrational             27.640              8.176              4.453
 Vibration     1          0.671              1.738              1.632
 Vibration     2          0.758              1.492              1.000
 Vibration     3          0.813              1.350              0.780

 Optimization completed.
    -- Stationary point found.
 Normal termination of Gaussian 09 at Fri Mar  1 08:54:31 2019.
