 Gaussian 09, Revision E.01,
 Gaussian 09:  EM64L-G09RevE.01 30-Nov-2015

 ------------------------------------------------------
 #p b3lyp/6-311++G(3df,2p) freq IOp(2/17=3) IOp(2/18=3)
 ------------------------------------------------------

 ---------
 b3lyp opt
 ---------
 Symbolic Z-matrix:
 Charge =  1 Multiplicity = 2

                         Standard orientation:
 ---------------------------------------------------------------------
 Center     Atomic      Atomic             Coordinates (Angstroms)
 Number     Number       Type             X           Y           Z
 ---------------------------------------------------------------------
      1          6           0       -0.365982   -0.938965    0.052586
      2          6           0        0.956719    0.640374    0.007037
      3          8           0        0.976209   -0.683601   -0.040630
      4          6           0       -0.421922    0.970464   -0.019441
      5          6           0       -1.372540    0.046524   -0.000726
      6          1           0        1.855761    1.226124    0.128618
      7          1           0       -2.443089   -0.067693   -0.040319
 ---------------------------------------------------------------------

 SCF Done:  E(UB3LYP) =  -228.359564028     A.U. after   21 cycles

 The electronic state is 2-A.
 Alpha  occ. eigenvalues --  -19.49849 -10.57274 -10.55793 -10.51699 -10.50096
 Alpha  occ. eigenvalues --   -1.43844  -1.14397  -1.02411  -0.89369  -0.82330
 Alpha  occ. eigenvalues --   -0.80265  -0.76641  -0.74473  -0.68668  -0.59774
 Alpha  occ. eigenvalues --   -0.53001  -0.52759
 Alpha virt. eigenvalues --   -0.38306  -0.30121  -0.22607  -0.16952  -0.13464
 Alpha virt. eigenvalues --   -0.12755  -0.12071  -0.11170  -0.10972  -0.07119
 Alpha virt. eigenvalues --   -0.06687  -0.06358  -0.05267  -0.05014  -0.04083

  Beta  occ. eigenvalues --  -19.49922 -10.56693 -10.54929 -10.51387 -10.50093
  Beta  occ. eigenvalues --   -1.43448  -1.13828  -1.00322  -0.88824  -0.81337
  Beta  occ. eigenvalues --   -0.79696  -0.74706  -0.73992  -0.68328  -0.58906
  Beta  occ. eigenvalues --   -0.52125
  Beta virt. eigenvalues --   -0.41607  -0.37324  -0.26276  -0.20037  -0.16651
  Beta virt. eigenvalues --   -0.13198  -0.12414  -0.11736  -0.10815  -0.10608
  Beta virt. eigenvalues --   -0.07040  -0.06330  -0.05995  -0.04900  -0.04720

 Mulliken charges and spin densities:
               1          2
     1  C    0.162472   0.327335
     2  C    0.206532   0.521894
     3  O   -0.399429  -0.035845
     4  C    0.218357   0.166230
     5  C    0.215582   0.035602
     6  H    0.288223  -0.014744
     7  H    0.308263  -0.000471
 Sum of Mulliken charges =   1.00000   1.00000

 Dipole moment (field-independent basis, Debye):
    X=             -0.6009    Y=              1.5857    Z=              0.0528  Tot=              1.6966
 Quadrupole moment (field-independent basis, Debye-Ang):
   XX=            -14.0038   YY=            -22.5779   ZZ=            -26.1002
   XY=              3.3345   XZ=              0.4461   YZ=              0.4451

  Exact polarizability:  47.455   2.489  50.139   0.394  -0.935  24.622
 Approx polarizability:  77.474   1.929 166.496   0.234  -5.022  36.413

                      1                      2                      3
                      A                      A                      A
 Frequencies --    268.4993               417.3108               539.0438
 Red. masses --      3.3072                 5.0908                10.2597
 Frc consts  --      0.1405                 0.5223                 1.7564
 IR Inten    --     21.0758                11.9681                46.5743

                      4                      5                      6
                      A                      A                      A
 Frequencies --    655.7405               747.6556               766.7737
 Red. masses --      7.8833                 1.2847                 1.6864
 Frc consts  --      1.9972                 0.4231                 0.5842
 IR Inten    --     71.0556                29.7944                10.3727

                      7                      8                      9
                      A                      A                      A
 Frequencies --    873.8739               977.0135              1059.4327
 Red. masses --      6.8106                 5.9010                 1.5703
 Frc consts  --      3.0643                 3.3188                 1.0384
 IR Inten    --     33.4324                 1.2024                12.6382

                     10                     11                     12
                      A                      A                      A
 Frequencies --   1168.9825              1201.1720              1383.4956
 Red. masses --      1.6348                 3.8276                 2.2963
 Frc consts  --      1.3163                 3.2538                 2.5896
 IR Inten    --      6.0873                24.5089                23.3853

                     13                     14                     15
                      A                      A                      A
 Frequencies --   1594.0929              3240.9929              3273.2908
 Red. masses --      7.3942                 1.0996                 1.1132
 Frc consts  --     11.0706                 6.8054                 7.0272
 IR Inten    --     42.6405                60.6960                84.1829

 - Thermochemistry -
 -------------------
 Temperature   298.150 Kelvin.  Pressure   1.00000 Atm.
 Atom     1 has atomic number  6 and mass  12.00000

 Molecular mass:    66.01056 amu.
 Principal axes and moments of inertia in atomic units:
                           1         2         3
     Eigenvalues --   127.36227 222.68676 349.47569
           X            0.99588   0.09053   0.00557
           Y           -0.09056   0.99588   0.00488
           Z           -0.00511  -0.00536   0.99997
 This molecule is an asymmetric top.
 Rotational symmetry number  1.
 Rotational temperatures (Kelvin)      0.68006     0.38895     0.24784
 Rotational constants (GHZ):          14.17014     8.10439     5.16414
 Zero-point vibrational energy     108665.0 (Joules/Mol)
                                   25.97156 (Kcal/Mol)
 Warning -- explicit consideration of   3 degrees of freedom as
           vibrations may cause significant error
 Vibrational temperatures:    386.31   600.42   775.56   943.46  1075.71
          (Kelvin)           1103.21  1257.31  1405.70  1524.29  1681.90
                             1728.22  1990.54  2293.54  4663.06  4709.53

 Zero-point correction=                           0.041388 (Hartree/Particle)
 Thermal correction to Energy=                    0.045663
 Thermal correction to Enthalpy=                  0.046607
 Thermal correction to Gibbs Free Energy=         0.014279
 Sum of electronic and zero-point Energies=           -228.318176
 Sum of electronic and thermal Energies=              -228.313901
 Sum of electronic and thermal Enthalpies=            -228.312957
 Sum of electronic and thermal Free Energies=         -228.345285

                     E (Thermal)             CV                S
                      KCal/Mol        Cal/Mol-Kelvin    Cal/Mol-Kelvin
 Total                   28.654             14.505             68.041
 Electronic               0.000              0.000              1.377
 Translational            0.889              2.981             38.480
 Rotational               0.889              2.981             23.809
 Vibrational             26.876              8.544              4.374
 Vibration     1          0.673              1.731              1.606
 Vibration     2          0.780              1.433              0.901
 Vibration     3          0.894              1.164              0.567

 Optimization completed.
    -- Stationary point found.
 Normal termination of Gaussian 09 at Fri Mar  1 08:55:08 2019.
