 Gaussian 09, Revision E.01,
 Gaussian 09:  EM64L-G09RevE.01 30-Nov-2015

 ------------------------------------------------------
 #p b3lyp/6-311++G(3df,2p) freq IOp(2/17=3) IOp(2/18=3)
 ------------------------------------------------------

 ---------
 b3lyp opt
 ---------
 Symbolic Z-matrix:
 Charge =  1 Multiplicity = 2

                         Standard orientation:
 ---------------------------------------------------------------------
 Center     Atomic      Atomic             Coordinates (Angstroms)
 Number     Number       Type             X           Y           Z
 ---------------------------------------------------------------------
      1          6           0       -1.170310    0.052754    0.000000
      2          6           0        1.201418    0.132971   -0.000000
      3          6           0        0.000000    0.779317   -0.000000
      4          6           0        2.289663   -0.421475   -0.000000
      5          1           0        3.244539   -0.904733    0.000000
      6          1           0       -0.100249    1.863086   -0.000000
      7          8           0       -2.133615   -0.527469    0.000000
 ---------------------------------------------------------------------

 SCF Done:  E(UB3LYP) =  -228.507994098     A.U. after   16 cycles

 The electronic state is 2-A".
 Alpha  occ. eigenvalues --  -19.48713 -10.58587 -10.49489 -10.45485 -10.44758
 Alpha  occ. eigenvalues --   -1.42281  -1.09775  -1.00651  -0.85728  -0.79315
 Alpha  occ. eigenvalues --   -0.77033  -0.75683  -0.74762  -0.70344  -0.60840
 Alpha  occ. eigenvalues --   -0.53989  -0.50043
 Alpha virt. eigenvalues --   -0.29920  -0.26291  -0.21311  -0.18212  -0.14544
 Alpha virt. eigenvalues --   -0.12474  -0.11985  -0.10762  -0.10043  -0.07679
 Alpha virt. eigenvalues --   -0.06689  -0.05765  -0.05757  -0.04888  -0.04865

  Beta  occ. eigenvalues --  -19.48301 -10.58544 -10.48920 -10.44904 -10.44624
  Beta  occ. eigenvalues --   -1.41630  -1.08455  -0.98557  -0.85027  -0.78748
  Beta  occ. eigenvalues --   -0.76625  -0.75037  -0.72660  -0.70023  -0.57149
  Beta  occ. eigenvalues --   -0.53453
  Beta virt. eigenvalues --   -0.40290  -0.29691  -0.23410  -0.20987  -0.17913
  Beta virt. eigenvalues --   -0.12474  -0.12305  -0.11869  -0.10483  -0.09413
  Beta virt. eigenvalues --   -0.07374  -0.06485  -0.05533  -0.05174  -0.04740

 Mulliken charges and spin densities:
               1          2
     1  C    0.705370   0.028226
     2  C   -0.119069  -0.005199
     3  C   -0.150074   0.415607
     4  C    0.371683   0.453732
     5  H    0.377914  -0.014137
     6  H    0.220908  -0.013307
     7  O   -0.406733   0.135078
 Sum of Mulliken charges =   1.00000   1.00000

 Dipole moment (field-independent basis, Debye):
    X=              1.9597    Y=              0.8731    Z=             -0.0000  Tot=              2.1454
 Quadrupole moment (field-independent basis, Debye-Ang):
   XX=             -7.6428   YY=            -20.8254   ZZ=            -25.8546
   XY=             -4.7453   XZ=             -0.0000   YZ=             -0.0000

  Exact polarizability:  81.323  -5.792  35.308  -0.000  -0.000  24.959
 Approx polarizability: 139.801 -11.740  56.702  -0.000  -0.000  34.817

                      1                      2                      3
                     A'                     A"                     A'
 Frequencies --    132.6558               350.0974               370.7558
 Red. masses --      5.9524                 2.5446                 5.8601
 Frc consts  --      0.0617                 0.1838                 0.4746
 IR Inten    --      1.6603                19.9030                17.4293

                      4                      5                      6
                     A"                     A'                     A"
 Frequencies --    463.8589               644.5079               690.7090
 Red. masses --      4.7624                 9.5254                 1.3646
 Frc consts  --      0.6037                 2.3312                 0.3836
 IR Inten    --      4.8070                 6.7352                 2.5321

                      7                      8                      9
                     A"                     A'                     A'
 Frequencies --    705.4991               723.8579               984.0277
 Red. masses --      1.9805                 1.2572                 7.5165
 Frc consts  --      0.5808                 0.3881                 4.2883
 IR Inten    --     46.8592                37.3609                 2.0272

                     10                     11                     12
                     A'                     A'                     A'
 Frequencies --   1139.5240              1375.7496              2091.5908
 Red. masses --      1.6065                 2.5553                 6.6209
 Frc consts  --      1.2291                 2.8496                17.0656
 IR Inten    --      1.5381                35.1379               126.9791

                     13                     14                     15
                     A'                     A'                     A'
 Frequencies --   2296.2092              3123.2410              3383.1299
 Red. masses --     13.0242                 1.0876                 1.1496
 Frc consts  --     40.4598                 6.2509                 7.7527
 IR Inten    --    576.7474                76.9906               135.0410

 - Thermochemistry -
 -------------------
 Temperature   298.150 Kelvin.  Pressure   1.00000 Atm.
 Atom     1 has atomic number  6 and mass  12.00000

 Molecular mass:    66.01056 amu.
 Principal axes and moments of inertia in atomic units:
                           1         2         3
     Eigenvalues --    65.36822 643.05621 708.42444
           X            0.99963  -0.02724   0.00000
           Y            0.02724   0.99963   0.00000
           Z            0.00000  -0.00000   1.00000
 This molecule is an asymmetric top.
 Rotational symmetry number  1.
 Rotational temperatures (Kelvin)      1.32501     0.13469     0.12226
 Rotational constants (GHZ):          27.60885     2.80651     2.54754
 Zero-point vibrational energy     110507.5 (Joules/Mol)
                                   26.41193 (Kcal/Mol)
 Warning -- explicit consideration of   4 degrees of freedom as
           vibrations may cause significant error
 Vibrational temperatures:    190.86   503.71   533.43   667.39   927.30
          (Kelvin)            993.78  1015.05  1041.47  1415.79  1639.52
                             1979.39  3009.33  3303.73  4493.64  4867.56

 Zero-point correction=                           0.042090 (Hartree/Particle)
 Thermal correction to Energy=                    0.047086
 Thermal correction to Enthalpy=                  0.048030
 Thermal correction to Gibbs Free Energy=         0.013767
 Sum of electronic and zero-point Energies=           -228.465904
 Sum of electronic and thermal Energies=              -228.460908
 Sum of electronic and thermal Enthalpies=            -228.459964
 Sum of electronic and thermal Free Energies=         -228.494228

                     E (Thermal)             CV                S
                      KCal/Mol        Cal/Mol-Kelvin    Cal/Mol-Kelvin
 Total                   29.547             16.479             72.113
 Electronic               0.000              0.000              1.377
 Translational            0.889              2.981             38.480
 Rotational               0.889              2.981             24.902
 Vibrational             27.769             10.518              7.354
 Vibration     1          0.613              1.921              2.907
 Vibration     2          0.727              1.575              1.166
 Vibration     3          0.743              1.532              1.077
 Vibration     4          0.821              1.330              0.755

 Optimization completed.
    -- Stationary point found.
 Normal termination of Gaussian 09 at Fri Mar  1 08:52:43 2019.
