 Gaussian 09, Revision E.01,
 Gaussian 09:  EM64L-G09RevE.01 30-Nov-2015

 ------------------------------------------------------
 #p b3lyp/6-311++G(3df,2p) freq IOp(2/17=3) IOp(2/18=3)
 ------------------------------------------------------

 ---------
 b3lyp opt
 ---------
 Symbolic Z-matrix:
 Charge =  1 Multiplicity = 2

                         Standard orientation:
 ---------------------------------------------------------------------
 Center     Atomic      Atomic             Coordinates (Angstroms)
 Number     Number       Type             X           Y           Z
 ---------------------------------------------------------------------
      1          6           0       -1.122793    0.214695    0.418412
      2          6           0        1.592430    0.475798   -0.241120
      3          6           0        1.459746   -0.811651    0.107403
      4          6           0        0.370245   -0.016133    0.229240
      5          1           0        2.125188    1.342963   -0.609999
      6          1           0       -1.445764    0.690674    1.353709
      7          8           0       -1.809649   -0.151236   -0.478415
 ---------------------------------------------------------------------

 SCF Done:  E(UB3LYP) =  -228.410669080     A.U. after   18 cycles

 The electronic state is 2-A.
 Alpha  occ. eigenvalues --  -19.38124 -10.54356 -10.53991 -10.53823 -10.52182
 Alpha  occ. eigenvalues --   -1.31431  -1.24552  -0.94112  -0.87138  -0.79052
 Alpha  occ. eigenvalues --   -0.75572  -0.70515  -0.68120  -0.66993  -0.64250
 Alpha  occ. eigenvalues --   -0.56951  -0.51647
 Alpha virt. eigenvalues --   -0.32138  -0.29920  -0.27905  -0.16223  -0.15374
 Alpha virt. eigenvalues --   -0.12998  -0.12117  -0.10626  -0.09975  -0.07680
 Alpha virt. eigenvalues --   -0.06655  -0.05747  -0.04614  -0.04277  -0.03342

  Beta  occ. eigenvalues --  -19.37936 -10.53762 -10.53604 -10.52825 -10.52225
  Beta  occ. eigenvalues --   -1.31096  -1.23577  -0.93599  -0.86236  -0.78269
  Beta  occ. eigenvalues --   -0.72286  -0.69853  -0.67395  -0.66393  -0.62759
  Beta  occ. eigenvalues --   -0.51325
  Beta virt. eigenvalues --   -0.42187  -0.32069  -0.27865  -0.27073  -0.15961
  Beta virt. eigenvalues --   -0.15119  -0.12777  -0.11967  -0.10372  -0.09697
  Beta virt. eigenvalues --   -0.07169  -0.06393  -0.04677  -0.04347  -0.04077

 Mulliken charges and spin densities:
               1          2
     1  C    0.304223  -0.020124
     2  C    0.247913   0.075909
     3  C    0.166818   0.862980
     4  C    0.158256   0.003772
     5  H    0.321013   0.001892
     6  H    0.226499   0.005040
     7  O   -0.424722   0.070530
 Sum of Mulliken charges =   1.00000   1.00000

 Dipole moment (field-independent basis, Debye):
    X=              4.2880    Y=              1.9563    Z=              1.4980  Tot=              4.9455
 Quadrupole moment (field-independent basis, Debye-Ang):
   XX=            -15.9125   YY=            -21.5722   ZZ=            -23.0790
   XY=              1.4391   XZ=             -4.7026   YZ=             -0.5810

  Exact polarizability:  63.221  -4.477  34.321  -0.637   0.253  29.815
 Approx polarizability:  97.796  -6.173  57.048   5.679  -0.042  47.971

                      1                      2                      3
                      A                      A                      A
 Frequencies --     58.5980               187.7779               295.1604
 Red. masses --      3.4563                 8.4673                 3.0463
 Frc consts  --      0.0070                 0.1759                 0.1564
 IR Inten    --     10.5332                19.4812                 4.5017

                      4                      5                      6
                      A                      A                      A
 Frequencies --    528.1035               779.0458               932.8185
 Red. masses --      7.2305                 3.8826                 1.3860
 Frc consts  --      1.1881                 1.3883                 0.7106
 IR Inten    --      1.8727                60.1014                17.6044

                      7                      8                      9
                      A                      A                      A
 Frequencies --    936.0012               987.9402              1170.2202
 Red. masses --      1.5416                 1.5616                 7.2361
 Frc consts  --      0.7957                 0.8980                 5.8384
 IR Inten    --     39.2385                18.5053                33.9496

                     10                     11                     12
                      A                      A                      A
 Frequencies --   1334.7399              1362.9965              1689.4474
 Red. masses --      8.6380                 1.1614                 8.4543
 Frc consts  --      9.0669                 1.2712                14.2174
 IR Inten    --     16.5848                 9.1472                34.8593

                     13                     14                     15
                      A                      A                      A
 Frequencies --   1820.7500              3030.9970              3231.1710
 Red. masses --      9.3883                 1.0972                 1.1201
 Frc consts  --     18.3375                 5.9392                 6.8903
 IR Inten    --     63.0584                 0.3707                93.1641

 - Thermochemistry -
 -------------------
 Temperature   298.150 Kelvin.  Pressure   1.00000 Atm.
 Atom     1 has atomic number  6 and mass  12.00000

 Molecular mass:    66.01056 amu.
 Principal axes and moments of inertia in atomic units:
                           1         2         3
     Eigenvalues --    82.52381 504.50349 520.20646
           X            0.99953   0.01631  -0.02594
           Y           -0.01579   0.99967   0.02018
           Z            0.02627  -0.01976   0.99946
 This molecule is an asymmetric top.
 Rotational symmetry number  1.
 Rotational temperatures (Kelvin)      1.04956     0.17168     0.16650
 Rotational constants (GHZ):          21.86934     3.57726     3.46928
 Zero-point vibrational energy     109732.1 (Joules/Mol)
                                   26.22659 (Kcal/Mol)
 Warning -- explicit consideration of   4 degrees of freedom as
           vibrations may cause significant error
 Vibrational temperatures:     84.31   270.17   424.67   759.82  1120.87
          (Kelvin)           1342.12  1346.70  1421.42  1683.68  1920.39
                             1961.05  2430.73  2619.65  4360.92  4648.93

 Zero-point correction=                           0.041795 (Hartree/Particle)
 Thermal correction to Energy=                    0.046914
 Thermal correction to Enthalpy=                  0.047858
 Thermal correction to Gibbs Free Energy=         0.012746
 Sum of electronic and zero-point Energies=           -228.368874
 Sum of electronic and thermal Energies=              -228.363756
 Sum of electronic and thermal Enthalpies=            -228.362811
 Sum of electronic and thermal Free Energies=         -228.397923

                     E (Thermal)             CV                S
                      KCal/Mol        Cal/Mol-Kelvin    Cal/Mol-Kelvin
 Total                   29.439             15.188             73.899
 Electronic               0.000              0.000              1.377
 Translational            0.889              2.981             38.480
 Rotational               0.889              2.981             24.586
 Vibrational             27.661              9.226              9.455
 Vibration     1          0.596              1.974              4.504
 Vibration     2          0.632              1.857              2.250
 Vibration     3          0.689              1.683              1.444
 Vibration     4          0.883              1.188              0.591

 Normal termination of Gaussian 09 at Fri Mar  1 08:53:57 2019.
