 Gaussian 09, Revision E.01,
 Gaussian 09:  EM64L-G09RevE.01 30-Nov-2015

 ------------------------------------------------------
 #p b3lyp/6-311++G(3df,2p) freq IOp(2/17=3) IOp(2/18=3)
 ------------------------------------------------------

 ---------
 b3lyp opt
 ---------
 Symbolic Z-matrix:
 Charge =  1 Multiplicity = 4

                         Standard orientation:
 ---------------------------------------------------------------------
 Center     Atomic      Atomic             Coordinates (Angstroms)
 Number     Number       Type             X           Y           Z
 ---------------------------------------------------------------------
      1          6           0       -0.000000    1.310769    0.000000
      2          6           0       -0.371011   -1.264895   -0.000000
      3          6           0       -0.698689   -2.470768   -0.000000
      4          6           0        0.054126   -0.054648   -0.000000
      5          1           0       -0.989756   -3.501020   -0.000000
      6          1           0       -0.952746    1.884805    0.000000
      7          8           0        1.004493    2.061683    0.000000
 ---------------------------------------------------------------------

 SCF Done:  E(UB3LYP) =  -228.384672510     A.U. after   17 cycles

 The electronic state is 4-A".
 Alpha  occ. eigenvalues --  -19.51859 -10.55095 -10.47915 -10.46634 -10.44496
 Alpha  occ. eigenvalues --   -1.39818  -1.07269  -1.00831  -0.90377  -0.83948
 Alpha  occ. eigenvalues --   -0.77825  -0.76058  -0.72981  -0.65591  -0.60492
 Alpha  occ. eigenvalues --   -0.59925  -0.49945  -0.47317
 Alpha virt. eigenvalues --   -0.30250  -0.19159  -0.14038  -0.13011  -0.12471
 Alpha virt. eigenvalues --   -0.11837  -0.11215  -0.09830  -0.07437  -0.06822
 Alpha virt. eigenvalues --   -0.05369  -0.04078  -0.02932  -0.02585  -0.02465

  Beta  occ. eigenvalues --  -19.48734 -10.54998 -10.46301 -10.45087 -10.44898
  Beta  occ. eigenvalues --   -1.33430  -1.04442  -0.96701  -0.87612  -0.78690
  Beta  occ. eigenvalues --   -0.74919  -0.73877  -0.68049  -0.56761  -0.56116
  Beta virt. eigenvalues --   -0.44464  -0.39337  -0.34188  -0.25912  -0.17107
  Beta virt. eigenvalues --   -0.13331  -0.12528  -0.11150  -0.10393  -0.10179
  Beta virt. eigenvalues --   -0.09567  -0.06588  -0.05684  -0.04228  -0.03221

 Mulliken charges and spin densities:
               1          2
     1  C    0.182610  -0.050051
     2  C   -0.135143  -0.068365
     3  C    0.286133   0.881436
     4  C    0.166360   1.019640
     5  H    0.374570  -0.026272
     6  H    0.283300   0.141829
     7  O   -0.157831   1.101784
 Sum of Mulliken charges =   1.00000   3.00000

 Dipole moment (field-independent basis, Debye):
    X=             -2.0618    Y=             -1.0574    Z=             -0.0000  Tot=              2.3171
 Quadrupole moment (field-independent basis, Debye-Ang):
   XX=            -23.4011   YY=              0.2210   ZZ=            -26.0156
   XY=              3.8143   XZ=              0.0000   YZ=              0.0000

  Exact polarizability:  35.984  18.330  96.351  -0.000  -0.000  25.389
 Approx polarizability:  57.574  41.072 176.200   0.000   0.000  35.109

                      1                      2                      3
                     A'                     A"                     A'
 Frequencies --     95.4385               159.6450               384.0226
 Red. masses --      5.8822                 4.8801                 7.8933
 Frc consts  --      0.0316                 0.0733                 0.6858
 IR Inten    --      4.6521                 9.5509                 2.6087

                      4                      5                      6
                     A'                     A"                     A'
 Frequencies --    434.5472               442.4905               467.6661
 Red. masses --     10.1566                 5.8883                 1.2086
 Frc consts  --      1.1300                 0.6793                 0.1557
 IR Inten    --     11.6084                 2.3006                39.0229

                      7                      8                      9
                     A"                     A"                     A'
 Frequencies --    668.9149               834.0302               868.0502
 Red. masses --      1.3359                 1.7087                 6.9599
 Frc consts  --      0.3522                 0.7003                 3.0899
 IR Inten    --     20.6044                 8.4215                15.8591

                     10                     11                     12
                     A'                     A'                     A'
 Frequencies --   1155.3003              1401.2158              1615.9599
 Red. masses --      1.1726                 7.5804                 8.0192
 Frc consts  --      0.9221                 8.7690                12.3380
 IR Inten    --     23.1227                74.2485               285.4689

                     13                     14                     15
                     A'                     A'                     A'
 Frequencies --   1926.8250              2848.5098              3364.1914
 Red. masses --      9.6933                 1.0729                 1.1257
 Frc consts  --     21.2033                 5.1291                 7.5063
 IR Inten    --     21.7277                87.1751               193.7205

 - Thermochemistry -
 -------------------
 Temperature   298.150 Kelvin.  Pressure   1.00000 Atm.
 Atom     1 has atomic number  6 and mass  12.00000

 Molecular mass:    66.01056 amu.
 Principal axes and moments of inertia in atomic units:
                           1         2         3
     Eigenvalues --    21.43047 773.20649 794.63695
           X            0.30457   0.95249  -0.00000
           Y            0.95249  -0.30457  -0.00000
           Z            0.00000   0.00000   1.00000
 This molecule is an asymmetric top.
 Rotational symmetry number  1.
 Rotational temperatures (Kelvin)      4.04162     0.11202     0.10900
 Rotational constants (GHZ):          84.21381     2.33410     2.27115
 Zero-point vibrational energy      99689.6 (Joules/Mol)
                                   23.82640 (Kcal/Mol)
 Warning -- explicit consideration of   6 degrees of freedom as
           vibrations may cause significant error
 Vibrational temperatures:    137.31   229.69   552.52   625.22   636.64
          (Kelvin)            672.87   962.42  1199.98  1248.93  1662.22
                             2016.03  2325.00  2772.27  4098.37  4840.32

 Zero-point correction=                           0.037970 (Hartree/Particle)
 Thermal correction to Energy=                    0.043581
 Thermal correction to Enthalpy=                  0.044526
 Thermal correction to Gibbs Free Energy=         0.008597
 Sum of electronic and zero-point Energies=           -228.346703
 Sum of electronic and thermal Energies=              -228.341091
 Sum of electronic and thermal Enthalpies=            -228.340147
 Sum of electronic and thermal Free Energies=         -228.376075

                     E (Thermal)             CV                S
                      KCal/Mol        Cal/Mol-Kelvin    Cal/Mol-Kelvin
 Total                   27.348             17.843             75.617
 Electronic               0.000              0.000              2.755
 Translational            0.889              2.981             38.480
 Rotational               0.889              2.981             24.091
 Vibrational             25.570             11.881             10.291
 Vibration     1          0.603              1.952              3.545
 Vibration     2          0.622              1.892              2.554
 Vibration     3          0.753              1.504              1.023
 Vibration     4          0.795              1.395              0.844
 Vibration     5          0.802              1.377              0.819
 Vibration     6          0.825              1.322              0.744

 Optimization completed.
    -- Stationary point found.
 Normal termination of Gaussian 09 at Fri Mar  1 08:52:30 2019.
