 Gaussian 09, Revision E.01,
 Gaussian 09:  EM64L-G09RevE.01 30-Nov-2015

 ------------------------------------------------------
 #p b3lyp/6-311++G(3df,2p) freq IOp(2/17=3) IOp(2/18=3)
 ------------------------------------------------------

 ---------
 b3lyp opt
 ---------
 Symbolic Z-matrix:
 Charge =  0 Multiplicity = 1

                         Standard orientation:
 ---------------------------------------------------------------------
 Center     Atomic      Atomic             Coordinates (Angstroms)
 Number     Number       Type             X           Y           Z
 ---------------------------------------------------------------------
      1          6           0        0.000000   -0.000000   -0.962290
      2          1           0        0.000000    0.814975    1.024098
      3          1           0       -0.000000   -0.814975    1.024098
      4          8           0        0.000000    0.000000    0.465666
 ---------------------------------------------------------------------

 SCF Done:  E(RB3LYP) =  -114.293853135     A.U. after   12 cycles

 The electronic state is 1-A1.
 Alpha  occ. eigenvalues --  -19.29784 -10.19906  -1.17234  -0.70466  -0.67123
 Alpha  occ. eigenvalues --   -0.48169  -0.33278  -0.14161
 Alpha virt. eigenvalues --   -0.06598  -0.05324  -0.00818   0.06234   0.06812
 Alpha virt. eigenvalues --    0.07744   0.10769   0.10958   0.12192   0.14325
 Alpha virt. eigenvalues --    0.15451   0.22705   0.24579   0.25829   0.34313

 Mulliken charges:
               1
     1  C   -0.362718
     2  H    0.299250
     3  H    0.299250
     4  O   -0.235782
 Sum of Mulliken charges =  -0.00000

 Dipole moment (field-independent basis, Debye):
    X=             -0.0000    Y=             -0.0000    Z=              5.6175  Tot=              5.6175
 Quadrupole moment (field-independent basis, Debye-Ang):
   XX=            -12.9391   YY=            -14.1363   ZZ=            -14.1855
   XY=              0.0000   XZ=             -0.0000   YZ=             -0.0000

  Exact polarizability:  17.629  -0.000  32.232   0.000   0.000  42.655
 Approx polarizability:  26.204   0.000  36.483  -0.000   0.000  56.292

                      1                      2                      3
                     A1                     B1                     B2
 Frequencies --    514.4752               561.7286               784.1142
 Red. masses --     12.6039                 1.2574                 1.1729
 Frc consts  --      1.9656                 0.2338                 0.4249
 IR Inten    --      9.3002               231.9862               226.5194

                      4                      5                      6
                     A1                     B2                     A1
 Frequencies --   1618.5506              2681.8048              3225.4463
 Red. masses --      1.0645                 1.1411                 1.0222
 Frc consts  --      1.6430                 4.8351                 6.2657
 IR Inten    --     55.7573               170.2839               464.7989

 - Thermochemistry -
 -------------------
 Temperature   298.150 Kelvin.  Pressure   1.00000 Atm.
 Atom     1 has atomic number  6 and mass  12.00000

 Molecular mass:    30.01056 amu.
 Principal axes and moments of inertia in atomic units:
                           1         2         3
     Eigenvalues --     4.78081  59.12399  63.90480
           X            0.00000  -0.00000   1.00000
           Y            0.00000   1.00000   0.00000
           Z            1.00000   0.00000   0.00000
 This molecule is an asymmetric top.
 Rotational symmetry number  2.
 Rotational temperatures (Kelvin)     18.11697     1.46495     1.35536
 Rotational constants (GHZ):         377.49685    30.52469    28.24109
 Zero-point vibrational energy      56141.5 (Joules/Mol)
                                   13.41813 (Kcal/Mol)
 Warning -- explicit consideration of   2 degrees of freedom as
           vibrations may cause significant error
 Vibrational temperatures:    740.21   808.20  1128.16  2328.73  3858.51
          (Kelvin)           4640.69

 Zero-point correction=                           0.021383 (Hartree/Particle)
 Thermal correction to Energy=                    0.024698
 Thermal correction to Enthalpy=                  0.025642
 Thermal correction to Gibbs Free Energy=         0.000144
 Sum of electronic and zero-point Energies=           -114.272470
 Sum of electronic and thermal Energies=              -114.269155
 Sum of electronic and thermal Enthalpies=            -114.268211
 Sum of electronic and thermal Free Energies=         -114.293710

                     E (Thermal)             CV                S
                      KCal/Mol        Cal/Mol-Kelvin    Cal/Mol-Kelvin
 Total                   15.498              9.021             53.666
 Electronic               0.000              0.000              0.000
 Translational            0.889              2.981             36.130
 Rotational               0.889              2.981             16.164
 Vibrational             13.721              3.059              1.371
 Vibration     1          0.870              1.218              0.623
 Vibration     2          0.917              1.114              0.520

 Optimization completed.
    -- Stationary point found.
 Normal termination of Gaussian 09 at Fri Mar  1 08:44:47 2019.
