 Gaussian 09, Revision E.01,
 Gaussian 09:  EM64L-G09RevE.01 30-Nov-2015

 ------------------------------------------------------
 #p b3lyp/6-311++G(3df,2p) freq IOp(2/17=3) IOp(2/18=3)
 ------------------------------------------------------

 ---------
 b3lyp opt
 ---------
 Symbolic Z-matrix:
 Charge =  1 Multiplicity = 2

                         Standard orientation:
 ---------------------------------------------------------------------
 Center     Atomic      Atomic             Coordinates (Angstroms)
 Number     Number       Type             X           Y           Z
 ---------------------------------------------------------------------
      1          6           0        0.000000    0.000000   -0.932197
      2          1           0        0.000000   -0.839839    0.980117
      3          1           0       -0.000000    0.839839    0.980117
      4          8           0       -0.000000   -0.000000    0.454128
 ---------------------------------------------------------------------

 SCF Done:  E(UB3LYP) =  -114.050429995     A.U. after   10 cycles

 The electronic state is 2-B2.
 Alpha  occ. eigenvalues --  -19.59802 -10.60007  -1.48787  -1.04251  -0.98250
 Alpha  occ. eigenvalues --   -0.78641  -0.67521  -0.53213
 Alpha virt. eigenvalues --   -0.37933  -0.28303  -0.20678  -0.13345  -0.11430
 Alpha virt. eigenvalues --   -0.10912  -0.09384  -0.06882  -0.04853  -0.04123
 Alpha virt. eigenvalues --   -0.02376  -0.01749   0.04280   0.07163   0.07510

  Beta  occ. eigenvalues --  -19.59879 -10.58368  -1.48415  -1.02176  -0.97464
  Beta  occ. eigenvalues --   -0.78691  -0.63773
  Beta virt. eigenvalues --   -0.36205  -0.34881  -0.27879  -0.20312  -0.12464
  Beta virt. eigenvalues --   -0.11382  -0.10463  -0.08900  -0.05321  -0.04639
  Beta virt. eigenvalues --   -0.03870  -0.02351  -0.00927   0.05021   0.07208

 Mulliken charges and spin densities:
               1          2
     1  C    0.269353   0.980257
     2  H    0.346703   0.023100
     3  H    0.346703   0.023100
     4  O    0.037240  -0.026457
 Sum of Mulliken charges =   1.00000   1.00000

 Dipole moment (field-independent basis, Debye):
    X=             -0.0000    Y=              0.0000    Z=              3.3736  Tot=              3.3736
 Quadrupole moment (field-independent basis, Debye-Ang):
   XX=            -10.3132   YY=             -7.4824   ZZ=             -6.6388
   XY=             -0.0000   XZ=             -0.0000   YZ=              0.0000

  Exact polarizability:  11.897   0.000  14.397  -0.000  -0.000  19.009
 Approx polarizability:  17.463  -0.000  17.569  -0.000   0.000  25.489

                      1                      2                      3
                     B1                     A1                     B2
 Frequencies --    544.0639               890.5319               931.2812
 Red. masses --      1.2524                 8.4698                 1.2287
 Frc consts  --      0.2184                 3.9575                 0.6279
 IR Inten    --    329.8518               146.4587                12.4188

                      4                      5                      6
                     A1                     A1                     B2
 Frequencies --   1610.8388              3392.2840              3473.2984
 Red. masses --      1.0993                 1.0317                 1.0977
 Frc consts  --      1.6806                 6.9947                 7.8023
 IR Inten    --    131.9011               190.3732               418.2732

 - Thermochemistry -
 -------------------
 Temperature   298.150 Kelvin.  Pressure   1.00000 Atm.
 Atom     1 has atomic number  6 and mass  12.00000

 Molecular mass:    30.01056 amu.
 Principal axes and moments of inertia in atomic units:
                           1         2         3
     Eigenvalues --     5.07697  55.48199  60.55896
           X           -0.00000  -0.00000   1.00000
           Y            0.00000   1.00000   0.00000
           Z            1.00000  -0.00000   0.00000
 This molecule is an asymmetric top.
 Rotational symmetry number  2.
 Rotational temperatures (Kelvin)     17.06013     1.56112     1.43024
 Rotational constants (GHZ):         355.47595    32.52842    29.80139
 Zero-point vibrational energy      64851.3 (Joules/Mol)
                                   15.49984 (Kcal/Mol)
 Warning -- explicit consideration of   1 degrees of freedom as
           vibrations may cause significant error
 Vibrational temperatures:    782.79  1281.28  1339.90  2317.63  4880.73
          (Kelvin)           4997.30

 Zero-point correction=                           0.024701 (Hartree/Particle)
 Thermal correction to Energy=                    0.027834
 Thermal correction to Enthalpy=                  0.028778
 Thermal correction to Gibbs Free Energy=         0.002908
 Sum of electronic and zero-point Energies=           -114.025729
 Sum of electronic and thermal Energies=              -114.022596
 Sum of electronic and thermal Enthalpies=            -114.021652
 Sum of electronic and thermal Free Energies=         -114.047522

                     E (Thermal)             CV                S
                      KCal/Mol        Cal/Mol-Kelvin    Cal/Mol-Kelvin
 Total                   17.466              8.137             54.447
 Electronic               0.000              0.000              1.377
 Translational            0.889              2.981             36.130
 Rotational               0.889              2.981             16.108
 Vibrational             15.688              2.175              0.832
 Vibration     1          0.899              1.153              0.557

 Optimization completed.
    -- Stationary point found.
 Normal termination of Gaussian 09 at Fri Mar  1 08:55:31 2019.
