 Gaussian 09, Revision E.01,
 Gaussian 09:  EM64L-G09RevE.01 30-Nov-2015

 ------------------------------------------------------
 #p b3lyp/6-311++G(3df,2p) freq IOp(2/17=3) IOp(2/18=3)
 ------------------------------------------------------

 ---------
 b3lyp opt
 ---------
 Symbolic Z-matrix:
 Charge =  1 Multiplicity = 4

                         Standard orientation:
 ---------------------------------------------------------------------
 Center     Atomic      Atomic             Coordinates (Angstroms)
 Number     Number       Type             X           Y           Z
 ---------------------------------------------------------------------
      1          6           0        0.822767   -0.174626    0.034377
      2          1           0        1.377009    0.773715    0.029555
      3          1           0       -1.128778    0.053564    0.755690
      4          8           0       -0.648104    0.027560   -0.123939
 ---------------------------------------------------------------------

 SCF Done:  E(UB3LYP) =  -113.942819025     A.U. after   14 cycles

 The electronic state is 4-A.
 Alpha  occ. eigenvalues --  -19.64668 -10.59031  -1.47237  -1.02371  -0.88098
 Alpha  occ. eigenvalues --   -0.84481  -0.80273  -0.62399  -0.54971
 Alpha virt. eigenvalues --   -0.27852  -0.20679  -0.16314  -0.11615  -0.10389
 Alpha virt. eigenvalues --   -0.08234  -0.07303  -0.06860  -0.02402  -0.02017
 Alpha virt. eigenvalues --   -0.01088   0.03500   0.05228   0.08372   0.13852

  Beta  occ. eigenvalues --  -19.61721 -10.55563  -1.39455  -0.96576  -0.82322
  Beta  occ. eigenvalues --   -0.76624
  Beta virt. eigenvalues --   -0.58820  -0.39554  -0.34001  -0.25427  -0.17122
  Beta virt. eigenvalues --   -0.14862  -0.10010  -0.09042  -0.07177  -0.06118
  Beta virt. eigenvalues --   -0.04724  -0.01338  -0.01157  -0.00038   0.04693

 Mulliken charges and spin densities:
               1          2
     1  C    0.285968   1.908517
     2  H    0.273435   0.081254
     3  H    0.378019  -0.012399
     4  O    0.062579   1.022628
 Sum of Mulliken charges =   1.00000   3.00000

 Dipole moment (field-independent basis, Debye):
    X=             -0.5539    Y=              0.5553    Z=              1.5976  Tot=              1.7797
 Quadrupole moment (field-independent basis, Debye-Ang):
   XX=             -4.3580   YY=             -9.1813   ZZ=             -9.6218
   XY=              1.1400   XZ=             -2.1346   YZ=              0.2625

  Exact polarizability:  19.114   0.446  11.393  -0.646   0.036  11.850
 Approx polarizability:  24.569   0.749  14.075  -0.355   0.059  14.675

                      1                      2                      3
                      A                      A                      A
 Frequencies --    497.5196               721.0247              1002.1385
 Red. masses --      1.1669                 3.1007                 1.1427
 Frc consts  --      0.1702                 0.9498                 0.6761
 IR Inten    --     97.5327                41.4306               130.6774

                      4                      5                      6
                      A                      A                      A
 Frequencies --   1037.5468              3011.9917              3352.1337
 Red. masses --      1.4664                 1.0813                 1.0666
 Frc consts  --      0.9301                 5.7799                 7.0614
 IR Inten    --      4.6553               135.7033               287.1203

 - Thermochemistry -
 -------------------
 Temperature   298.150 Kelvin.  Pressure   1.00000 Atm.
 Atom     1 has atomic number  6 and mass  12.00000

 Molecular mass:    30.01056 amu.
 Principal axes and moments of inertia in atomic units:
                           1         2         3
     Eigenvalues --     6.00622  67.49156  68.00845
           X            0.99721   0.06879  -0.02894
           Y           -0.05852   0.96141   0.26882
           Z            0.04631  -0.26638   0.96276
 This molecule is an asymmetric top.
 Rotational symmetry number  1.
 Rotational temperatures (Kelvin)     14.42068     1.28333     1.27357
 Rotational constants (GHZ):         300.47858    26.74025    26.53701
 Zero-point vibrational energy      57554.5 (Joules/Mol)
                                   13.75585 (Kcal/Mol)
 Warning -- explicit consideration of   1 degrees of freedom as
           vibrations may cause significant error
 Vibrational temperatures:    715.82  1037.39  1441.85  1492.80  4333.58
          (Kelvin)           4822.97

 Zero-point correction=                           0.021921 (Hartree/Particle)
 Thermal correction to Energy=                    0.025153
 Thermal correction to Enthalpy=                  0.026097
 Thermal correction to Gibbs Free Energy=        -0.001445
 Sum of electronic and zero-point Energies=           -113.920898
 Sum of electronic and thermal Energies=              -113.917666
 Sum of electronic and thermal Enthalpies=            -113.916722
 Sum of electronic and thermal Free Energies=         -113.944264

                     E (Thermal)             CV                S
                      KCal/Mol        Cal/Mol-Kelvin    Cal/Mol-Kelvin
 Total                   15.784              8.720             57.967
 Electronic               0.000              0.000              2.755
 Translational            0.889              2.981             36.130
 Rotational               0.889              2.981             17.962
 Vibrational             14.006              2.758              1.120
 Vibration     1          0.853              1.256              0.664

 Optimization completed.
    -- Stationary point found.
 Normal termination of Gaussian 09 at Fri Mar  1 08:55:40 2019.
