 Gaussian 09, Revision E.01,
 Gaussian 09:  EM64L-G09RevE.01 30-Nov-2015

 ------------------------------------------------------
 #p b3lyp/6-311++G(3df,2p) freq IOp(2/17=3) IOp(2/18=3)
 ------------------------------------------------------

 ---------
 b3lyp opt
 ---------
 Symbolic Z-matrix:
 Charge =  0 Multiplicity = 1

                         Standard orientation:
 ---------------------------------------------------------------------
 Center     Atomic      Atomic             Coordinates (Angstroms)
 Number     Number       Type             X           Y           Z
 ---------------------------------------------------------------------
      1          6           0        0.000000    0.000000   -0.526116
      2          1           0        0.000000    0.938553   -1.111593
      3          1           0       -0.000000   -0.938553   -1.111593
      4          8           0       -0.000000   -0.000000    0.672499
 ---------------------------------------------------------------------

 SCF Done:  E(RB3LYP) =  -114.549477648     A.U. after    9 cycles

 The electronic state is 1-A1.
 Alpha  occ. eigenvalues --  -19.14990 -10.27561  -1.07492  -0.64422  -0.50747
 Alpha  occ. eigenvalues --   -0.46428  -0.41432  -0.28159
 Alpha virt. eigenvalues --   -0.06316  -0.00634   0.02515   0.03846   0.06488
 Alpha virt. eigenvalues --    0.10510   0.10800   0.13017   0.17990   0.18232
 Alpha virt. eigenvalues --    0.21720   0.23840   0.28002   0.28459   0.34747

 Mulliken charges:
               1
     1  C    0.220966
     2  H    0.125550
     3  H    0.125550
     4  O   -0.472066
 Sum of Mulliken charges =   0.00000

 Dipole moment (field-independent basis, Debye):
    X=              0.0000    Y=             -0.0000    Z=             -2.3982  Tot=              2.3982
 Quadrupole moment (field-independent basis, Debye-Ang):
   XX=            -11.7423   YY=            -11.7034   ZZ=            -12.4243
   XY=              0.0000   XZ=              0.0000   YZ=              0.0000

  Exact polarizability:  12.160   0.000  17.748  -0.000   0.000  22.332
 Approx polarizability:  16.191   0.000  21.582  -0.000   0.000  33.820

                      1                      2                      3
                     B1                     B2                     A1
 Frequencies --   1200.4864              1266.0534              1531.9402
 Red. masses --      1.3678                 1.3439                 1.1038
 Frc consts  --      1.1614                 1.2692                 1.5263
 IR Inten    --      5.3522                11.3488                11.0212

                      4                      5                      6
                     A1                     A1                     B2
 Frequencies --   1821.6177              2881.9982              2938.2429
 Red. masses --      7.5726                 1.0427                 1.1208
 Frc consts  --     14.8051                 5.1028                 5.7012
 IR Inten    --    114.5801                73.6932               118.5828

 - Thermochemistry -
 -------------------
 Temperature   298.150 Kelvin.  Pressure   1.00000 Atm.
 Atom     1 has atomic number  6 and mass  12.00000

 Molecular mass:    30.01056 amu.
 Principal axes and moments of inertia in atomic units:
                           1         2         3
     Eigenvalues --     6.34060  46.01078  52.35137
           X           -0.00000  -0.00000   1.00000
           Y            0.00000   1.00000   0.00000
           Z            1.00000  -0.00000   0.00000
 This molecule is an asymmetric top.
 Rotational symmetry number  2.
 Rotational temperatures (Kelvin)     13.66020     1.88247     1.65447
 Rotational constants (GHZ):         284.63271    39.22432    34.47362
 Zero-point vibrational energy      69624.7 (Joules/Mol)
                                   16.64070 (Kcal/Mol)
 Vibrational temperatures:   1727.23  1821.57  2204.12  2620.90  4146.55
          (Kelvin)           4227.47

 Zero-point correction=                           0.026519 (Hartree/Particle)
 Thermal correction to Energy=                    0.029386
 Thermal correction to Enthalpy=                  0.030331
 Thermal correction to Gibbs Free Energy=         0.005522
 Sum of electronic and zero-point Energies=           -114.522959
 Sum of electronic and thermal Energies=              -114.520091
 Sum of electronic and thermal Enthalpies=            -114.519147
 Sum of electronic and thermal Free Energies=         -114.543956

                     E (Thermal)             CV                S
                      KCal/Mol        Cal/Mol-Kelvin    Cal/Mol-Kelvin
 Total                   18.440              6.423             52.214
 Electronic               0.000              0.000              0.000
 Translational            0.889              2.981             36.130
 Rotational               0.889              2.981             15.998
 Vibrational             16.663              0.461              0.086

 Optimization completed.
    -- Stationary point found.
 Normal termination of Gaussian 09 at Fri Mar  1 08:44:46 2019.
