 Gaussian 09, Revision E.01,
 Gaussian 09:  EM64L-G09RevE.01 30-Nov-2015

 ------------------------------------------------------
 #p b3lyp/6-311++G(3df,2p) freq IOp(2/17=3) IOp(2/18=3)
 ------------------------------------------------------

 ---------
 b3lyp opt
 ---------
 Symbolic Z-matrix:
 Charge =  1 Multiplicity = 4

                         Standard orientation:
 ---------------------------------------------------------------------
 Center     Atomic      Atomic             Coordinates (Angstroms)
 Number     Number       Type             X           Y           Z
 ---------------------------------------------------------------------
      1          6           0       -0.059897   -0.672789    0.000000
      2          1           0        0.419289   -1.034140   -0.937757
      3          1           0        0.419289   -1.034140    0.937757
      4          8           0       -0.059897    0.763115   -0.000000
 ---------------------------------------------------------------------

 SCF Done:  E(UB3LYP) =  -113.958031463     A.U. after   13 cycles

 The electronic state is 4-A".
 Alpha  occ. eigenvalues --  -19.69088 -10.59513  -1.47699  -1.02153  -0.87353
 Alpha  occ. eigenvalues --   -0.87163  -0.83250  -0.73177  -0.58891
 Alpha virt. eigenvalues --   -0.23316  -0.19805  -0.15498  -0.11889  -0.10362
 Alpha virt. eigenvalues --   -0.09964  -0.08065  -0.04136  -0.02603  -0.02507
 Alpha virt. eigenvalues --   -0.01597  -0.01567   0.06632   0.12178   0.12185

  Beta  occ. eigenvalues --  -19.64050 -10.57651  -1.35012  -0.95211  -0.78982
  Beta  occ. eigenvalues --   -0.76769
  Beta virt. eigenvalues --   -0.59035  -0.54977  -0.36884  -0.20306  -0.18215
  Beta virt. eigenvalues --   -0.14319  -0.10244  -0.09014  -0.08423  -0.06257
  Beta virt. eigenvalues --   -0.03584  -0.01904  -0.01595  -0.00174   0.00207

 Mulliken charges and spin densities:
               1          2
     1  C    0.215459   1.041320
     2  H    0.277626   0.097301
     3  H    0.277626   0.097301
     4  O    0.229290   1.764077
 Sum of Mulliken charges =   1.00000   3.00000

 Dipole moment (field-independent basis, Debye):
    X=              0.7075    Y=             -1.3994    Z=             -0.0000  Tot=              1.5681
 Quadrupole moment (field-independent basis, Debye-Ang):
   XX=             -9.6443   YY=             -6.6541   ZZ=             -7.7387
   XY=             -1.3583   XZ=              0.0000   YZ=              0.0000

  Exact polarizability:  11.198  -1.592  20.717   0.000   0.000  13.388
 Approx polarizability:  13.825  -3.074  32.647  -0.000  -0.000  17.393

                      1                      2                      3
                     A'                     A"                     A'
 Frequencies --    679.7693               790.6914               944.4886
 Red. masses --      1.9410                 1.1925                 2.5329
 Frc consts  --      0.5284                 0.4393                 1.3313
 IR Inten    --     56.9532                 0.7101                23.0439

                      4                      5                      6
                     A'                     A'                     A"
 Frequencies --   1178.2487              2811.4213              2875.2725
 Red. masses --      1.1061                 1.0384                 1.1042
 Frc consts  --      0.9047                 4.8358                 5.3784
 IR Inten    --    107.8862               288.5209               175.3474

 - Thermochemistry -
 -------------------
 Temperature   298.150 Kelvin.  Pressure   1.00000 Atm.
 Atom     1 has atomic number  6 and mass  12.00000

 Molecular mass:    30.01056 amu.
 Principal axes and moments of inertia in atomic units:
                           1         2         3
     Eigenvalues --     7.62477  61.40051  66.43544
           X           -0.06479   0.00000   0.99790
           Y            0.99790   0.00000   0.06479
           Z           -0.00000   1.00000  -0.00000
 This molecule is an asymmetric top.
 Rotational symmetry number  1.
 Rotational temperatures (Kelvin)     11.35953     1.41064     1.30373
 Rotational constants (GHZ):         236.69446    29.39294    27.16534
 Zero-point vibrational energy      55506.1 (Joules/Mol)
                                   13.26627 (Kcal/Mol)
 Vibrational temperatures:    978.04  1137.63  1358.91  1695.23  4045.00
          (Kelvin)           4136.87

 Zero-point correction=                           0.021141 (Hartree/Particle)
 Thermal correction to Energy=                    0.024240
 Thermal correction to Enthalpy=                  0.025184
 Thermal correction to Gibbs Free Energy=        -0.002219
 Sum of electronic and zero-point Energies=           -113.936890
 Sum of electronic and thermal Energies=              -113.933792
 Sum of electronic and thermal Enthalpies=            -113.932847
 Sum of electronic and thermal Free Energies=         -113.960251

                     E (Thermal)             CV                S
                      KCal/Mol        Cal/Mol-Kelvin    Cal/Mol-Kelvin
 Total                   15.211              8.159             57.675
 Electronic               0.000              0.000              2.755
 Translational            0.889              2.981             36.130
 Rotational               0.889              2.981             18.082
 Vibrational             13.433              2.197              0.708

 Normal termination of Gaussian 09 at Fri Mar  1 08:55:34 2019.
