 Gaussian 09, Revision E.01,
 Gaussian 09:  EM64L-G09RevE.01 30-Nov-2015

 ------------------------------------------------------
 #p b3lyp/6-311++G(3df,2p) freq IOp(2/17=3) IOp(2/18=3)
 ------------------------------------------------------

 ---------
 b3lyp opt
 ---------
 Symbolic Z-matrix:
 Charge =  0 Multiplicity = 3

                         Standard orientation:
 ---------------------------------------------------------------------
 Center     Atomic      Atomic             Coordinates (Angstroms)
 Number     Number       Type             X           Y           Z
 ---------------------------------------------------------------------
      1          6           0       -0.049256   -0.592886    0.000000
      2          1           0        0.344790   -1.043783   -0.921314
      3          1           0        0.344790   -1.043783    0.921314
      4          8           0       -0.049256    0.705608   -0.000000
 ---------------------------------------------------------------------

 SCF Done:  E(UB3LYP) =  -114.441216780     A.U. after   12 cycles

 The electronic state is 3-A".
 Alpha  occ. eigenvalues --  -19.22378 -10.23528  -1.09314  -0.66949  -0.52860
 Alpha  occ. eigenvalues --   -0.48897  -0.44002  -0.36708  -0.20263
 Alpha virt. eigenvalues --   -0.00454   0.02737   0.03412   0.06005   0.10005
 Alpha virt. eigenvalues --    0.11221   0.13578   0.16861   0.17736   0.20388
 Alpha virt. eigenvalues --    0.20904   0.21500   0.32198   0.33888   0.34827

  Beta  occ. eigenvalues --  -19.19380 -10.22381  -1.02803  -0.62087  -0.46471
  Beta  occ. eigenvalues --   -0.45629  -0.37369
  Beta virt. eigenvalues --   -0.18117  -0.05503  -0.00177   0.02893   0.03671
  Beta virt. eigenvalues --    0.07278   0.10474   0.11673   0.14628   0.18244
  Beta virt. eigenvalues --    0.18245   0.20995   0.22370   0.22664   0.33752

 Mulliken charges and spin densities:
               1          2
     1  C   -0.072505   0.780898
     2  H    0.173005   0.101621
     3  H    0.173005   0.101621
     4  O   -0.273506   1.015860
 Sum of Mulliken charges =  -0.00000   2.00000

 Dipole moment (field-independent basis, Debye):
    X=              0.8164    Y=             -1.2293    Z=             -0.0000  Tot=              1.4757
 Quadrupole moment (field-independent basis, Debye-Ang):
   XX=            -13.4621   YY=            -12.6495   ZZ=            -10.5921
   XY=             -0.9613   XZ=             -0.0000   YZ=              0.0000

  Exact polarizability:  17.717  -0.462  23.870   0.000  -0.000  17.463
 Approx polarizability:  20.748  -1.217  34.243   0.000  -0.000  22.304

                      1                      2                      3
                     A'                     A"                     A'
 Frequencies --    733.9771               865.2664              1282.4535
 Red. masses --      1.3238                 1.2479                 1.5309
 Frc consts  --      0.4202                 0.5505                 1.4835
 IR Inten    --     45.5332                 1.7226                22.1153

                      4                      5                      6
                     A'                     A'                     A"
 Frequencies --   1294.1181              2924.0823              3012.4890
 Red. masses --      2.6092                 1.0386                 1.1063
 Frc consts  --      2.5746                 5.2323                 5.9152
 IR Inten    --     22.4461                10.1825                 0.0189

 - Thermochemistry -
 -------------------
 Temperature   298.150 Kelvin.  Pressure   1.00000 Atm.
 Atom     1 has atomic number  6 and mass  12.00000

 Molecular mass:    30.01056 amu.
 Principal axes and moments of inertia in atomic units:
                           1         2         3
     Eigenvalues --     6.95317  51.87789  57.14436
           X           -0.06300  -0.00000   0.99801
           Y            0.99801   0.00000   0.06300
           Z           -0.00000   1.00000   0.00000
 This molecule is an asymmetric top.
 Rotational symmetry number  1.
 Rotational temperatures (Kelvin)     12.45673     1.66957     1.51570
 Rotational constants (GHZ):         259.55653    34.78825    31.58214
 Zero-point vibrational energy      60485.5 (Joules/Mol)
                                   14.45638 (Kcal/Mol)
 Vibrational temperatures:   1056.03  1244.92  1845.16  1861.94  4207.10
          (Kelvin)           4334.29

 Zero-point correction=                           0.023038 (Hartree/Particle)
 Thermal correction to Energy=                    0.026055
 Thermal correction to Enthalpy=                  0.026999
 Thermal correction to Gibbs Free Energy=         0.000167
 Sum of electronic and zero-point Energies=           -114.418179
 Sum of electronic and thermal Energies=              -114.415162
 Sum of electronic and thermal Enthalpies=            -114.414218
 Sum of electronic and thermal Free Energies=         -114.441049

                     E (Thermal)             CV                S
                      KCal/Mol        Cal/Mol-Kelvin    Cal/Mol-Kelvin
 Total                   16.350              7.585             56.472
 Electronic               0.000              0.000              2.183
 Translational            0.889              2.981             36.130
 Rotational               0.889              2.981             17.673
 Vibrational             14.572              1.623              0.486

 Optimization completed.
    -- Stationary point found.
 Normal termination of Gaussian 09 at Fri Mar  1 08:55:33 2019.
