 Gaussian 09, Revision E.01,
 Gaussian 09:  EM64L-G09RevE.01 30-Nov-2015

 ------------------------------------------------------
 #p b3lyp/6-311++G(3df,2p) freq IOp(2/17=3) IOp(2/18=3)
 ------------------------------------------------------

 ---------
 b3lyp opt
 ---------
 Symbolic Z-matrix:
 Charge =  0 Multiplicity = 1

                         Standard orientation:
 ---------------------------------------------------------------------
 Center     Atomic      Atomic             Coordinates (Angstroms)
 Number     Number       Type             X           Y           Z
 ---------------------------------------------------------------------
      1          6           0        0.010689   -0.739872    0.000000
      2          1           0       -1.075125   -0.981961   -0.000000
      3          1           0        0.925485    0.882738    0.000000
      4          8           0        0.010689    0.567307   -0.000000
 ---------------------------------------------------------------------

 SCF Done:  E(RB3LYP) =  -114.465523467     A.U. after   10 cycles

 The electronic state is 1-A'.
 Alpha  occ. eigenvalues --  -19.21917 -10.24428  -1.12318  -0.69358  -0.49424
 Alpha  occ. eigenvalues --   -0.47308  -0.43815  -0.23199
 Alpha virt. eigenvalues --   -0.06969  -0.01760   0.01576   0.06127   0.07139
 Alpha virt. eigenvalues --    0.08267   0.11211   0.13593   0.16013   0.18200
 Alpha virt. eigenvalues --    0.18512   0.22619   0.25886   0.30272   0.33086

 Mulliken charges:
               1
     1  C   -0.149065
     2  H    0.150013
     3  H    0.289276
     4  O   -0.290224
 Sum of Mulliken charges =   0.00000

 Dipole moment (field-independent basis, Debye):
    X=              0.1307    Y=              1.6534    Z=             -0.0000  Tot=              1.6585
 Quadrupole moment (field-independent basis, Debye-Ang):
   XX=            -11.4558   YY=            -14.0854   ZZ=            -12.3947
   XY=              3.8713   XZ=             -0.0000   YZ=              0.0000

  Exact polarizability:  21.779   1.898  22.666   0.000  -0.000  16.323
 Approx polarizability:  26.934   3.610  29.812   0.000  -0.000  22.636

                      1                      2                      3
                     A"                     A'                     A'
 Frequencies --   1089.8228              1215.9048              1327.0689
 Red. masses --      1.0745                 1.1251                 8.4165
 Frc consts  --      0.7519                 0.9800                 8.7331
 IR Inten    --    114.7919               142.4608                75.5730

                      4                      5                      6
                     A'                     A'                     A'
 Frequencies --   1502.7011              2850.8981              3721.5356
 Red. masses --      1.2103                 1.0826                 1.0662
 Frc consts  --      1.6103                 5.1840                 8.7001
 IR Inten    --     22.6681               132.7585                75.8763

 - Thermochemistry -
 -------------------
 Temperature   298.150 Kelvin.  Pressure   1.00000 Atm.
 Atom     1 has atomic number  6 and mass  12.00000

 Molecular mass:    30.01056 amu.
 Principal axes and moments of inertia in atomic units:
                           1         2         3
     Eigenvalues --     6.16675  49.19945  55.36620
           X            0.15877   0.98732   0.00000
           Y            0.98732  -0.15877   0.00000
           Z            0.00000   0.00000   1.00000
 This molecule is an asymmetric top.
 Rotational symmetry number  1.
 Rotational temperatures (Kelvin)     14.04530     1.76046     1.56438
 Rotational constants (GHZ):         292.65686    36.68214    32.59644
 Zero-point vibrational energy      70029.0 (Joules/Mol)
                                   16.73733 (Kcal/Mol)
 Vibrational temperatures:   1568.01  1749.41  1909.35  2162.05  4101.80
          (Kelvin)           5354.45

 Zero-point correction=                           0.026673 (Hartree/Particle)
 Thermal correction to Energy=                    0.029562
 Thermal correction to Enthalpy=                  0.030506
 Thermal correction to Gibbs Free Energy=         0.004972
 Sum of electronic and zero-point Energies=           -114.438851
 Sum of electronic and thermal Energies=              -114.435962
 Sum of electronic and thermal Enthalpies=            -114.435018
 Sum of electronic and thermal Free Energies=         -114.460551

                     E (Thermal)             CV                S
                      KCal/Mol        Cal/Mol-Kelvin    Cal/Mol-Kelvin
 Total                   18.550              6.655             53.740
 Electronic               0.000              0.000              0.000
 Translational            0.889              2.981             36.130
 Rotational               0.889              2.981             17.470
 Vibrational             16.773              0.693              0.140

 Optimization completed.
    -- Stationary point found.
 Normal termination of Gaussian 09 at Fri Mar  1 08:55:29 2019.
