 Gaussian 09, Revision E.01,
 Gaussian 09:  EM64L-G09RevE.01 30-Nov-2015

 ------------------------------------------------------
 #p b3lyp/6-311++G(3df,2p) freq IOp(2/17=3) IOp(2/18=3)
 ------------------------------------------------------

 ---------
 b3lyp opt
 ---------
 Symbolic Z-matrix:
 Charge =  1 Multiplicity = 2

                         Standard orientation:
 ---------------------------------------------------------------------
 Center     Atomic      Atomic             Coordinates (Angstroms)
 Number     Number       Type             X           Y           Z
 ---------------------------------------------------------------------
      1          6           0       -0.103598    0.666881    0.000000
      2          1           0        0.713468    1.407230    0.000000
      3          1           0        0.736909   -1.074059   -0.000000
      4          8           0       -0.103598   -0.541807   -0.000000
 ---------------------------------------------------------------------

 SCF Done:  E(UB3LYP) =  -114.133786603     A.U. after   12 cycles

 The electronic state is 2-A'.
 Alpha  occ. eigenvalues --  -19.56388 -10.64276  -1.48687  -1.03699  -0.91075
 Alpha  occ. eigenvalues --   -0.79298  -0.78558  -0.58630
 Alpha virt. eigenvalues --   -0.39080  -0.24598  -0.17651  -0.13837  -0.11653
 Alpha virt. eigenvalues --   -0.10182  -0.07036  -0.06071  -0.03097  -0.00860
 Alpha virt. eigenvalues --   -0.00671   0.03803   0.04353   0.07948   0.09999

  Beta  occ. eigenvalues --  -19.56194 -10.62590  -1.48036  -1.01675  -0.88734
  Beta  occ. eigenvalues --   -0.78244  -0.76297
  Beta virt. eigenvalues --   -0.40961  -0.36836  -0.23825  -0.16907  -0.13221
  Beta virt. eigenvalues --   -0.11466  -0.09634  -0.06402  -0.05124  -0.02683
  Beta virt. eigenvalues --   -0.00652  -0.00616   0.05029   0.05535   0.08654

 Mulliken charges and spin densities:
               1          2
     1  C    0.482105   0.873401
     2  H    0.290391   0.078640
     3  H    0.362270   0.067762
     4  O   -0.134765  -0.019803
 Sum of Mulliken charges =   1.00000   1.00000

 Dipole moment (field-independent basis, Debye):
    X=              2.3757    Y=              0.7141    Z=             -0.0000  Tot=              2.4807
 Quadrupole moment (field-independent basis, Debye-Ang):
   XX=             -8.2834   YY=             -4.5344   ZZ=             -9.7630
   XY=             -0.7485   XZ=             -0.0000   YZ=              0.0000

  Exact polarizability:  11.565  -0.429  17.560  -0.000   0.000   9.585
 Approx polarizability:  14.473  -0.715  25.776  -0.000   0.000  12.499

                      1                      2                      3
                     A"                     A'                     A'
 Frequencies --    907.3801               964.5247              1127.4007
 Red. masses --      1.2911                 1.0361                 1.4191
 Frc consts  --      0.6263                 0.5679                 1.0627
 IR Inten    --     32.8492                65.5320               190.5309

                      4                      5                      6
                     A'                     A'                     A'
 Frequencies --   1743.4887              3002.9510              3366.1718
 Red. masses --      7.5713                 1.1081                 1.0654
 Frc consts  --     13.5600                 5.8877                 7.1129
 IR Inten    --     94.4665                45.1832               300.4418

 - Thermochemistry -
 -------------------
 Temperature   298.150 Kelvin.  Pressure   1.00000 Atm.
 Atom     1 has atomic number  6 and mass  12.00000

 Molecular mass:    30.01056 amu.
 Principal axes and moments of inertia in atomic units:
                           1         2         3
     Eigenvalues --     4.59171  47.11302  51.70474
           X            0.02245   0.99975   0.00000
           Y            0.99975  -0.02245   0.00000
           Z            0.00000   0.00000   1.00000
 This molecule is an asymmetric top.
 Rotational symmetry number  1.
 Rotational temperatures (Kelvin)     18.86307     1.83843     1.67516
 Rotational constants (GHZ):         393.04298    38.30663    34.90476
 Zero-point vibrational energy      66464.0 (Joules/Mol)
                                   15.88528 (Kcal/Mol)
 Vibrational temperatures:   1305.52  1387.73  1622.08  2508.49  4320.57
          (Kelvin)           4843.16

 Zero-point correction=                           0.025315 (Hartree/Particle)
 Thermal correction to Energy=                    0.028266
 Thermal correction to Enthalpy=                  0.029210
 Thermal correction to Gibbs Free Energy=         0.003137
 Sum of electronic and zero-point Energies=           -114.108472
 Sum of electronic and thermal Energies=              -114.105520
 Sum of electronic and thermal Enthalpies=            -114.104576
 Sum of electronic and thermal Free Energies=         -114.130650

                     E (Thermal)             CV                S
                      KCal/Mol        Cal/Mol-Kelvin    Cal/Mol-Kelvin
 Total                   17.737              7.158             54.877
 Electronic               0.000              0.000              1.377
 Translational            0.889              2.981             36.130
 Rotational               0.889              2.981             17.066
 Vibrational             15.960              1.197              0.303

 Optimization completed.
    -- Stationary point found.
 Normal termination of Gaussian 09 at Fri Mar  1 08:55:35 2019.
