 Gaussian 09, Revision E.01,
 Gaussian 09:  EM64L-G09RevE.01 30-Nov-2015

 ------------------------------------------------------
 #p b3lyp/6-311++G(3df,2p) freq IOp(2/17=3) IOp(2/18=3)
 ------------------------------------------------------

 ---------
 b3lyp opt
 ---------
 Symbolic Z-matrix:
 Charge =  1 Multiplicity = 2

                         Standard orientation:
 ---------------------------------------------------------------------
 Center     Atomic      Atomic             Coordinates (Angstroms)
 Number     Number       Type             X           Y           Z
 ---------------------------------------------------------------------
      1          1           0       -0.000000    0.822078   -0.461910
      2          1           0       -0.000000   -0.822078   -0.461910
      3          8           0        0.000000    0.000000    0.115478
 ---------------------------------------------------------------------

 SCF Done:  E(UB3LYP) =  -75.9969241006     A.U. after    9 cycles

 The electronic state is 2-B1.
 Alpha  occ. eigenvalues --  -19.68213  -1.51002  -0.99365  -0.87275  -0.85569
 Alpha virt. eigenvalues --   -0.30518  -0.22819  -0.10918  -0.10476  -0.09388
 Alpha virt. eigenvalues --   -0.09141  -0.01902  -0.00633   0.19482   0.20267
 Alpha virt. eigenvalues --    0.23998   0.25939   0.30649   0.52986   0.53780

  Beta  occ. eigenvalues --  -19.65433  -1.43736  -0.97306  -0.82668
  Beta virt. eigenvalues --   -0.60817  -0.29569  -0.22311  -0.10060  -0.09167
  Beta virt. eigenvalues --   -0.09112  -0.08694  -0.01269  -0.00468   0.19502
  Beta virt. eigenvalues --    0.20532   0.25657   0.26731   0.32791   0.54077

 Mulliken charges and spin densities:
               1          2
     1  H    0.405560  -0.035162
     2  H    0.405560  -0.035162
     3  O    0.188879   1.070324
 Sum of Mulliken charges =   1.00000   1.00000

 Dipole moment (field-independent basis, Debye):
    X=             -0.0000    Y=             -0.0000    Z=             -2.1164  Tot=              2.1164
 Quadrupole moment (field-independent basis, Debye-Ang):
   XX=             -4.8394   YY=             -1.6209   ZZ=             -4.4501
   XY=              0.0000   XZ=              0.0000   YZ=             -0.0000

  Exact polarizability:   4.118  -0.000   6.405  -0.000  -0.000   5.061
 Approx polarizability:   4.775   0.000   7.877   0.000   0.000   6.167

                      1                      2                      3
                     A1                     A1                     B2
 Frequencies --   1446.5240              3343.1496              3390.2754
 Red. masses --      1.0856                 1.0424                 1.0871
 Frc consts  --      1.3384                 6.8646                 7.3619
 IR Inten    --    169.6012               117.8988               453.3445

 - Thermochemistry -
 -------------------
 Temperature   298.150 Kelvin.  Pressure   1.00000 Atm.
 Atom     1 has atomic number  1 and mass   1.00783

 Molecular mass:    18.01056 amu.
 Principal axes and moments of inertia in atomic units:
                           1         2         3
     Eigenvalues --     2.13109   4.86451   6.99560
           X           -0.00000   0.00000   1.00000
           Y            1.00000   0.00000   0.00000
           Z           -0.00000   1.00000  -0.00000
 This molecule is an asymmetric top.
 Rotational symmetry number  2.
 Rotational temperatures (Kelvin)     40.64292    17.80525    12.38118
 Rotational constants (GHZ):         846.86205   371.00159   257.98222
 Zero-point vibrational energy      48927.0 (Joules/Mol)
                                   11.69382 (Kcal/Mol)
 Vibrational temperatures:   2081.22  4810.04  4877.84
          (Kelvin)

 Zero-point correction=                           0.018635 (Hartree/Particle)
 Thermal correction to Energy=                    0.021474
 Thermal correction to Enthalpy=                  0.022418
 Thermal correction to Gibbs Free Energy=         0.000238
 Sum of electronic and zero-point Energies=            -75.978289
 Sum of electronic and thermal Energies=               -75.975450
 Sum of electronic and thermal Enthalpies=             -75.974506
 Sum of electronic and thermal Free Energies=          -75.996686

                     E (Thermal)             CV                S
                      KCal/Mol        Cal/Mol-Kelvin    Cal/Mol-Kelvin
 Total                   13.475              6.052             46.682
 Electronic               0.000              0.000              1.377
 Translational            0.889              2.981             34.608
 Rotational               0.889              2.981             10.682
 Vibrational             11.698              0.090              0.015

 Optimization completed.
    -- Stationary point found.
 Normal termination of Gaussian 09 at Fri Mar  1 08:55:50 2019.
