 Gaussian 09, Revision E.01,
 Gaussian 09:  EM64L-G09RevE.01 30-Nov-2015

 ------------------------------------------------------
 #p b3lyp/6-311++G(3df,2p) freq IOp(2/17=3) IOp(2/18=3)
 ------------------------------------------------------

 ---------
 b3lyp opt
 ---------
 Symbolic Z-matrix:
 Charge =  0 Multiplicity = 1

                         Standard orientation:
 ---------------------------------------------------------------------
 Center     Atomic      Atomic             Coordinates (Angstroms)
 Number     Number       Type             X           Y           Z
 ---------------------------------------------------------------------
      1          1           0        0.000000    0.763154   -0.467101
      2          1           0       -0.000000   -0.763154   -0.467101
      3          8           0        0.000000    0.000000    0.116776
 ---------------------------------------------------------------------

 SCF Done:  E(RB3LYP) =  -76.4633744458     A.U. after    8 cycles

 The electronic state is 1-A1.
 Alpha  occ. eigenvalues --  -19.13331  -1.02122  -0.54164  -0.39894  -0.32403
 Alpha virt. eigenvalues --   -0.02189   0.02948   0.13839   0.15097   0.15135
 Alpha virt. eigenvalues --    0.15446   0.21615   0.22432   0.49171   0.52789
 Alpha virt. eigenvalues --    0.60294   0.62505   0.67804   0.87958   0.88003

 Mulliken charges:
               1
     1  H    0.242341
     2  H    0.242341
     3  O   -0.484682
 Sum of Mulliken charges =   0.00000

 Dipole moment (field-independent basis, Debye):
    X=             -0.0000    Y=              0.0000    Z=             -1.9146  Tot=              1.9146
 Quadrupole moment (field-independent basis, Debye-Ang):
   XX=             -7.8071   YY=             -4.4361   ZZ=             -6.4698
   XY=              0.0000   XZ=              0.0000   YZ=             -0.0000

  Exact polarizability:   8.410   0.000   9.214   0.000  -0.000   8.336
 Approx polarizability:   9.250   0.000  11.745   0.000  -0.000  10.390

                      1                      2                      3
                     A1                     A1                     B2
 Frequencies --   1627.6404              3821.8484              3925.0852
 Red. masses --      1.0832                 1.0446                 1.0825
 Frc consts  --      1.6908                 8.9901                 9.8261
 IR Inten    --     75.4082                 6.4367                60.9808

 - Thermochemistry -
 -------------------
 Temperature   298.150 Kelvin.  Pressure   1.00000 Atm.
 Atom     1 has atomic number  1 and mass   1.00783

 Molecular mass:    18.01056 amu.
 Principal axes and moments of inertia in atomic units:
                           1         2         3
     Eigenvalues --     2.17927   4.19215   6.37142
           X            0.00000   0.00000   1.00000
           Y            1.00000   0.00000   0.00000
           Z           -0.00000   1.00000  -0.00000
 This molecule is an asymmetric top.
 Rotational symmetry number  2.
 Rotational temperatures (Kelvin)     39.74441    20.66095    13.59411
 Rotational constants (GHZ):         828.14019   430.50491   283.25572
 Zero-point vibrational energy      56072.4 (Joules/Mol)
                                   13.40163 (Kcal/Mol)
 Vibrational temperatures:   2341.81  5498.78  5647.32
          (Kelvin)

 Zero-point correction=                           0.021357 (Hartree/Particle)
 Thermal correction to Energy=                    0.024192
 Thermal correction to Enthalpy=                  0.025136
 Thermal correction to Gibbs Free Energy=         0.003718
 Sum of electronic and zero-point Energies=            -76.442018
 Sum of electronic and thermal Energies=               -76.439182
 Sum of electronic and thermal Enthalpies=             -76.438238
 Sum of electronic and thermal Free Energies=          -76.459656

                     E (Thermal)             CV                S
                      KCal/Mol        Cal/Mol-Kelvin    Cal/Mol-Kelvin
 Total                   15.181              6.009             45.079
 Electronic               0.000              0.000              0.000
 Translational            0.889              2.981             34.608
 Rotational               0.889              2.981             10.464
 Vibrational             13.403              0.048              0.007

 Optimization completed.
    -- Stationary point found.

 1\1\GINC-BOHRIO\Freq\RB3LYP\6-311++G(3df,2p)\H2O1\ROOT\01-Mar-2019\0\\
 #p b3lyp/6-311++G(3df,2p) freq IOp(2/17=3) IOp(2/18=3)\\b3lyp opt\\0,1
 \H,0.653499,0.803982,0.\H,1.1966728285,-0.6224036574,0.\O,0.3794326072
 ,-0.1169979684,0.\\Version=EM64L-G09RevE.01\State=1-A1\HF=-76.4633744\
 RMSD=2.678e-09\RMSF=7.956e-05\ZeroPoint=0.0213569\Thermal=0.0241923\Di
 pole=0.7039635,0.2680724,0.\DipoleDeriv=0.2369459,-0.0739138,0.,-0.073
 3765,0.1986321,0.,0.,0.,0.3413552,0.1468394,0.0277777,0.,0.0272405,0.2
 887386,0.,0.,0.,0.3413552,-0.3837852,0.0461361,0.,0.0461361,-0.4873707

 Normal termination of Gaussian 09 at Fri Mar  1 08:55:17 2019.
