 Gaussian 09, Revision E.01,
 Gaussian 09:  EM64L-G09RevE.01 30-Nov-2015

 ------------------------------------------------------
 #p b3lyp/6-311++G(3df,2p) freq IOp(2/17=3) IOp(2/18=3)
 ------------------------------------------------------

 ---------
 b3lyp opt
 ---------
 Symbolic Z-matrix:
 Charge =  1 Multiplicity = 2

                         Standard orientation:
 ---------------------------------------------------------------------
 Center     Atomic      Atomic             Coordinates (Angstroms)
 Number     Number       Type             X           Y           Z
 ---------------------------------------------------------------------
      1          1           0        0.000000   -0.822061   -0.462113
      2          1           0        0.000000    0.822061   -0.462113
      3          8           0        0.000000    0.000000    0.115528
 ---------------------------------------------------------------------

 SCF Done:  E(UB3LYP) =  -75.9969240655     A.U. after    9 cycles

 The electronic state is 2-B1.
 Alpha  occ. eigenvalues --  -19.68213  -1.50997  -0.99354  -0.87273  -0.85570
 Alpha virt. eigenvalues --   -0.30522  -0.22825  -0.10918  -0.10476  -0.09386
 Alpha virt. eigenvalues --   -0.09143  -0.01901  -0.00633   0.19475   0.20266
 Alpha virt. eigenvalues --    0.23999   0.25929   0.30644   0.52988   0.53789

  Beta  occ. eigenvalues --  -19.65433  -1.43730  -0.97295  -0.82669
  Beta virt. eigenvalues --   -0.60814  -0.29573  -0.22316  -0.10061  -0.09170
  Beta virt. eigenvalues --   -0.09110  -0.08694  -0.01268  -0.00468   0.19496
  Beta virt. eigenvalues --    0.20530   0.25658   0.26720   0.32786   0.54086

 Mulliken charges and spin densities:
               1          2
     1  H    0.405679  -0.035171
     2  H    0.405679  -0.035171
     3  O    0.188642   1.070342
 Sum of Mulliken charges =   1.00000   1.00000

 Dipole moment (field-independent basis, Debye):
    X=              0.0000    Y=             -0.0000    Z=             -2.1172  Tot=              2.1172
 Quadrupole moment (field-independent basis, Debye-Ang):
   XX=             -4.8396   YY=             -1.6214   ZZ=             -4.4491
   XY=              0.0000   XZ=             -0.0000   YZ=             -0.0000

  Exact polarizability:   4.119   0.000   6.406   0.000   0.000   5.062
 Approx polarizability:   4.775   0.000   7.879  -0.000  -0.000   6.170

                      1                      2                      3
                     A1                     A1                     B2
 Frequencies --   1447.1023              3341.6986              3388.6406
 Red. masses --      1.0856                 1.0425                 1.0871
 Frc consts  --      1.3394                 6.8587                 7.3546
 IR Inten    --    169.5436               117.9540               453.1552

 - Thermochemistry -
 -------------------
 Temperature   298.150 Kelvin.  Pressure   1.00000 Atm.
 Atom     1 has atomic number  1 and mass   1.00783

 Molecular mass:    18.01056 amu.
 Principal axes and moments of inertia in atomic units:
                           1         2         3
     Eigenvalues --     2.13297   4.86431   6.99727
           X            0.00000   0.00000   1.00000
           Y            1.00000   0.00000  -0.00000
           Z           -0.00000   1.00000  -0.00000
 This molecule is an asymmetric top.
 Rotational symmetry number  2.
 Rotational temperatures (Kelvin)     40.60723    17.80598    12.37822
 Rotational constants (GHZ):         846.11842   371.01693   257.92058
 Zero-point vibrational energy      48912.0 (Joules/Mol)
                                   11.69024 (Kcal/Mol)
 Vibrational temperatures:   2082.05  4807.95  4875.49
          (Kelvin)

 Zero-point correction=                           0.018630 (Hartree/Particle)
 Thermal correction to Energy=                    0.021468
 Thermal correction to Enthalpy=                  0.022412
 Thermal correction to Gibbs Free Energy=         0.000232
 Sum of electronic and zero-point Energies=            -75.978294
 Sum of electronic and thermal Energies=               -75.975456
 Sum of electronic and thermal Enthalpies=             -75.974512
 Sum of electronic and thermal Free Energies=          -75.996692

                     E (Thermal)             CV                S
                      KCal/Mol        Cal/Mol-Kelvin    Cal/Mol-Kelvin
 Total                   13.472              6.052             46.684
 Electronic               0.000              0.000              1.377
 Translational            0.889              2.981             34.608
 Rotational               0.889              2.981             10.683
 Vibrational             11.694              0.090              0.015

 Optimization completed.
    -- Stationary point found.
 Normal termination of Gaussian 09 at Fri Mar  1 08:55:19 2019.
