 Gaussian 09, Revision E.01,
 Gaussian 09:  EM64L-G09RevE.01 30-Nov-2015

 ------------------------------------------------------
 #p b3lyp/6-311++G(3df,2p) freq IOp(2/17=3) IOp(2/18=3)
 ------------------------------------------------------

 ---------
 b3lyp opt
 ---------
 Symbolic Z-matrix:
 Charge =  1 Multiplicity = 1

                         Standard orientation:
 ---------------------------------------------------------------------
 Center     Atomic      Atomic             Coordinates (Angstroms)
 Number     Number       Type             X           Y           Z
 ---------------------------------------------------------------------
      1          6           0        0.000000    1.280109   -0.000000
      2          6           0       -0.011832    0.009645   -0.000000
      3          1           0       -0.006880    1.827870   -0.941261
      4          1           0       -0.006880    1.827870    0.941261
      5          1           0       -0.730100   -1.735498    0.000000
      6          8           0        0.101871   -1.207285    0.000000
 ---------------------------------------------------------------------

 SCF Done:  E(RB3LYP) =  -152.919713118     A.U. after   10 cycles

 The electronic state is 1-A'.
 Alpha  occ. eigenvalues --  -19.52334 -10.58207 -10.45745  -1.44428  -1.06659
 Alpha  occ. eigenvalues --   -0.95728  -0.78600  -0.76680  -0.76293  -0.68758
 Alpha  occ. eigenvalues --   -0.55692
 Alpha virt. eigenvalues --   -0.33207  -0.24879  -0.22737  -0.15472  -0.12323
 Alpha virt. eigenvalues --   -0.10785  -0.09529  -0.07413  -0.07062  -0.06374
 Alpha virt. eigenvalues --   -0.05495  -0.01811  -0.01501  -0.00162   0.01191

 Mulliken charges:
               1
     1  C   -0.170631
     2  C    0.678808
     3  H    0.244681
     4  H    0.244681
     5  H    0.360886
     6  O   -0.358425
 Sum of Mulliken charges =   1.00000

 Dipole moment (field-independent basis, Debye):
    X=             -1.5849    Y=              0.1267    Z=             -0.0000  Tot=              1.5900
 Quadrupole moment (field-independent basis, Debye-Ang):
   XX=            -15.6288   YY=             -3.6913   ZZ=            -13.4957
   XY=              3.2382   XZ=             -0.0000   YZ=             -0.0000

  Exact polarizability:  17.232   1.155  38.318  -0.000   0.000  17.774
 Approx polarizability:  23.175   1.152  64.785   0.000  -0.000  24.490

                      1                      2                      3
                     A"                     A'                     A"
 Frequencies --    385.2976               393.8195               813.8125
 Red. masses --      1.8139                 4.6579                 1.0800
 Frc consts  --      0.1587                 0.4256                 0.4214
 IR Inten    --      3.8794                16.7423               104.6958

                      4                      5                      6
                     A'                     A"                     A'
 Frequencies --    839.4177               896.5737              1126.6873
 Red. masses --      1.2597                 2.2002                 2.4450
 Frc consts  --      0.5230                 1.0421                 1.8286
 IR Inten    --     70.1973                16.8762                52.8456

                      7                      8                      9
                     A'                     A'                     A'
 Frequencies --   1185.6963              1344.8749              2120.5885
 Red. masses --      1.2342                 1.4780                 9.8877
 Frc consts  --      1.0223                 1.5750                26.1975
 IR Inten    --    225.6002                19.0699               279.5002

                     10                     11                     12
                     A'                     A"                     A'
 Frequencies --   3087.4267              3167.9734              3519.1704
 Red. masses --      1.0598                 1.1150                 1.0664
 Frc consts  --      5.9523                 6.5929                 7.7814
 IR Inten    --    183.6620               119.0368               366.0809

 - Thermochemistry -
 -------------------
 Temperature   298.150 Kelvin.  Pressure   1.00000 Atm.
 Atom     1 has atomic number  6 and mass  12.00000

 Molecular mass:    43.01839 amu.
 Principal axes and moments of inertia in atomic units:
                           1         2         3
     Eigenvalues --     8.81743 190.54152 194.47858
           X           -0.01316   0.00000   0.99991
           Y            0.99991   0.00000   0.01316
           Z           -0.00000   1.00000  -0.00000
 This molecule is an asymmetric top.
 Rotational symmetry number  1.
 Rotational temperatures (Kelvin)      9.82302     0.45457     0.44536
 Rotational constants (GHZ):         204.67884     9.47164     9.27990
 Zero-point vibrational energy     112935.5 (Joules/Mol)
                                   26.99223 (Kcal/Mol)
 Warning -- explicit consideration of   2 degrees of freedom as
           vibrations may cause significant error
 Vibrational temperatures:    554.36   566.62  1170.89  1207.73  1289.97
          (Kelvin)           1621.05  1705.95  1934.97  3051.05  4442.11
                             4558.00  5063.29

 Zero-point correction=                           0.043015 (Hartree/Particle)
 Thermal correction to Energy=                    0.046734
 Thermal correction to Enthalpy=                  0.047678
 Thermal correction to Gibbs Free Energy=         0.019044
 Sum of electronic and zero-point Energies=           -152.876698
 Sum of electronic and thermal Energies=              -152.872980
 Sum of electronic and thermal Enthalpies=            -152.872035
 Sum of electronic and thermal Free Energies=         -152.900669

                     E (Thermal)             CV                S
                      KCal/Mol        Cal/Mol-Kelvin    Cal/Mol-Kelvin
 Total                   29.326             11.275             60.265
 Electronic               0.000              0.000              0.000
 Translational            0.889              2.981             37.204
 Rotational               0.889              2.981             20.419
 Vibrational             27.548              5.313              2.643
 Vibration     1          0.754              1.502              1.018
 Vibration     2          0.761              1.483              0.986

 Optimization completed.
    -- Stationary point found.
 Normal termination of Gaussian 09 at Fri Mar  1 08:59:49 2019.
