 Gaussian 09, Revision E.01,
 Gaussian 09:  EM64L-G09RevE.01 30-Nov-2015

 ------------------------------------------------------
 #p b3lyp/6-311++G(3df,2p) freq IOp(2/17=3) IOp(2/18=3)
 ------------------------------------------------------

 ---------
 b3lyp opt
 ---------
 Symbolic Z-matrix:
 Charge =  1 Multiplicity = 1

                         Standard orientation:
 ---------------------------------------------------------------------
 Center     Atomic      Atomic             Coordinates (Angstroms)
 Number     Number       Type             X           Y           Z
 ---------------------------------------------------------------------
      1          6           0       -0.000000    0.000000   -1.208758
      2          6           0        0.000000   -0.000000    0.215806
      3          1           0       -0.000000    1.039898   -1.554976
      4          1           0        0.900578   -0.519949   -1.554976
      5          1           0       -0.900578   -0.519949   -1.554976
      6          8           0        0.000000   -0.000000    1.327828
 ---------------------------------------------------------------------

 SCF Done:  E(RB3LYP) =  -152.981509029     A.U. after   10 cycles

 The electronic state is 1-A1.
 Alpha  occ. eigenvalues --  -19.52619 -10.62777 -10.48620  -1.46539  -1.08410
 Alpha  occ. eigenvalues --   -0.84369  -0.78672  -0.78672  -0.78181  -0.69574
 Alpha  occ. eigenvalues --   -0.69574
 Alpha virt. eigenvalues --   -0.31606  -0.31606  -0.21027  -0.13153  -0.13153
 Alpha virt. eigenvalues --   -0.13126  -0.11823  -0.09572  -0.09572  -0.06707
 Alpha virt. eigenvalues --   -0.06707  -0.06580  -0.02397  -0.00456  -0.00456

 Mulliken charges:
               1
     1  C   -0.160702
     2  C    0.761985
     3  H    0.249203
     4  H    0.249203
     5  H    0.249203
     6  O   -0.348892
 Sum of Mulliken charges =   1.00000

 Dipole moment (field-independent basis, Debye):
    X=             -0.0000    Y=             -0.0000    Z=             -2.8695  Tot=              2.8695
 Quadrupole moment (field-independent basis, Debye-Ang):
   XX=            -13.8181   YY=            -13.8181   ZZ=             -9.4118
   XY=             -0.0000   XZ=              0.0000   YZ=              0.0000

  Exact polarizability:  17.476  -0.000  17.476   0.000   0.000  31.019
 Approx polarizability:  24.137  -0.000  24.137   0.000   0.000  50.466

                      1                      2                      3
                      E                      E                     A1
 Frequencies --    423.1381               423.1406               905.5324
 Red. masses --      2.9495                 2.9495                 4.9471
 Frc consts  --      0.3111                 0.3111                 2.3901
 IR Inten    --      2.8156                 2.8161                 2.5152

                      4                      5                      6
                      E                      E                     A1
 Frequencies --   1030.1688              1030.1693              1367.8998
 Red. masses --      1.6178                 1.6178                 1.2127
 Frc consts  --      1.0116                 1.0116                 1.3370
 IR Inten    --     23.6781                23.6792                44.0422

                      7                      8                      9
                      E                      E                     A1
 Frequencies --   1399.7378              1399.7380              2380.6943
 Red. masses --      1.0392                 1.0392                12.7333
 Frc consts  --      1.1997                 1.1997                42.5203
 IR Inten    --     20.0566                20.0561               226.1642

                     10                     11                     12
                     A1                      E                      E
 Frequencies --   2995.6804              3076.0275              3076.0282
 Red. masses --      1.0321                 1.1027                 1.1027
 Frc consts  --      5.4570                 6.1474                 6.1474
 IR Inten    --     86.2460                60.6376                60.6424

 - Thermochemistry -
 -------------------
 Temperature   298.150 Kelvin.  Pressure   1.00000 Atm.
 Atom     1 has atomic number  6 and mass  12.00000

 Molecular mass:    43.01839 amu.
 Principal axes and moments of inertia in atomic units:
                           1         2         3
     Eigenvalues --    11.67578 195.48710 195.48710
           X            0.00000   0.19230   0.98134
           Y            0.00000   0.98134  -0.19230
           Z            1.00000  -0.00000  -0.00000
 This molecule is a prolate symmetric top.
 Rotational symmetry number  3.
 Rotational temperatures (Kelvin)      7.41825     0.44307     0.44307
 Rotational constants (GHZ):         154.57140     9.23202     9.23202
 Zero-point vibrational energy     116683.5 (Joules/Mol)
                                   27.88802 (Kcal/Mol)
 Warning -- explicit consideration of   2 degrees of freedom as
           vibrations may cause significant error
 Vibrational temperatures:    608.80   608.80  1302.86  1482.18  1482.18
          (Kelvin)           1968.10  2013.91  2013.91  3425.28  4310.11
                             4425.71  4425.71

 Zero-point correction=                           0.044442 (Hartree/Particle)
 Thermal correction to Energy=                    0.047992
 Thermal correction to Enthalpy=                  0.048936
 Thermal correction to Gibbs Free Energy=         0.021440
 Sum of electronic and zero-point Energies=           -152.937067
 Sum of electronic and thermal Energies=              -152.933517
 Sum of electronic and thermal Enthalpies=            -152.932573
 Sum of electronic and thermal Free Energies=         -152.960069

                     E (Thermal)             CV                S
                      KCal/Mol        Cal/Mol-Kelvin    Cal/Mol-Kelvin
 Total                   30.115             10.318             57.870
 Electronic               0.000              0.000              0.000
 Translational            0.889              2.981             37.204
 Rotational               0.889              2.981             18.545
 Vibrational             28.338              4.356              2.122
 Vibration     1          0.785              1.420              0.881
 Vibration     2          0.785              1.420              0.881

 Optimization completed.
    -- Stationary point found.
 Normal termination of Gaussian 09 at Fri Mar  1 08:57:06 2019.
