 Gaussian 09, Revision E.01,
 Gaussian 09:  EM64L-G09RevE.01 30-Nov-2015

 ------------------------------------------------------
 #p b3lyp/6-311++G(3df,2p) freq IOp(2/17=3) IOp(2/18=3)
 ------------------------------------------------------

 ---------
 b3lyp opt
 ---------
 Symbolic Z-matrix:
 Charge =  0 Multiplicity = 4

                         Standard orientation:
 ---------------------------------------------------------------------
 Center     Atomic      Atomic             Coordinates (Angstroms)
 Number     Number       Type             X           Y           Z
 ---------------------------------------------------------------------
      1          6           0        1.386065   -0.431978   -0.038266
      2          6           0        0.153289    0.473386    0.046514
      3          1           0        0.216734    1.200150   -0.765639
      4          1           0        0.210113    0.989613    1.012180
      5          1           0       -1.193300   -0.800259    0.629188
      6          8           0       -1.058708   -0.204744   -0.115652
 ---------------------------------------------------------------------

 SCF Done:  E(UB3LYP) =  -153.046725582     A.U. after   13 cycles

 The electronic state is 4-A.
 Alpha  occ. eigenvalues --  -19.16580 -10.27124 -10.23200  -1.06995  -0.76448
 Alpha  occ. eigenvalues --   -0.60777  -0.53423  -0.48207  -0.41975  -0.37122
 Alpha  occ. eigenvalues --   -0.31276  -0.23933  -0.22553
 Alpha virt. eigenvalues --   -0.01398   0.01077   0.02841   0.04515   0.07237
 Alpha virt. eigenvalues --    0.07944   0.09038   0.09638   0.10273   0.11857
 Alpha virt. eigenvalues --    0.14218   0.15377   0.16301   0.19998   0.21240

  Beta  occ. eigenvalues --  -19.16194 -10.26820 -10.19181  -1.06073  -0.72927
  Beta  occ. eigenvalues --   -0.56352  -0.49883  -0.46897  -0.38119  -0.32472
  Beta virt. eigenvalues --   -0.16573  -0.06466  -0.04330  -0.00674   0.01498
  Beta virt. eigenvalues --    0.03063   0.05591   0.07483   0.08295   0.10160
  Beta virt. eigenvalues --    0.10812   0.11590   0.12335   0.15028   0.15760

 Mulliken charges and spin densities:
               1          2
     1  C   -0.311376   2.736696
     2  C    0.250556   0.071917
     3  H    0.158556   0.044056
     4  H    0.166749   0.049614
     5  H    0.230590   0.007232
     6  O   -0.495075   0.090485
 Sum of Mulliken charges =  -0.00000   3.00000

 Dipole moment (field-independent basis, Debye):
    X=             -0.6210    Y=              0.5907    Z=              1.3491  Tot=              1.5983
 Quadrupole moment (field-independent basis, Debye-Ang):
   XX=            -21.7924   YY=            -17.5146   ZZ=            -18.0462
   XY=              1.7292   XZ=             -1.8071   YZ=             -1.3385

  Exact polarizability:  46.129  -3.626  30.942  -1.303  -0.193  27.503
 Approx polarizability:  62.457  -5.513  40.134  -1.238  -0.692  36.048

                      1                      2                      3
                      A                      A                      A
 Frequencies --    371.2121               501.0981               839.7646
 Red. masses --      1.1697                 5.8514                 8.0301
 Frc consts  --      0.0950                 0.8657                 3.3365
 IR Inten    --    125.3814                21.0665               148.2024

                      4                      5                      6
                      A                      A                      A
 Frequencies --    943.3619              1039.9164              1167.9682
 Red. masses --      1.3859                 7.9852                 1.0543
 Frc consts  --      0.7267                 5.0878                 0.8473
 IR Inten    --     25.7741               158.5114                21.5684

                      7                      8                      9
                      A                      A                      A
 Frequencies --   1310.5840              1372.2019              1467.3534
 Red. masses --      1.1362                 1.2156                 1.0822
 Frc consts  --      1.1498                 1.3486                 1.3728
 IR Inten    --     12.7614                41.1699                 0.1364

                     10                     11                     12
                      A                      A                      A
 Frequencies --   2971.7188              3054.6737              3814.4975
 Red. masses --      1.0615                 1.0987                 1.0663
 Frc consts  --      5.5230                 6.0405                 9.1408
 IR Inten    --     21.4429                 4.7265                57.8212

 - Thermochemistry -
 -------------------
 Temperature   298.150 Kelvin.  Pressure   1.00000 Atm.
 Atom     1 has atomic number  6 and mass  12.00000

 Molecular mass:    43.01839 amu.
 Principal axes and moments of inertia in atomic units:
                           1         2         3
     Eigenvalues --    38.68442 160.94300 183.75199
           X            0.99904   0.03915  -0.01977
           Y           -0.04035   0.99708  -0.06485
           Z            0.01717   0.06558   0.99770
 This molecule is an asymmetric top.
 Rotational symmetry number  1.
 Rotational temperatures (Kelvin)      2.23898     0.53816     0.47136
 Rotational constants (GHZ):          46.65292    11.21354     9.82161
 Zero-point vibrational energy     112774.1 (Joules/Mol)
                                   26.95365 (Kcal/Mol)
 Warning -- explicit consideration of   2 degrees of freedom as
           vibrations may cause significant error
 Vibrational temperatures:    534.09   720.97  1208.23  1357.29  1496.21
          (Kelvin)           1680.44  1885.64  1974.29  2111.19  4275.64
                             4394.99  5488.20

 Zero-point correction=                           0.042953 (Hartree/Particle)
 Thermal correction to Energy=                    0.046536
 Thermal correction to Enthalpy=                  0.047481
 Thermal correction to Gibbs Free Energy=         0.017151
 Sum of electronic and zero-point Energies=           -153.003772
 Sum of electronic and thermal Energies=              -153.000189
 Sum of electronic and thermal Enthalpies=            -152.999245
 Sum of electronic and thermal Free Energies=         -153.029574

                     E (Thermal)             CV                S
                      KCal/Mol        Cal/Mol-Kelvin    Cal/Mol-Kelvin
 Total                   29.202             10.677             63.834
 Electronic               0.000              0.000              2.755
 Translational            0.889              2.981             37.204
 Rotational               0.889              2.981             21.664
 Vibrational             27.425              4.716              2.212
 Vibration     1          0.743              1.531              1.075
 Vibration     2          0.856              1.248              0.655

 Optimization completed.
    -- Stationary point found.
 Normal termination of Gaussian 09 at Fri Mar  1 08:58:11 2019.
