 Gaussian 09, Revision E.01,
 Gaussian 09:  EM64L-G09RevE.01 30-Nov-2015

 ------------------------------------------------------
 #p b3lyp/6-311++G(3df,2p) freq IOp(2/17=3) IOp(2/18=3)
 ------------------------------------------------------

 ---------
 b3lyp opt
 ---------
 Symbolic Z-matrix:
 Charge =  0 Multiplicity = 4

                         Standard orientation:
 ---------------------------------------------------------------------
 Center     Atomic      Atomic             Coordinates (Angstroms)
 Number     Number       Type             X           Y           Z
 ---------------------------------------------------------------------
      1          6           0        0.046571    0.518690   -0.187218
      2          6           0       -1.288266   -0.077947    0.011982
      3          1           0       -1.690617   -0.769645   -0.724589
      4          1           0       -1.707787   -0.130327    1.013007
      5          1           0        1.566030   -0.608868   -0.580204
      6          8           0        1.160318   -0.141952    0.167900
 ---------------------------------------------------------------------

 SCF Done:  E(UB3LYP) =  -153.085802206     A.U. after   12 cycles

 The electronic state is 4-A.
 Alpha  occ. eigenvalues --  -19.19288 -10.24435 -10.20816  -1.09535  -0.76139
 Alpha  occ. eigenvalues --   -0.63406  -0.51318  -0.46844  -0.44296  -0.42843
 Alpha  occ. eigenvalues --   -0.28033  -0.21844  -0.19926
 Alpha virt. eigenvalues --   -0.01613   0.00962   0.02998   0.05231   0.07417
 Alpha virt. eigenvalues --    0.07895   0.08575   0.09537   0.11988   0.13707
 Alpha virt. eigenvalues --    0.14188   0.15100   0.16465   0.18859   0.19919

  Beta  occ. eigenvalues --  -19.18368 -10.21720 -10.19227  -1.07173  -0.70639
  Beta  occ. eigenvalues --   -0.60377  -0.47391  -0.43789  -0.41588  -0.37740
  Beta virt. eigenvalues --   -0.12312  -0.05884  -0.03476  -0.00140   0.01288
  Beta virt. eigenvalues --    0.03121   0.06132   0.07854   0.08638   0.09272
  Beta virt. eigenvalues --    0.10498   0.12674   0.14297   0.14831   0.16365

 Mulliken charges and spin densities:
               1          2
     1  C    0.168408   1.788369
     2  C   -0.304943   0.948661
     3  H    0.146825   0.024527
     4  H    0.150401   0.026511
     5  H    0.233180   0.046941
     6  O   -0.393871   0.164991
 Sum of Mulliken charges =  -0.00000   3.00000

 Dipole moment (field-independent basis, Debye):
    X=              0.1039    Y=             -1.4677    Z=             -0.9383  Tot=              1.7451
 Quadrupole moment (field-independent basis, Debye-Ang):
   XX=            -16.9121   YY=            -19.5697   ZZ=            -18.1597
   XY=             -0.7654   XZ=             -2.5587   YZ=              1.5146

  Exact polarizability:  41.417  -1.094  30.515  -1.239  -0.220  27.868
 Approx polarizability:  51.199  -3.031  39.119  -0.630  -0.026  36.437

                      1                      2                      3
                      A                      A                      A
 Frequencies --    377.0971               426.0633               476.3267
 Red. masses --      1.1607                 2.6788                 1.1572
 Frc consts  --      0.0972                 0.2865                 0.1547
 IR Inten    --     77.7714                28.9162                 6.9711

                      4                      5                      6
                      A                      A                      A
 Frequencies --    646.9680               960.8001              1017.0759
 Red. masses --      1.6421                 1.2838                 7.7535
 Frc consts  --      0.4050                 0.6983                 4.7256
 IR Inten    --     31.9666                10.5337                12.9841

                      7                      8                      9
                      A                      A                      A
 Frequencies --   1136.9526              1285.5010              1426.9966
 Red. masses --      1.4850                 3.5877                 1.1338
 Frc consts  --      1.1310                 3.4931                 1.3603
 IR Inten    --    133.3119                32.2324                 0.9596

                     10                     11                     12
                      A                      A                      A
 Frequencies --   3057.0718              3148.6935              3636.3479
 Red. masses --      1.0460                 1.1164                 1.0652
 Frc consts  --      5.7596                 6.5212                 8.2989
 IR Inten    --     24.0966                12.2071                21.0135

 - Thermochemistry -
 -------------------
 Temperature   298.150 Kelvin.  Pressure   1.00000 Atm.
 Atom     1 has atomic number  6 and mass  12.00000

 Molecular mass:    43.01839 amu.
 Principal axes and moments of inertia in atomic units:
                           1         2         3
     Eigenvalues --    26.00696 186.39634 194.87345
           X            0.99945   0.02374  -0.02307
           Y           -0.01441   0.93944   0.34241
           Z            0.02981  -0.34189   0.93927
 This molecule is an asymmetric top.
 Rotational symmetry number  1.
 Rotational temperatures (Kelvin)      3.33041     0.46468     0.44446
 Rotational constants (GHZ):          69.39454     9.68228     9.26109
 Zero-point vibrational energy     105246.8 (Joules/Mol)
                                   25.15459 (Kcal/Mol)
 Warning -- explicit consideration of   3 degrees of freedom as
           vibrations may cause significant error
 Vibrational temperatures:    542.56   613.01   685.33   930.84  1382.38
          (Kelvin)           1463.34  1635.82  1849.55  2053.13  4398.44
                             4530.26  5231.89

 Zero-point correction=                           0.040086 (Hartree/Particle)
 Thermal correction to Energy=                    0.044032
 Thermal correction to Enthalpy=                  0.044976
 Thermal correction to Gibbs Free Energy=         0.014213
 Sum of electronic and zero-point Energies=           -153.045716
 Sum of electronic and thermal Energies=              -153.041771
 Sum of electronic and thermal Enthalpies=            -153.040826
 Sum of electronic and thermal Free Energies=         -153.071589

                     E (Thermal)             CV                S
                      KCal/Mol        Cal/Mol-Kelvin    Cal/Mol-Kelvin
 Total                   27.630             12.414             64.745
 Electronic               0.000              0.000              2.755
 Translational            0.889              2.981             37.204
 Rotational               0.889              2.981             21.473
 Vibrational             25.853              6.452              3.313
 Vibration     1          0.748              1.519              1.051
 Vibration     2          0.788              1.414              0.872
 Vibration     3          0.833              1.303              0.720

 Optimization completed.
    -- Stationary point found.
 Normal termination of Gaussian 09 at Fri Mar  1 08:58:09 2019.
