 Gaussian 09, Revision E.01,
 Gaussian 09:  EM64L-G09RevE.01 30-Nov-2015

 ------------------------------------------------------
 #p b3lyp/6-311++G(3df,2p) freq IOp(2/17=3) IOp(2/18=3)
 ------------------------------------------------------

 ---------
 b3lyp opt
 ---------
 Symbolic Z-matrix:
 Charge =  1 Multiplicity = 1

                         Standard orientation:
 ---------------------------------------------------------------------
 Center     Atomic      Atomic             Coordinates (Angstroms)
 Number     Number       Type             X           Y           Z
 ---------------------------------------------------------------------
      1          6           0       -1.304529    0.000324   -0.183678
      2          6           0        1.178274    0.000031    0.003323
      3          1           0        1.667435   -0.966365   -0.005025
      4          1           0       -1.896320   -0.001111    0.747404
      5          8           0       -0.085109   -0.000146    0.042937
      6          1           0        1.667289    0.966517   -0.003745
 ---------------------------------------------------------------------

 SCF Done:  E(RB3LYP) =  -152.814668506     A.U. after   10 cycles

 The electronic state is 1-A.
 Alpha  occ. eigenvalues --  -19.57486 -10.55734 -10.55412  -1.48513  -1.14289
 Alpha  occ. eigenvalues --   -0.86291  -0.83720  -0.82991  -0.76156  -0.67330
 Alpha  occ. eigenvalues --   -0.51241
 Alpha virt. eigenvalues --   -0.35083  -0.33827  -0.18089  -0.14563  -0.13644
 Alpha virt. eigenvalues --   -0.12177  -0.09754  -0.08432  -0.07780  -0.06543
 Alpha virt. eigenvalues --   -0.04260  -0.03199  -0.01469  -0.01459  -0.00545

 Mulliken charges:
               1
     1  C    0.161959
     2  C    0.185929
     3  H    0.257354
     4  H    0.265355
     5  O   -0.127969
     6  H    0.257372
 Sum of Mulliken charges =   1.00000

 Dipole moment (field-independent basis, Debye):
    X=              1.1823    Y=             -0.0012    Z=              1.1859  Tot=              1.6746
 Quadrupole moment (field-independent basis, Debye-Ang):
   XX=             -5.5732   YY=            -13.4578   ZZ=            -16.4291
   XY=              0.0034   XZ=             -2.6263   YZ=              0.0020

  Exact polarizability:  55.627  -0.004  19.051   2.661  -0.001  18.353
 Approx polarizability: 134.112  -0.021  26.215  12.782  -0.003  25.975

                      1                      2                      3
                      A                      A                      A
 Frequencies --    229.1439               402.5067               917.7129
 Red. masses --      3.5641                 4.8127                 1.0947
 Frc consts  --      0.1103                 0.4594                 0.5432
 IR Inten    --     21.1056                23.1727                15.7114

                      4                      5                      6
                      A                      A                      A
 Frequencies --    932.1317              1041.2644              1131.7868
 Red. masses --      1.2659                 1.6717                 2.7345
 Frc consts  --      0.6480                 1.0679                 2.0638
 IR Inten    --     50.3139               316.3238                10.0322

                      7                      8                      9
                      A                      A                      A
 Frequencies --   1203.2930              1490.3133              1671.2300
 Red. masses --      1.2779                 1.2165                 4.9044
 Frc consts  --      1.0902                 1.5919                 8.0706
 IR Inten    --     14.8254                 8.8021                 9.7267

                     10                     11                     12
                      A                      A                      A
 Frequencies --   3000.1009              3115.6510              3276.9930
 Red. masses --      1.0861                 1.0431                 1.1349
 Frc consts  --      5.7598                 5.9656                 7.1804
 IR Inten    --     39.3117                78.5242                41.4995

 - Thermochemistry -
 -------------------
 Temperature   298.150 Kelvin.  Pressure   1.00000 Atm.
 Atom     1 has atomic number  6 and mass  12.00000

 Molecular mass:    43.01839 amu.
 Principal axes and moments of inertia in atomic units:
                           1         2         3
     Eigenvalues --    10.08727 169.13609 172.49485
           X            0.99953   0.00006  -0.03072
           Y           -0.00005   1.00000   0.00034
           Z            0.03072  -0.00034   0.99953
 This molecule is an asymmetric top.
 Rotational symmetry number  1.
 Rotational temperatures (Kelvin)      8.58645     0.51210     0.50212
 Rotational constants (GHZ):         178.91281    10.67035    10.46258
 Zero-point vibrational energy     110129.0 (Joules/Mol)
                                   26.32146 (Kcal/Mol)
 Warning -- explicit consideration of   2 degrees of freedom as
           vibrations may cause significant error
 Vibrational temperatures:    329.69   579.12  1320.38  1341.13  1498.15
          (Kelvin)           1628.39  1731.27  2144.23  2404.52  4316.47
                             4482.72  4714.86

 Zero-point correction=                           0.041946 (Hartree/Particle)
 Thermal correction to Energy=                    0.045778
 Thermal correction to Enthalpy=                  0.046722
 Thermal correction to Gibbs Free Energy=         0.017832
 Sum of electronic and zero-point Energies=           -152.772723
 Sum of electronic and thermal Energies=              -152.768891
 Sum of electronic and thermal Enthalpies=            -152.767947
 Sum of electronic and thermal Free Energies=         -152.796836

                     E (Thermal)             CV                S
                      KCal/Mol        Cal/Mol-Kelvin    Cal/Mol-Kelvin
 Total                   28.726             11.066             60.803
 Electronic               0.000              0.000              0.000
 Translational            0.889              2.981             37.204
 Rotational               0.889              2.981             20.315
 Vibrational             26.948              5.105              3.285
 Vibration     1          0.652              1.797              1.886
 Vibration     2          0.768              1.465              0.953

 Optimization completed.
    -- Stationary point found.
 Normal termination of Gaussian 09 at Fri Mar  1 08:57:30 2019.
