 Gaussian 09, Revision E.01,
 Gaussian 09:  EM64L-G09RevE.01 30-Nov-2015

 ------------------------------------------------------
 #p b3lyp/6-311++G(3df,2p) freq IOp(2/17=3) IOp(2/18=3)
 ------------------------------------------------------

 ---------
 b3lyp opt
 ---------
 Symbolic Z-matrix:
 Charge =  1 Multiplicity = 1

                         Standard orientation:
 ---------------------------------------------------------------------
 Center     Atomic      Atomic             Coordinates (Angstroms)
 Number     Number       Type             X           Y           Z
 ---------------------------------------------------------------------
      1          6           0       -1.376480   -0.394970    0.000068
      2          6           0       -0.340201    0.436117   -0.000499
      3          1           0       -0.378406    1.519623    0.001814
      4          1           0        1.491912   -0.093024    0.815801
      5          1           0        1.493161   -0.091503   -0.814834
      6          8           0        0.961677   -0.197748   -0.000025
 ---------------------------------------------------------------------

 SCF Done:  E(RB3LYP) =  -152.776685530     A.U. after   11 cycles

 The electronic state is 1-A.
 Alpha  occ. eigenvalues --  -19.55449 -10.49989 -10.48998  -1.44222  -1.05269
 Alpha  occ. eigenvalues --   -0.93854  -0.88401  -0.80877  -0.69483  -0.54786
 Alpha  occ. eigenvalues --   -0.53410
 Alpha virt. eigenvalues --   -0.37514  -0.25004  -0.24334  -0.18495  -0.15522
 Alpha virt. eigenvalues --   -0.11942  -0.10717  -0.08415  -0.07466  -0.06793
 Alpha virt. eigenvalues --   -0.05664  -0.04477  -0.03165  -0.01537  -0.01084

 Mulliken charges:
               1
     1  C   -0.237828
     2  C    0.577415
     3  H    0.240802
     4  H    0.337309
     5  H    0.337343
     6  O   -0.255042
 Sum of Mulliken charges =   1.00000

 Dipole moment (field-independent basis, Debye):
    X=              4.8134    Y=              1.6390    Z=              0.0041  Tot=              5.0848
 Quadrupole moment (field-independent basis, Debye-Ang):
   XX=             -8.5051   YY=            -14.6441   ZZ=            -14.2102
   XY=             -2.2077   XZ=             -0.0009   YZ=              0.0012

  Exact polarizability:  29.997   2.372  23.541  -0.004  -0.002  20.432
 Approx polarizability:  43.440   5.497  36.005  -0.018  -0.010  28.668

                      1                      2                      3
                      A                      A                      A
 Frequencies --    259.4539               271.8674               601.9059
 Red. masses --      1.1528                 5.3646                 1.2800
 Frc consts  --      0.0457                 0.2336                 0.2732
 IR Inten    --     26.8766                13.6705               316.0545

                      4                      5                      6
                      A                      A                      A
 Frequencies --    684.8257               908.0295              1084.5873
 Red. masses --      1.3209                 6.2398                 1.2144
 Frc consts  --      0.3650                 3.0312                 0.8417
 IR Inten    --     53.9316                32.1324                 0.3241

                      7                      8                      9
                      A                      A                      A
 Frequencies --   1132.1681              1628.7874              1697.4857
 Red. masses --      1.1686                 1.7793                 1.9628
 Frc consts  --      0.8826                 2.7812                 3.3322
 IR Inten    --      2.1238                30.1437               110.5518

                     10                     11                     12
                      A                      A                      A
 Frequencies --   3176.4973              3586.1858              3657.9838
 Red. masses --      1.0933                 1.0400                 1.0930
 Frc consts  --      6.4997                 7.8808                 8.6172
 IR Inten    --     67.6789               256.5125               403.6389

 - Thermochemistry -
 -------------------
 Temperature   298.150 Kelvin.  Pressure   1.00000 Atm.
 Atom     1 has atomic number  6 and mass  12.00000

 Molecular mass:    43.01839 amu.
 Principal axes and moments of inertia in atomic units:
                           1         2         3
     Eigenvalues --    30.02339 159.81264 180.26633
           X            0.99978  -0.02105  -0.00001
           Y            0.02105   0.99978   0.00026
           Z            0.00000  -0.00026   1.00000
 This molecule is an asymmetric top.
 Rotational symmetry number  1.
 Rotational temperatures (Kelvin)      2.88488     0.54197     0.48048
 Rotational constants (GHZ):          60.11118    11.29286    10.01153
 Zero-point vibrational energy     111789.7 (Joules/Mol)
                                   26.71838 (Kcal/Mol)
 Warning -- explicit consideration of   3 degrees of freedom as
           vibrations may cause significant error
 Vibrational temperatures:    373.30   391.16   866.01   985.31  1306.45
          (Kelvin)           1560.48  1628.94  2343.46  2442.30  4570.27
                             5159.72  5263.02

 Zero-point correction=                           0.042578 (Hartree/Particle)
 Thermal correction to Energy=                    0.046725
 Thermal correction to Enthalpy=                  0.047669
 Thermal correction to Gibbs Free Energy=         0.017793
 Sum of electronic and zero-point Energies=           -152.734107
 Sum of electronic and thermal Energies=              -152.729961
 Sum of electronic and thermal Enthalpies=            -152.729017
 Sum of electronic and thermal Free Energies=         -152.758892

                     E (Thermal)             CV                S
                      KCal/Mol        Cal/Mol-Kelvin    Cal/Mol-Kelvin
 Total                   29.320             12.441             62.878
 Electronic               0.000              0.000              0.000
 Translational            0.889              2.981             37.204
 Rotational               0.889              2.981             21.386
 Vibrational             27.543              6.479              4.289
 Vibration     1          0.668              1.747              1.665
 Vibration     2          0.675              1.725              1.584
 Vibration     3          0.960              1.028              0.446

 Normal termination of Gaussian 09 at Fri Mar  1 08:57:40 2019.
