 Gaussian 09, Revision E.01,
 Gaussian 09:  EM64L-G09RevE.01 30-Nov-2015

 ------------------------------------------------------
 #p b3lyp/6-311++G(3df,2p) freq IOp(2/17=3) IOp(2/18=3)
 ------------------------------------------------------

 ---------
 b3lyp opt
 ---------
 Symbolic Z-matrix:
 Charge =  1 Multiplicity = 1

                         Standard orientation:
 ---------------------------------------------------------------------
 Center     Atomic      Atomic             Coordinates (Angstroms)
 Number     Number       Type             X           Y           Z
 ---------------------------------------------------------------------
      1          6           0        0.758021   -0.481865    0.000000
      2          6           0       -0.000000    0.727758   -0.000000
      3          1           0        1.077517   -0.911194    0.942009
      4          1           0        1.077517   -0.911194   -0.942009
      5          1           0       -0.102419    1.812706   -0.000000
      6          8           0       -0.825150   -0.183254   -0.000000
 ---------------------------------------------------------------------

 SCF Done:  E(RB3LYP) =  -152.892185602     A.U. after   10 cycles

 The electronic state is 1-A'.
 Alpha  occ. eigenvalues --  -19.51251 -10.59854 -10.53564  -1.45662  -1.00693
 Alpha  occ. eigenvalues --   -0.91851  -0.81735  -0.79736  -0.74556  -0.66277
 Alpha  occ. eigenvalues --   -0.63554
 Alpha virt. eigenvalues --   -0.36174  -0.28407  -0.17782  -0.16974  -0.14394
 Alpha virt. eigenvalues --   -0.13612  -0.10320  -0.07971  -0.06982  -0.06795
 Alpha virt. eigenvalues --   -0.04699  -0.02382  -0.01516  -0.00893  -0.00880

 Mulliken charges:
               1
     1  C    0.046746
     2  C    0.450390
     3  H    0.229430
     4  H    0.229430
     5  H    0.315313
     6  O   -0.271309
 Sum of Mulliken charges =   1.00000

 Dipole moment (field-independent basis, Debye):
    X=              2.1029    Y=              1.3984    Z=             -0.0000  Tot=              2.5254
 Quadrupole moment (field-independent basis, Debye-Ang):
   XX=            -13.7265   YY=             -9.2623   ZZ=            -13.5035
   XY=             -2.5848   XZ=             -0.0000   YZ=              0.0000

  Exact polarizability:  22.937  -2.862  23.059  -0.000  -0.000  16.654
 Approx polarizability:  40.528  -1.398  32.879   0.000   0.000  22.777

                      1                      2                      3
                     A'                     A"                     A'
 Frequencies --    521.9583               783.0356              1006.1320
 Red. masses --      7.9542                 1.0321                 1.4757
 Frc consts  --      1.2768                 0.3728                 0.8801
 IR Inten    --     88.6455                15.1025                54.9687

                      4                      5                      6
                     A"                     A"                     A'
 Frequencies --   1011.1356              1094.9787              1136.0813
 Red. masses --      1.1843                 1.4980                 1.2803
 Frc consts  --      0.7134                 1.0582                 0.9736
 IR Inten    --      0.0007                 0.8274                 1.4280

                      7                      8                      9
                     A'                     A'                     A'
 Frequencies --   1342.6607              1451.0168              1688.5799
 Red. masses --      2.4318                 1.1339                 7.1281
 Frc consts  --      2.5829                 1.4066                11.9748
 IR Inten    --     13.5349                12.4652                47.3603

                     10                     11                     12
                     A'                     A'                     A"
 Frequencies --   3118.6323              3165.7021              3247.3843
 Red. masses --      1.0474                 1.1194                 1.1267
 Frc consts  --      6.0017                 6.6097                 7.0002
 IR Inten    --     40.6156                35.7092                42.7109

 - Thermochemistry -
 -------------------
 Temperature   298.150 Kelvin.  Pressure   1.00000 Atm.
 Atom     1 has atomic number  6 and mass  12.00000

 Molecular mass:    43.01839 amu.
 Principal axes and moments of inertia in atomic units:
                           1         2         3
     Eigenvalues --    50.75564  85.95148 123.93237
           X            0.87906   0.47672   0.00000
           Y           -0.47672   0.87906   0.00000
           Z            0.00000  -0.00000   1.00000
 This molecule is an asymmetric top.
 Rotational symmetry number  1.
 Rotational temperatures (Kelvin)      1.70649     1.00771     0.69888
 Rotational constants (GHZ):          35.55745    20.99721    14.56231
 Zero-point vibrational energy     117038.4 (Joules/Mol)
                                   27.97286 (Kcal/Mol)
 Warning -- explicit consideration of   1 degrees of freedom as
           vibrations may cause significant error
 Vibrational temperatures:    750.98  1126.61  1447.60  1454.80  1575.43
          (Kelvin)           1634.57  1931.79  2087.69  2429.49  4487.01
                             4554.73  4672.26

 Zero-point correction=                           0.044578 (Hartree/Particle)
 Thermal correction to Energy=                    0.047838
 Thermal correction to Enthalpy=                  0.048782
 Thermal correction to Gibbs Free Energy=         0.020611
 Sum of electronic and zero-point Energies=           -152.847608
 Sum of electronic and thermal Energies=              -152.844348
 Sum of electronic and thermal Enthalpies=            -152.843403
 Sum of electronic and thermal Free Energies=         -152.871574

                     E (Thermal)             CV                S
                      KCal/Mol        Cal/Mol-Kelvin    Cal/Mol-Kelvin
 Total                   30.019              9.368             59.290
 Electronic               0.000              0.000              0.000
 Translational            0.889              2.981             37.204
 Rotational               0.889              2.981             20.919
 Vibrational             28.241              3.407              1.168
 Vibration     1          0.877              1.201              0.605

 Optimization completed.
    -- Stationary point found.
 Normal termination of Gaussian 09 at Fri Mar  1 08:57:13 2019.
