 Gaussian 09, Revision E.01,
 Gaussian 09:  EM64L-G09RevE.01 30-Nov-2015

 ------------------------------------------------------
 #p b3lyp/6-311++G(3df,2p) freq IOp(2/17=3) IOp(2/18=3)
 ------------------------------------------------------

 ---------
 b3lyp opt
 ---------
 Symbolic Z-matrix:
 Charge =  1 Multiplicity = 3

                         Standard orientation:
 ---------------------------------------------------------------------
 Center     Atomic      Atomic             Coordinates (Angstroms)
 Number     Number       Type             X           Y           Z
 ---------------------------------------------------------------------
      1          6           0       -0.000000    0.421694   -0.000000
      2          6           0       -1.249736   -0.201805    0.000000
      3          1           0       -2.147244    0.403186    0.000000
      4          1           0       -1.317401   -1.288418    0.000000
      5          1           0        1.905915    0.487371   -0.000000
      6          8           0        1.132143   -0.115184   -0.000000
 ---------------------------------------------------------------------

 SCF Done:  E(UB3LYP) =  -152.855441622     A.U. after   12 cycles

 The electronic state is 3-A".
 Alpha  occ. eigenvalues --  -19.50269 -10.57847 -10.50056  -1.42244  -1.07154
 Alpha  occ. eigenvalues --   -0.93014  -0.79963  -0.76959  -0.74471  -0.70763
 Alpha  occ. eigenvalues --   -0.55962  -0.53622
 Alpha virt. eigenvalues --   -0.28965  -0.20957  -0.15051  -0.12190  -0.10635
 Alpha virt. eigenvalues --   -0.10400  -0.09483  -0.07328  -0.06002  -0.05569
 Alpha virt. eigenvalues --   -0.02862  -0.01014  -0.00658   0.00589   0.00641

  Beta  occ. eigenvalues --  -19.49415 -10.56070 -10.48917  -1.40272  -1.02899
  Beta  occ. eigenvalues --   -0.91231  -0.75522  -0.74317  -0.70649  -0.69244
  Beta virt. eigenvalues --   -0.42613  -0.36699  -0.22339  -0.20407  -0.14551
  Beta virt. eigenvalues --   -0.11882  -0.10039  -0.09649  -0.08727  -0.06828
  Beta virt. eigenvalues --   -0.05511  -0.04821  -0.02318  -0.00384  -0.00326

 Mulliken charges and spin densities:
               1          2
     1  C    0.603938   1.087471
     2  C   -0.136010   0.645944
     3  H    0.245245  -0.013508
     4  H    0.228766   0.035507
     5  H    0.353781   0.008211
     6  O   -0.295719   0.236375
 Sum of Mulliken charges =   1.00000   2.00000

 Dipole moment (field-independent basis, Debye):
    X=             -0.2311    Y=              0.7251    Z=             -0.0000  Tot=              0.7611
 Quadrupole moment (field-independent basis, Debye-Ang):
   XX=             -2.7281   YY=            -14.0559   ZZ=            -16.0954
   XY=              3.2727   XZ=             -0.0000   YZ=              0.0000

  Exact polarizability:  36.368   2.281  21.314  -0.000   0.000  16.226
 Approx polarizability:  50.376   2.155  29.415  -0.000  -0.000  22.067

                      1                      2                      3
                     A'                     A"                     A"
 Frequencies --    435.8276               502.2357               647.0138
 Red. masses --      2.4497                 1.3557                 1.1300
 Frc consts  --      0.2741                 0.2015                 0.2787
 IR Inten    --     17.9875                30.4188               131.1841

                      4                      5                      6
                     A"                     A'                     A'
 Frequencies --    925.3510               983.0776              1061.9216
 Red. masses --      1.3626                 1.4770                 1.6470
 Frc consts  --      0.6874                 0.8410                 1.0943
 IR Inten    --     33.3060                47.1568                67.3740

                      7                      8                      9
                     A'                     A'                     A'
 Frequencies --   1265.1580              1432.2587              1634.2200
 Red. masses --      2.3290                 1.1964                 8.8824
 Frc consts  --      2.1964                 1.4461                13.9766
 IR Inten    --    123.6906                13.7557               160.7513

                     10                     11                     12
                     A'                     A'                     A'
 Frequencies --   3094.7951              3235.1711              3599.9434
 Red. masses --      1.0542                 1.1174                 1.0666
 Frc consts  --      5.9489                 6.8905                 8.1444
 IR Inten    --     50.6585                44.9892               479.3748

 - Thermochemistry -
 -------------------
 Temperature   298.150 Kelvin.  Pressure   1.00000 Atm.
 Atom     1 has atomic number  6 and mass  12.00000

 Molecular mass:    43.01839 amu.
 Principal axes and moments of inertia in atomic units:
                           1         2         3
     Eigenvalues --    16.93941 176.44293 193.38234
           X            0.99816  -0.06058   0.00000
           Y            0.06058   0.99816   0.00000
           Z           -0.00000  -0.00000   1.00000
 This molecule is an asymmetric top.
 Rotational symmetry number  1.
 Rotational temperatures (Kelvin)      5.11315     0.49089     0.44789
 Rotational constants (GHZ):         106.54097    10.22847     9.33250
 Zero-point vibrational energy     112550.5 (Joules/Mol)
                                   26.90021 (Kcal/Mol)
 Warning -- explicit consideration of   2 degrees of freedom as
           vibrations may cause significant error
 Vibrational temperatures:    627.06   722.60   930.91  1331.37  1414.43
          (Kelvin)           1527.87  1820.28  2060.70  2351.28  4452.71
                             4654.68  5179.51

 Zero-point correction=                           0.042868 (Hartree/Particle)
 Thermal correction to Energy=                    0.046475
 Thermal correction to Enthalpy=                  0.047419
 Thermal correction to Gibbs Free Energy=         0.017679
 Sum of electronic and zero-point Energies=           -152.812573
 Sum of electronic and thermal Energies=              -152.808967
 Sum of electronic and thermal Enthalpies=            -152.808023
 Sum of electronic and thermal Free Energies=         -152.837763

                     E (Thermal)             CV                S
                      KCal/Mol        Cal/Mol-Kelvin    Cal/Mol-Kelvin
 Total                   29.163             11.017             62.593
 Electronic               0.000              0.000              2.183
 Translational            0.889              2.981             37.204
 Rotational               0.889              2.981             20.985
 Vibrational             27.386              5.055              2.221
 Vibration     1          0.796              1.392              0.840
 Vibration     2          0.858              1.245              0.653

 Optimization completed.
    -- Stationary point found.
 Normal termination of Gaussian 09 at Fri Mar  1 09:00:40 2019.
