 Gaussian 09, Revision E.01,
 Gaussian 09:  EM64L-G09RevE.01 30-Nov-2015

 ------------------------------------------------------
 #p b3lyp/6-311++G(3df,2p) freq IOp(2/17=3) IOp(2/18=3)
 ------------------------------------------------------

 ---------
 b3lyp opt
 ---------
 Symbolic Z-matrix:
 Charge =  0 Multiplicity = 2

                         Standard orientation:
 ---------------------------------------------------------------------
 Center     Atomic      Atomic             Coordinates (Angstroms)
 Number     Number       Type             X           Y           Z
 ---------------------------------------------------------------------
      1          6           0       -0.028291    0.403269   -0.009423
      2          6           0       -1.240634   -0.101526    0.016020
      3          1           0       -1.400233   -1.168968    0.147229
      4          1           0       -2.105264    0.538016   -0.072695
      5          1           0        1.802769    0.285363    0.475764
      6          8           0        1.164534   -0.183109   -0.073735
 ---------------------------------------------------------------------

 SCF Done:  E(UB3LYP) =  -153.194042846     A.U. after   14 cycles

 The electronic state is 2-A.
 Alpha  occ. eigenvalues --  -19.19433 -10.24704 -10.16576  -1.10167  -0.76838
 Alpha  occ. eigenvalues --   -0.62149  -0.50726  -0.47316  -0.45183  -0.40350
 Alpha  occ. eigenvalues --   -0.26792  -0.23237
 Alpha virt. eigenvalues --   -0.01794   0.00932   0.01386   0.03031   0.06338
 Alpha virt. eigenvalues --    0.06938   0.08015   0.08885   0.10706   0.12318
 Alpha virt. eigenvalues --    0.14402   0.14699   0.16386   0.17104   0.18978

  Beta  occ. eigenvalues --  -19.18976 -10.23272 -10.16539  -1.09001  -0.75377
  Beta  occ. eigenvalues --   -0.61490  -0.48494  -0.45449  -0.43940  -0.38970
  Beta  occ. eigenvalues --   -0.25749
  Beta virt. eigenvalues --   -0.08843  -0.01456   0.01482   0.02417   0.03183
  Beta virt. eigenvalues --    0.06418   0.07501   0.08094   0.09031   0.10780
  Beta virt. eigenvalues --    0.12572   0.14513   0.14839   0.16693   0.17464

 Mulliken charges and spin densities:
               1          2
     1  C    0.257584   1.019078
     2  C   -0.355040  -0.197601
     3  H    0.125900   0.076337
     4  H    0.159722   0.007415
     5  H    0.268317  -0.006204
     6  O   -0.456483   0.100974
 Sum of Mulliken charges =  -0.00000   1.00000

 Dipole moment (field-independent basis, Debye):
    X=              0.8706    Y=              0.2987    Z=              0.8996  Tot=              1.2870
 Quadrupole moment (field-independent basis, Debye-Ang):
   XX=            -14.0131   YY=            -18.6577   ZZ=            -19.7089
   XY=              1.7389   XZ=              2.1233   YZ=              0.0109

  Exact polarizability:  43.698   2.845  29.112   0.991   0.380  25.092
 Approx polarizability:  63.065   6.331  39.333   1.433   0.812  32.992

                      1                      2                      3
                      A                      A                      A
 Frequencies --    337.5468               448.0612               624.6697
 Red. masses --      1.1532                 2.4788                 1.3908
 Frc consts  --      0.0774                 0.2932                 0.3198
 IR Inten    --    141.1973                14.3733                 9.2007

                      4                      5                      6
                      A                      A                      A
 Frequencies --    828.8584               963.1787              1126.3673
 Red. masses --      1.2948                 1.8527                 2.2104
 Frc consts  --      0.5241                 1.0127                 1.6523
 IR Inten    --     59.6542                41.8831                 8.3176

                      7                      8                      9
                      A                      A                      A
 Frequencies --   1222.8376              1410.3381              1711.7786
 Red. masses --      1.5554                 1.1532                 7.4379
 Frc consts  --      1.3704                 1.3515                12.8409
 IR Inten    --    202.3784                 2.2687               151.4849

                     10                     11                     12
                      A                      A                      A
 Frequencies --   3090.3114              3219.5027              3806.9071
 Red. masses --      1.0648                 1.1050                 1.0659
 Frc consts  --      5.9913                 6.7483                 9.1012
 IR Inten    --      2.8321                 0.6604               128.8498

 - Thermochemistry -
 -------------------
 Temperature   298.150 Kelvin.  Pressure   1.00000 Atm.
 Atom     1 has atomic number  6 and mass  12.00000

 Molecular mass:    43.01839 amu.
 Principal axes and moments of inertia in atomic units:
                           1         2         3
     Eigenvalues --    16.65532 179.21347 193.53827
           X            0.99962   0.02274   0.01536
           Y           -0.02250   0.99962  -0.01572
           Z           -0.01571   0.01537   0.99976
 This molecule is an asymmetric top.
 Rotational symmetry number  1.
 Rotational temperatures (Kelvin)      5.20037     0.48330     0.44753
 Rotational constants (GHZ):         108.35825    10.07034     9.32498
 Zero-point vibrational energy     112391.3 (Joules/Mol)
                                   26.86216 (Kcal/Mol)
 Warning -- explicit consideration of   2 degrees of freedom as
           vibrations may cause significant error
 Vibrational temperatures:    485.65   644.66   898.76  1192.54  1385.80
          (Kelvin)           1620.59  1759.39  2029.16  2462.86  4446.26
                             4632.14  5477.28

 Zero-point correction=                           0.042808 (Hartree/Particle)
 Thermal correction to Energy=                    0.046588
 Thermal correction to Enthalpy=                  0.047532
 Thermal correction to Gibbs Free Energy=         0.017879
 Sum of electronic and zero-point Energies=           -153.151235
 Sum of electronic and thermal Energies=              -153.147455
 Sum of electronic and thermal Enthalpies=            -153.146511
 Sum of electronic and thermal Free Energies=         -153.176164

                     E (Thermal)             CV                S
                      KCal/Mol        Cal/Mol-Kelvin    Cal/Mol-Kelvin
 Total                   29.234             11.517             62.409
 Electronic               0.000              0.000              1.377
 Translational            0.889              2.981             37.204
 Rotational               0.889              2.981             20.985
 Vibrational             27.457              5.555              2.844
 Vibration     1          0.718              1.600              1.224
 Vibration     2          0.807              1.365              0.802

 Optimization completed.
    -- Stationary point found.
 Normal termination of Gaussian 09 at Fri Mar  1 08:58:10 2019.
