 Gaussian 09, Revision E.01,
 Gaussian 09:  EM64L-G09RevE.01 30-Nov-2015

 ------------------------------------------------------
 #p b3lyp/6-311++G(3df,2p) freq IOp(2/17=3) IOp(2/18=3)
 ------------------------------------------------------

 ---------
 b3lyp opt
 ---------
 Symbolic Z-matrix:
 Charge =  1 Multiplicity = 1

                         Standard orientation:
 ---------------------------------------------------------------------
 Center     Atomic      Atomic             Coordinates (Angstroms)
 Number     Number       Type             X           Y           Z
 ---------------------------------------------------------------------
      1          6           0       -0.426663    1.858081    0.000000
      2          6           0       -0.000000    0.728593    0.000000
      3          6           0        0.567984   -0.530066    0.000000
      4          1           0       -0.815964    2.855933    0.000000
      5          1           0       -1.051710   -1.532110   -0.000000
      6          1           0        1.649261   -0.656434    0.000000
      7          8           0       -0.078690   -1.625879   -0.000000
 ---------------------------------------------------------------------

 SCF Done:  E(RB3LYP) =  -191.025843750     A.U. after   12 cycles

 The electronic state is 1-A'.
 Alpha  occ. eigenvalues --  -19.47152 -10.57029 -10.46306 -10.43306  -1.39043
 Alpha  occ. eigenvalues --   -1.04900  -0.97038  -0.88544  -0.77708  -0.76695
 Alpha  occ. eigenvalues --   -0.70761  -0.65516  -0.56202  -0.54792
 Alpha virt. eigenvalues --   -0.36042  -0.23844  -0.17937  -0.15298  -0.14829
 Alpha virt. eigenvalues --   -0.12321  -0.10521  -0.09948  -0.08587  -0.07046
 Alpha virt. eigenvalues --   -0.05789  -0.05293  -0.03624  -0.02402  -0.00274

 Mulliken charges:
               1
     1  C    0.347807
     2  C    0.078212
     3  C   -0.025579
     4  H    0.375909
     5  H    0.327434
     6  H    0.274032
     7  O   -0.377815
 Sum of Mulliken charges =   1.00000

 Dipole moment (field-independent basis, Debye):
    X=             -0.7686    Y=              1.0962    Z=             -0.0000  Tot=              1.3388
 Quadrupole moment (field-independent basis, Debye-Ang):
   XX=            -15.0840   YY=             -6.9064   ZZ=            -21.4335
   XY=             -1.7958   XZ=             -0.0000   YZ=              0.0000

  Exact polarizability:  29.245  -6.468  56.950  -0.000   0.000  20.915
 Approx polarizability:  43.592 -17.574 110.774   0.000   0.000  28.932

                      1                      2                      3
                     A'                     A"                     A'
 Frequencies --    204.7935               244.6650               609.9956
 Red. masses --      3.9979                 3.1773                 4.8139
 Frc consts  --      0.0988                 0.1121                 1.0554
 IR Inten    --      0.9868                 2.4531                30.8779

                      4                      5                      6
                     A'                     A"                     A"
 Frequencies --    739.0396               799.6267               846.3378
 Red. masses --      1.2554                 1.5165                 1.3258
 Frc consts  --      0.4040                 0.5713                 0.5595
 IR Inten    --     36.5317               145.5002                12.8772

                      7                      8                      9
                     A'                     A"                     A'
 Frequencies --   1023.8757              1062.3327              1248.6739
 Red. masses --      3.6125                 1.3203                 1.2187
 Frc consts  --      2.2313                 0.8779                 1.1196
 IR Inten    --     34.1967                24.7097               213.4620

                     10                     11                     12
                     A'                     A'                     A'
 Frequencies --   1421.4235              1569.5363              2194.3189
 Red. masses --      1.4533                 4.7920                 5.8854
 Frc consts  --      1.7300                 6.9552                16.6966
 IR Inten    --      4.1240               304.1399               458.4420

                     13                     14                     15
                     A'                     A'                     A'
 Frequencies --   3150.8430              3386.2745              3639.9974
 Red. masses --      1.0942                 1.1691                 1.0665
 Frc consts  --      6.4004                 7.8985                 8.3259
 IR Inten    --     18.3792                88.7197               215.7761

 - Thermochemistry -
 -------------------
 Temperature   298.150 Kelvin.  Pressure   1.00000 Atm.
 Atom     1 has atomic number  6 and mass  12.00000

 Molecular mass:    55.01839 amu.
 Principal axes and moments of inertia in atomic units:
                           1         2         3
     Eigenvalues --    31.92863 379.26932 411.19794
           X           -0.13376   0.99101   0.00000
           Y            0.99101   0.13376   0.00000
           Z           -0.00000  -0.00000   1.00000
 This molecule is an asymmetric top.
 Rotational symmetry number  1.
 Rotational temperatures (Kelvin)      2.71273     0.22837     0.21064
 Rotational constants (GHZ):          56.52424     4.75847     4.38898
 Zero-point vibrational energy     132437.0 (Joules/Mol)
                                   31.65320 (Kcal/Mol)
 Warning -- explicit consideration of   3 degrees of freedom as
           vibrations may cause significant error
 Vibrational temperatures:    294.65   352.02   877.65  1063.31  1150.48
          (Kelvin)           1217.69  1473.13  1528.46  1796.56  2045.11
                             2258.21  3157.13  4533.35  4872.09  5237.14

 Zero-point correction=                           0.050443 (Hartree/Particle)
 Thermal correction to Energy=                    0.054806
 Thermal correction to Enthalpy=                  0.055751
 Thermal correction to Gibbs Free Energy=         0.024290
 Sum of electronic and zero-point Energies=           -190.975401
 Sum of electronic and thermal Energies=              -190.971037
 Sum of electronic and thermal Enthalpies=            -190.970093
 Sum of electronic and thermal Free Energies=         -191.001553

                     E (Thermal)             CV                S
                      KCal/Mol        Cal/Mol-Kelvin    Cal/Mol-Kelvin
 Total                   34.392             13.566             66.214
 Electronic               0.000              0.000              0.000
 Translational            0.889              2.981             37.937
 Rotational               0.889              2.981             23.125
 Vibrational             32.614              7.604              5.152
 Vibration     1          0.640              1.833              2.090
 Vibration     2          0.660              1.772              1.769
 Vibration     3          0.969              1.011              0.433

 Optimization completed.
    -- Stationary point found.
 Normal termination of Gaussian 09 at Fri Mar  1 09:01:54 2019.
