 Gaussian 09, Revision E.01,
 Gaussian 09:  EM64L-G09RevE.01 30-Nov-2015

 ------------------------------------------------------
 #p b3lyp/6-311++G(3df,2p) freq IOp(2/17=3) IOp(2/18=3)
 ------------------------------------------------------

 ---------
 b3lyp opt
 ---------
 Symbolic Z-matrix:
 Charge =  1 Multiplicity = 1

                         Standard orientation:
 ---------------------------------------------------------------------
 Center     Atomic      Atomic             Coordinates (Angstroms)
 Number     Number       Type             X           Y           Z
 ---------------------------------------------------------------------
      1          6           0        0.803729    0.424702    0.000000
      2          6           0       -0.000000    1.688357   -0.000000
      3          6           0       -0.156567   -0.681344    0.000000
      4          1           0        1.460552    0.316854   -0.880969
      5          1           0        1.460552    0.316854    0.880969
      6          1           0        0.742435    2.501585   -0.000000
      7          8           0       -0.943314   -1.465672    0.000000
 ---------------------------------------------------------------------

 SCF Done:  E(RB3LYP) =  -190.934313690     A.U. after   11 cycles

 The electronic state is 1-A'.
 Alpha  occ. eigenvalues --  -19.52221 -10.61966 -10.49895 -10.47186  -1.46064
 Alpha  occ. eigenvalues --   -1.09860  -0.89897  -0.82951  -0.79044  -0.78256
 Alpha  occ. eigenvalues --   -0.75013  -0.70551  -0.65414  -0.47258
 Alpha virt. eigenvalues --   -0.34671  -0.31480  -0.31017  -0.20699  -0.14273
 Alpha virt. eigenvalues --   -0.14040  -0.12782  -0.11489  -0.09111  -0.07745
 Alpha virt. eigenvalues --   -0.06379  -0.05595  -0.04914  -0.04676  -0.02457

 Mulliken charges:
               1
     1  C    0.010767
     2  C   -0.288396
     3  C    0.872929
     4  H    0.248198
     5  H    0.248198
     6  H    0.250923
     7  O   -0.342620
 Sum of Mulliken charges =   1.00000

 Dipole moment (field-independent basis, Debye):
    X=              3.6102    Y=              0.0607    Z=              0.0000  Tot=              3.6107
 Quadrupole moment (field-independent basis, Debye-Ang):
   XX=            -17.9265   YY=            -15.5545   ZZ=            -18.5113
   XY=              4.7426   XZ=              0.0000   YZ=              0.0000

  Exact polarizability:  32.675   4.778  42.276  -0.000   0.000  24.891
 Approx polarizability:  49.214   9.360  60.977   0.000  -0.000  38.058

                      1                      2                      3
                     A"                     A'                     A"
 Frequencies --    101.2938               187.0479               353.3652
 Red. masses --      1.2923                 5.6930                 2.2886
 Frc consts  --      0.0078                 0.1174                 0.1684
 IR Inten    --     18.2787                18.2912                 4.7049

                      4                      5                      6
                     A'                     A'                     A"
 Frequencies --    571.3902               686.2567               717.8606
 Red. masses --      7.0342                 4.1506                 1.5079
 Frc consts  --      1.3531                 1.1517                 0.4578
 IR Inten    --     20.2684                 3.1854                21.8232

                      7                      8                      9
                     A'                     A'                     A"
 Frequencies --    893.9216              1070.5984              1173.5983
 Red. masses --      3.8402                 1.3447                 1.2054
 Frc consts  --      1.8080                 0.9081                 0.9782
 IR Inten    --     30.0792                 1.2732                 6.8827

                     10                     11                     12
                     A'                     A'                     A'
 Frequencies --   1254.7545              1316.8914              2370.1969
 Red. masses --      1.1954                 1.2303                12.9517
 Frc consts  --      1.1089                 1.2571                42.8694
 IR Inten    --     61.9959                21.7679               172.9432

                     13                     14                     15
                     A'                     A"                     A'
 Frequencies --   2940.0348              2977.2114              3024.4752
 Red. masses --      1.0590                 1.0972                 1.0850
 Frc consts  --      5.3930                 5.7299                 5.8476
 IR Inten    --     69.1310                52.6820                 2.2982

 - Thermochemistry -
 -------------------
 Temperature   298.150 Kelvin.  Pressure   1.00000 Atm.
 Atom     1 has atomic number  6 and mass  12.00000

 Molecular mass:    55.01839 amu.
 Principal axes and moments of inertia in atomic units:
                           1         2         3
     Eigenvalues --    54.69065 347.62414 391.14195
           X            0.40029   0.91639   0.00000
           Y            0.91639  -0.40029   0.00000
           Z            0.00000   0.00000   1.00000
 This molecule is an asymmetric top.
 Rotational symmetry number  1.
 Rotational temperatures (Kelvin)      1.58370     0.24916     0.22144
 Rotational constants (GHZ):          32.99908     5.19165     4.61403
 Zero-point vibrational energy     117466.7 (Joules/Mol)
                                   28.07521 (Kcal/Mol)
 Warning -- explicit consideration of   4 degrees of freedom as
           vibrations may cause significant error
 Vibrational temperatures:    145.74   269.12   508.41   822.10   987.37
          (Kelvin)           1032.84  1286.15  1540.35  1688.54  1805.31
                             1894.71  3410.18  4230.05  4283.54  4351.54

 Zero-point correction=                           0.044741 (Hartree/Particle)
 Thermal correction to Energy=                    0.049771
 Thermal correction to Enthalpy=                  0.050715
 Thermal correction to Gibbs Free Energy=         0.017586
 Sum of electronic and zero-point Energies=           -190.889573
 Sum of electronic and thermal Energies=              -190.884543
 Sum of electronic and thermal Enthalpies=            -190.883599
 Sum of electronic and thermal Free Energies=         -190.916728

                     E (Thermal)             CV                S
                      KCal/Mol        Cal/Mol-Kelvin    Cal/Mol-Kelvin
 Total                   31.232             15.432             69.726
 Electronic               0.000              0.000              0.000
 Translational            0.889              2.981             37.937
 Rotational               0.889              2.981             23.524
 Vibrational             29.454              9.471              8.265
 Vibration     1          0.604              1.948              3.429
 Vibration     2          0.632              1.858              2.257
 Vibration     3          0.730              1.568              1.151
 Vibration     4          0.928              1.093              0.502

 Optimization completed.
    -- Stationary point found.
 Normal termination of Gaussian 09 at Fri Mar  1 09:01:51 2019.
