 Gaussian 09, Revision E.01,
 Gaussian 09:  EM64L-G09RevE.01 30-Nov-2015

 ------------------------------------------------------
 #p b3lyp/6-311++G(3df,2p) freq IOp(2/17=3) IOp(2/18=3)
 ------------------------------------------------------

 ---------
 b3lyp opt
 ---------
 Symbolic Z-matrix:
 Charge =  1 Multiplicity = 1

                         Standard orientation:
 ---------------------------------------------------------------------
 Center     Atomic      Atomic             Coordinates (Angstroms)
 Number     Number       Type             X           Y           Z
 ---------------------------------------------------------------------
      1          6           0       -1.117391    0.432011   -0.000000
      2          6           0       -0.000000    1.196368   -0.000000
      3          6           0        0.118757   -0.166784    0.000000
      4          1           0       -2.196277    0.383833   -0.000000
      5          1           0        0.463690   -2.028062    0.000000
      6          1           0        0.436053    2.184302   -0.000000
      7          8           0        0.911042   -1.163705    0.000000
 ---------------------------------------------------------------------

 SCF Done:  E(RB3LYP) =  -191.042524065     A.U. after   11 cycles

 The electronic state is 1-A'.
 Alpha  occ. eigenvalues --  -19.44011 -10.54800 -10.48838 -10.48578  -1.36166
 Alpha  occ. eigenvalues --   -1.20132  -0.89857  -0.84672  -0.80975  -0.72190
 Alpha  occ. eigenvalues --   -0.70789  -0.64964  -0.59028  -0.58960
 Alpha virt. eigenvalues --   -0.28121  -0.24071  -0.19490  -0.14419  -0.13728
 Alpha virt. eigenvalues --   -0.12550  -0.10538  -0.10014  -0.09083  -0.05232
 Alpha virt. eigenvalues --   -0.05222  -0.04797  -0.03846  -0.03393  -0.02383

 Mulliken charges:
               1
     1  C    0.103181
     2  C   -0.011543
     3  C    0.469006
     4  H    0.299287
     5  H    0.328334
     6  H    0.295713
     7  O   -0.483978
 Sum of Mulliken charges =   1.00000

 Dipole moment (field-independent basis, Debye):
    X=             -2.1358    Y=              0.3648    Z=              0.0000  Tot=              2.1667
 Quadrupole moment (field-independent basis, Debye-Ang):
   XX=            -16.0072   YY=             -8.0840   ZZ=            -20.9576
   XY=             -0.2206   XZ=              0.0000   YZ=              0.0000

  Exact polarizability:  32.445  -3.293  36.806  -0.000  -0.000  19.369
 Approx polarizability:  50.916  -4.414  55.013  -0.000  -0.000  28.089

                      1                      2                      3
                     A'                     A"                     A"
 Frequencies --    460.1310               497.2840               621.5517
 Red. masses --      3.0531                 2.9710                 1.1443
 Frc consts  --      0.3808                 0.4329                 0.2605
 IR Inten    --     12.0682                10.4296               138.6027

                      4                      5                      6
                     A"                     A'                     A"
 Frequencies --    863.5266               868.0683               997.1945
 Red. masses --      1.5255                 1.8932                 1.4068
 Frc consts  --      0.6702                 0.8405                 0.8242
 IR Inten    --     46.2077                18.1736                 0.3904

                      7                      8                      9
                     A'                     A'                     A'
 Frequencies --   1018.7226              1029.4308              1194.4626
 Red. masses --      1.4258                 1.8174                 1.5953
 Frc consts  --      0.8718                 1.1347                 1.3410
 IR Inten    --     14.4420                 6.1805               133.4461

                     10                     11                     12
                     A'                     A'                     A'
 Frequencies --   1379.3910              1451.1962              1872.9443
 Red. masses --      2.9741                 6.0023                 7.5063
 Frc consts  --      3.3341                 7.4477                15.5140
 IR Inten    --     78.6408               118.3088               225.2286

                     13                     14                     15
                     A'                     A'                     A'
 Frequencies --   3235.1280              3265.5834              3696.7860
 Red. masses --      1.0993                 1.1419                 1.0667
 Frc consts  --      6.7789                 7.1747                 8.5893
 IR Inten    --     77.3154                52.7240               263.0046

 - Thermochemistry -
 -------------------
 Temperature   298.150 Kelvin.  Pressure   1.00000 Atm.
 Atom     1 has atomic number  6 and mass  12.00000

 Molecular mass:    55.01839 amu.
 Principal axes and moments of inertia in atomic units:
                           1         2         3
     Eigenvalues --    60.09896 240.49220 300.59117
           X           -0.57735   0.81650   0.00000
           Y            0.81650   0.57735   0.00000
           Z           -0.00000  -0.00000   1.00000
 This molecule is an asymmetric top.
 Rotational symmetry number  1.
 Rotational temperatures (Kelvin)      1.44119     0.36015     0.28814
 Rotational constants (GHZ):          30.02949     7.50436     6.00397
 Zero-point vibrational energy     134289.2 (Joules/Mol)
                                   32.09589 (Kcal/Mol)
 Warning -- explicit consideration of   2 degrees of freedom as
           vibrations may cause significant error
 Vibrational temperatures:    662.03   715.48   894.27  1242.42  1248.96
          (Kelvin)           1434.74  1465.71  1481.12  1718.56  1984.63
                             2087.95  2694.75  4654.62  4698.44  5318.84

 Zero-point correction=                           0.051148 (Hartree/Particle)
 Thermal correction to Energy=                    0.054870
 Thermal correction to Enthalpy=                  0.055814
 Thermal correction to Gibbs Free Energy=         0.025674
 Sum of electronic and zero-point Energies=           -190.991376
 Sum of electronic and thermal Energies=              -190.987654
 Sum of electronic and thermal Enthalpies=            -190.986710
 Sum of electronic and thermal Free Energies=         -191.016850

                     E (Thermal)             CV                S
                      KCal/Mol        Cal/Mol-Kelvin    Cal/Mol-Kelvin
 Total                   34.431             12.153             63.434
 Electronic               0.000              0.000              0.000
 Translational            0.889              2.981             37.937
 Rotational               0.889              2.981             22.990
 Vibrational             32.654              6.192              2.508
 Vibration     1          0.818              1.338              0.766
 Vibration     2          0.853              1.256              0.665

 Optimization completed.
    -- Stationary point found.
 Normal termination of Gaussian 09 at Fri Mar  1 09:01:46 2019.
