 Gaussian 09, Revision E.01,
 Gaussian 09:  EM64L-G09RevE.01 30-Nov-2015

 ------------------------------------------------------
 #p b3lyp/6-311++G(3df,2p) freq IOp(2/17=3) IOp(2/18=3)
 ------------------------------------------------------

 ---------
 b3lyp opt
 ---------
 Symbolic Z-matrix:
 Charge =  1 Multiplicity = 1

                         Standard orientation:
 ---------------------------------------------------------------------
 Center     Atomic      Atomic             Coordinates (Angstroms)
 Number     Number       Type             X           Y           Z
 ---------------------------------------------------------------------
      1          6           0        0.000000    1.906249    0.000000
      2          6           0       -0.163638    0.710030   -0.000000
      3          6           0       -0.435069   -0.643890   -0.000000
      4          1           0        0.157281    2.965750    0.000000
      5          1           0        1.368062   -1.256925    0.000000
      6          1           0       -1.460496   -1.009394   -0.000000
      7          8           0        0.440925   -1.566721    0.000000
 ---------------------------------------------------------------------

 SCF Done:  E(RB3LYP) =  -191.025837757     A.U. after   12 cycles

 The electronic state is 1-A'.
 Alpha  occ. eigenvalues --  -19.47153 -10.57029 -10.46306 -10.43305  -1.39045
 Alpha  occ. eigenvalues --   -1.04901  -0.97038  -0.88545  -0.77709  -0.76695
 Alpha  occ. eigenvalues --   -0.70762  -0.65517  -0.56203  -0.54793
 Alpha virt. eigenvalues --   -0.36042  -0.23840  -0.17941  -0.15297  -0.14829
 Alpha virt. eigenvalues --   -0.12320  -0.10522  -0.09951  -0.08586  -0.07045
 Alpha virt. eigenvalues --   -0.05793  -0.05294  -0.03628  -0.02404  -0.00271

 Mulliken charges:
               1
     1  C    0.349053
     2  C    0.077761
     3  C   -0.026375
     4  H    0.375927
     5  H    0.327459
     6  H    0.274096
     7  O   -0.377921
 Sum of Mulliken charges =   1.00000

 Dipole moment (field-independent basis, Debye):
    X=              0.5046    Y=              1.2405    Z=             -0.0000  Tot=              1.3392
 Quadrupole moment (field-independent basis, Debye-Ang):
   XX=            -15.4565   YY=             -6.5384   ZZ=            -21.4332
   XY=             -0.1589   XZ=             -0.0000   YZ=             -0.0000

  Exact polarizability:  27.816  -0.218  58.375  -0.000  -0.000  20.915
 Approx polarizability:  39.297   1.171 115.053   0.000   0.000  28.931

                      1                      2                      3
                     A'                     A"                     A'
 Frequencies --    204.1708               243.9797               610.0790
 Red. masses --      3.9966                 3.1719                 4.8108
 Frc consts  --      0.0982                 0.1112                 1.0550
 IR Inten    --      0.9635                 2.4169                31.0131

                      4                      5                      6
                     A'                     A"                     A"
 Frequencies --    739.2906               798.4952               846.0802
 Red. masses --      1.2552                 1.5154                 1.3259
 Frc consts  --      0.4042                 0.5693                 0.5592
 IR Inten    --     36.5131               145.7218                12.8970

                      7                      8                      9
                     A'                     A"                     A'
 Frequencies --   1023.4907              1061.7687              1248.2492
 Red. masses --      3.6080                 1.3215                 1.2195
 Frc consts  --      2.2268                 0.8778                 1.1196
 IR Inten    --     34.3063                24.5309               213.5723

                     10                     11                     12
                     A'                     A'                     A'
 Frequencies --   1421.3684              1569.6175              2194.5011
 Red. masses --      1.4534                 4.7926                 5.8842
 Frc consts  --      1.7301                 6.9567                16.6959
 IR Inten    --      4.1237               303.8747               458.4673

                     13                     14                     15
                     A'                     A'                     A'
 Frequencies --   3150.8160              3386.0999              3639.8958
 Red. masses --      1.0942                 1.1691                 1.0665
 Frc consts  --      6.4004                 7.8980                 8.3254
 IR Inten    --     18.3772                88.6973               215.5095

 - Thermochemistry -
 -------------------
 Temperature   298.150 Kelvin.  Pressure   1.00000 Atm.
 Atom     1 has atomic number  6 and mass  12.00000

 Molecular mass:    55.01839 amu.
 Principal axes and moments of inertia in atomic units:
                           1         2         3
     Eigenvalues --    31.95767 379.17832 411.13598
           X           -0.09151   0.99580   0.00000
           Y            0.99580   0.09151   0.00000
           Z            0.00000   0.00000   1.00000
 This molecule is an asymmetric top.
 Rotational symmetry number  1.
 Rotational temperatures (Kelvin)      2.71027     0.22843     0.21067
 Rotational constants (GHZ):          56.47287     4.75961     4.38965
 Zero-point vibrational energy     132414.1 (Joules/Mol)
                                   31.64772 (Kcal/Mol)
 Warning -- explicit consideration of   3 degrees of freedom as
           vibrations may cause significant error
 Vibrational temperatures:    293.76   351.03   877.77  1063.67  1148.86
          (Kelvin)           1217.32  1472.57  1527.65  1795.95  2045.03
                             2258.33  3157.39  4533.32  4871.84  5236.99

 Zero-point correction=                           0.050434 (Hartree/Particle)
 Thermal correction to Energy=                    0.054800
 Thermal correction to Enthalpy=                  0.055744
 Thermal correction to Gibbs Free Energy=         0.024278
 Sum of electronic and zero-point Energies=           -190.975404
 Sum of electronic and thermal Energies=              -190.971038
 Sum of electronic and thermal Enthalpies=            -190.970094
 Sum of electronic and thermal Free Energies=         -191.001560

                     E (Thermal)             CV                S
                      KCal/Mol        Cal/Mol-Kelvin    Cal/Mol-Kelvin
 Total                   34.388             13.570             66.226
 Electronic               0.000              0.000              0.000
 Translational            0.889              2.981             37.937
 Rotational               0.889              2.981             23.126
 Vibrational             32.610              7.609              5.163
 Vibration     1          0.640              1.834              2.095
 Vibration     2          0.659              1.773              1.774
 Vibration     3          0.969              1.010              0.433

 Optimization completed.
    -- Stationary point found.
 Normal termination of Gaussian 09 at Fri Mar  1 09:01:39 2019.
