 Gaussian 09, Revision E.01,
 Gaussian 09:  EM64L-G09RevE.01 30-Nov-2015

 ------------------------------------------------------
 #p b3lyp/6-311++G(3df,2p) freq IOp(2/17=3) IOp(2/18=3)
 ------------------------------------------------------

 ---------
 b3lyp opt
 ---------
 Symbolic Z-matrix:
 Charge =  1 Multiplicity = 1

                         Standard orientation:
 ---------------------------------------------------------------------
 Center     Atomic      Atomic             Coordinates (Angstroms)
 Number     Number       Type             X           Y           Z
 ---------------------------------------------------------------------
      1          6           0        0.074797   -0.619571    0.485563
      2          6           0       -0.768447    0.673813    0.079841
      3          8           0       -1.045287   -0.544295   -0.465957
      4          6           0        0.628405    0.907071   -0.068996
      5          6           0        1.350753   -0.179873   -0.142933
      6          1           0       -0.111657   -0.968983    1.494094
      7          1           0       -1.497800    1.243395    0.643014
      8          1           0        2.258703   -0.608696   -0.530299
 ---------------------------------------------------------------------

 SCF Done:  E(RB3LYP) =  -229.013094688     A.U. after   13 cycles

 The electronic state is 1-A.
 Alpha  occ. eigenvalues --  -19.43136 -10.55957 -10.55763 -10.50790 -10.48988
 Alpha  occ. eigenvalues --   -1.39439  -1.16010  -0.96123  -0.89601  -0.82818
 Alpha  occ. eigenvalues --   -0.75504  -0.74297  -0.72456  -0.69843  -0.63875
 Alpha  occ. eigenvalues --   -0.55249  -0.53515
 Alpha virt. eigenvalues --   -0.35714  -0.26246  -0.20797  -0.17219  -0.15232
 Alpha virt. eigenvalues --   -0.13552  -0.12913  -0.10793  -0.09477  -0.08285
 Alpha virt. eigenvalues --   -0.07664  -0.07008  -0.05898  -0.04771  -0.03080

 Mulliken charges:
               1
     1  C    0.171270
     2  C    0.055269
     3  O   -0.441284
     4  C    0.333607
     5  C    0.052004
     6  H    0.257399
     7  H    0.251928
     8  H    0.319807
 Sum of Mulliken charges =   1.00000

 Dipole moment (field-independent basis, Debye):
    X=              1.4317    Y=              0.6420    Z=              1.6152  Tot=              2.2518
 Quadrupole moment (field-independent basis, Debye-Ang):
   XX=            -17.8072   YY=            -22.1179   ZZ=            -23.7202
   XY=             -4.5952   XZ=             -3.2583   YZ=             -1.2471

  Exact polarizability:  44.666  -1.255  38.576  -2.237  -0.701  29.206
 Approx polarizability:  74.891  -1.102  78.656  -2.492  -2.234  44.662

                      1                      2                      3
                      A                      A                      A
 Frequencies --    445.6250               487.7421               642.6352
 Red. masses --      3.2980                 4.5697                 5.3862
 Frc consts  --      0.3859                 0.6405                 1.3106
 IR Inten    --     13.8223                20.2282                 5.9237

                      4                      5                      6
                      A                      A                      A
 Frequencies --    661.3281               728.8291               796.4483
 Red. masses --      5.5592                 5.9234                 1.6715
 Frc consts  --      1.4325                 1.8538                 0.6247
 IR Inten    --     30.0493                43.3282                26.2697

                      7                      8                      9
                      A                      A                      A
 Frequencies --    906.8981               926.5322              1004.4461
 Red. masses --      1.4241                 2.4709                 1.3733
 Frc consts  --      0.6901                 1.2498                 0.8163
 IR Inten    --     13.4593                12.6373                21.3466

                     10                     11                     12
                      A                      A                      A
 Frequencies --   1090.0061              1131.3140              1208.9754
 Red. masses --      1.5667                 1.9135                 1.2308
 Frc consts  --      1.0967                 1.4429                 1.0599
 IR Inten    --     44.3712                40.0490                 6.2894

                     13                     14                     15
                      A                      A                      A
 Frequencies --   1249.3965              1302.0162              1651.5655
 Red. masses --      4.6148                 1.7259                 6.9216
 Frc consts  --      4.2443                 1.7239                11.1237
 IR Inten    --     21.1430                14.0641                30.7724

                     16                     17                     18
                      A                      A                      A
 Frequencies --   3188.7033              3204.8275              3286.5381
 Red. masses --      1.0934                 1.1003                 1.1166
 Frc consts  --      6.5502                 6.6584                 7.1061
 IR Inten    --     32.0599                33.4897                89.3947

 - Thermochemistry -
 -------------------
 Temperature   298.150 Kelvin.  Pressure   1.00000 Atm.
 Atom     1 has atomic number  6 and mass  12.00000

 Molecular mass:    67.01839 amu.
 Principal axes and moments of inertia in atomic units:
                           1         2         3
     Eigenvalues --   132.50568 244.88476 309.65291
           X            0.99394  -0.09990  -0.04590
           Y            0.09953   0.99498  -0.01012
           Z            0.04668   0.00549   0.99889
 This molecule is an asymmetric top.
 Rotational symmetry number  1.
 Rotational temperatures (Kelvin)      0.65366     0.35369     0.27971
 Rotational constants (GHZ):          13.62010     7.36976     5.82827
 Zero-point vibrational energy     143036.4 (Joules/Mol)
                                   34.18653 (Kcal/Mol)
 Warning -- explicit consideration of   2 degrees of freedom as
           vibrations may cause significant error
 Vibrational temperatures:    641.15   701.75   924.61   951.50  1048.62
          (Kelvin)           1145.91  1304.82  1333.07  1445.17  1568.27
                             1627.71  1739.44  1797.60  1873.31  2376.23
                             4587.83  4611.03  4728.59

 Zero-point correction=                           0.054480 (Hartree/Particle)
 Thermal correction to Energy=                    0.058491
 Thermal correction to Enthalpy=                  0.059435
 Thermal correction to Gibbs Free Energy=         0.028244
 Sum of electronic and zero-point Energies=           -228.958615
 Sum of electronic and thermal Energies=              -228.954604
 Sum of electronic and thermal Enthalpies=            -228.953660
 Sum of electronic and thermal Free Energies=         -228.984851

                     E (Thermal)             CV                S
                      KCal/Mol        Cal/Mol-Kelvin    Cal/Mol-Kelvin
 Total                   36.703             14.325             65.647
 Electronic               0.000              0.000              0.000
 Translational            0.889              2.981             38.525
 Rotational               0.889              2.981             23.823
 Vibrational             34.926              8.363              3.300
 Vibration     1          0.805              1.371              0.809
 Vibration     2          0.844              1.277              0.689

 Optimization completed.
    -- Stationary point found.
 Normal termination of Gaussian 09 at Fri Mar  1 09:13:38 2019.
