 Gaussian 09, Revision E.01,
 Gaussian 09:  EM64L-G09RevE.01 30-Nov-2015

 ------------------------------------------------------
 #p b3lyp/6-311++G(3df,2p) freq IOp(2/17=3) IOp(2/18=3)
 ------------------------------------------------------

 ---------
 b3lyp opt
 ---------
 Symbolic Z-matrix:
 Charge =  1 Multiplicity = 1

                         Standard orientation:
 ---------------------------------------------------------------------
 Center     Atomic      Atomic             Coordinates (Angstroms)
 Number     Number       Type             X           Y           Z
 ---------------------------------------------------------------------
      1          6           0       -0.783910    0.754853   -0.022686
      2          6           0        0.101271   -1.060527    0.244608
      3          8           0       -1.084637   -0.550840   -0.116198
      4          6           0        1.214024   -0.333581   -0.125896
      5          6           0        0.619034    0.928628    0.015379
      6          1           0       -1.599489    1.432804    0.188417
      7          1           0        2.251473   -0.621682   -0.162954
      8          1           0        1.122601    1.859364    0.235693
 ---------------------------------------------------------------------

 SCF Done:  E(RB3LYP) =  -229.053800485     A.U. after   15 cycles

 The electronic state is 1-A.
 Alpha  occ. eigenvalues --  -19.48639 -10.55883 -10.53651 -10.46944 -10.46599
 Alpha  occ. eigenvalues --   -1.42417  -1.10519  -1.00873  -0.87523  -0.83476
 Alpha  occ. eigenvalues --   -0.79189  -0.74452  -0.70307  -0.68384  -0.65977
 Alpha  occ. eigenvalues --   -0.56069  -0.51513
 Alpha virt. eigenvalues --   -0.40154  -0.28134  -0.22950  -0.15381  -0.13237
 Alpha virt. eigenvalues --   -0.12416  -0.11276  -0.10754  -0.10706  -0.08234
 Alpha virt. eigenvalues --   -0.06744  -0.05903  -0.05363  -0.04985  -0.02185

 Mulliken charges:
               1
     1  C    0.109828
     2  C    0.324673
     3  O   -0.380484
     4  C    0.013803
     5  C    0.175625
     6  H    0.261184
     7  H    0.259478
     8  H    0.235892
 Sum of Mulliken charges =   1.00000

 Dipole moment (field-independent basis, Debye):
    X=              1.2604    Y=              1.8205    Z=             -0.1214  Tot=              2.2176
 Quadrupole moment (field-independent basis, Debye-Ang):
   XX=            -17.1562   YY=            -18.5419   ZZ=            -27.3330
   XY=             -2.5847   XZ=             -0.6600   YZ=              1.6197

  Exact polarizability:  45.528  -3.529  53.244  -0.601  -2.961  26.786
 Approx polarizability:  78.627  -8.376 130.493  -1.002 -12.743  42.903

                      1                      2                      3
                      A                      A                      A
 Frequencies --    468.4736               534.3343               584.2610
 Red. masses --      2.7086                 4.2868                 4.7430
 Frc consts  --      0.3502                 0.7211                 0.9539
 IR Inten    --      7.8006               101.9978                24.3882

                      4                      5                      6
                      A                      A                      A
 Frequencies --    681.8371               792.2730               879.3408
 Red. masses --      2.4748                 2.5651                 1.7746
 Frc consts  --      0.6779                 0.9486                 0.8085
 IR Inten    --     31.0650                36.1106                21.2929

                      7                      8                      9
                      A                      A                      A
 Frequencies --    940.8509               956.5649              1071.1147
 Red. masses --      1.7869                 2.0850                 1.4552
 Frc consts  --      0.9319                 1.1240                 0.9837
 IR Inten    --     15.6906                25.8122                17.4405

                     10                     11                     12
                      A                      A                      A
 Frequencies --   1083.6661              1179.4502              1226.2227
 Red. masses --      1.4791                 4.7829                 1.5028
 Frc consts  --      1.0234                 3.9201                 1.3313
 IR Inten    --      9.6216                33.0235                13.0634

                     13                     14                     15
                      A                      A                      A
 Frequencies --   1290.2940              1416.9465              1444.7859
 Red. masses --      4.5979                 2.5042                 3.1411
 Frc consts  --      4.5101                 2.9622                 3.8631
 IR Inten    --     77.1470                73.6163                 5.7926

                     16                     17                     18
                      A                      A                      A
 Frequencies --   3215.0149              3232.4540              3263.3011
 Red. masses --      1.0944                 1.1018                 1.1034
 Frc consts  --      6.6651                 6.7830                 6.9229
 IR Inten    --     27.9897                52.2154                59.4838

 - Thermochemistry -
 -------------------
 Temperature   298.150 Kelvin.  Pressure   1.00000 Atm.
 Atom     1 has atomic number  6 and mass  12.00000

 Molecular mass:    67.01839 amu.
 Principal axes and moments of inertia in atomic units:
                           1         2         3
     Eigenvalues --   156.42678 210.32803 357.95888
           X            0.99490  -0.10062  -0.00752
           Y            0.10076   0.99471   0.01989
           Z            0.00548  -0.02055   0.99977
 This molecule is an asymmetric top.
 Rotational symmetry number  1.
 Rotational temperatures (Kelvin)      0.55370     0.41180     0.24197
 Rotational constants (GHZ):          11.53729     8.58060     5.04176
 Zero-point vibrational energy     145114.1 (Joules/Mol)
                                   34.68311 (Kcal/Mol)
 Warning -- explicit consideration of   3 degrees of freedom as
           vibrations may cause significant error
 Vibrational temperatures:    674.03   768.79   840.62   981.01  1139.90
          (Kelvin)           1265.17  1353.67  1376.28  1541.09  1559.15
                             1696.96  1764.26  1856.44  2038.67  2078.72
                             4625.68  4650.77  4695.16

 Zero-point correction=                           0.055271 (Hartree/Particle)
 Thermal correction to Energy=                    0.059182
 Thermal correction to Enthalpy=                  0.060127
 Thermal correction to Gibbs Free Energy=         0.029003
 Sum of electronic and zero-point Energies=           -228.998529
 Sum of electronic and thermal Energies=              -228.994618
 Sum of electronic and thermal Enthalpies=            -228.993674
 Sum of electronic and thermal Free Energies=         -229.024797

                     E (Thermal)             CV                S
                      KCal/Mol        Cal/Mol-Kelvin    Cal/Mol-Kelvin
 Total                   37.138             13.802             65.505
 Electronic               0.000              0.000              0.000
 Translational            0.889              2.981             38.525
 Rotational               0.889              2.981             23.980
 Vibrational             35.360              7.841              3.000
 Vibration     1          0.826              1.320              0.742
 Vibration     2          0.889              1.174              0.578
 Vibration     3          0.941              1.065              0.478

 Normal termination of Gaussian 09 at Fri Mar  1 09:13:27 2019.
