 Gaussian 09, Revision E.01,
 Gaussian 09:  EM64L-G09RevE.01 30-Nov-2015

 ------------------------------------------------------
 #p b3lyp/6-311++G(3df,2p) freq IOp(2/17=3) IOp(2/18=3)
 ------------------------------------------------------

 ---------
 b3lyp opt
 ---------
 Symbolic Z-matrix:
 Charge =  1 Multiplicity = 1

                         Standard orientation:
 ---------------------------------------------------------------------
 Center     Atomic      Atomic             Coordinates (Angstroms)
 Number     Number       Type             X           Y           Z
 ---------------------------------------------------------------------
      1          6           0        1.463696   -0.673627   -0.093060
      2          6           0       -1.178878   -0.004913    0.464038
      3          8           0       -1.850725    0.004927   -0.517669
      4          6           0        0.318514   -0.002085    0.234652
      5          6           0        1.462186    0.675843   -0.085005
      6          1           0        1.976335   -1.611379   -0.252293
      7          1           0       -1.536242   -0.015966    1.503071
      8          1           0        1.972595    1.616621   -0.233170
 ---------------------------------------------------------------------

 SCF Done:  E(RB3LYP) =  -229.118260165     A.U. after   12 cycles

 The electronic state is 1-A.
 Alpha  occ. eigenvalues --  -19.35604 -10.51155 -10.50849 -10.50782 -10.50146
 Alpha  occ. eigenvalues --   -1.29012  -1.22299  -0.92057  -0.86039  -0.82250
 Alpha  occ. eigenvalues --   -0.75983  -0.68569  -0.66327  -0.65158  -0.65107
 Alpha  occ. eigenvalues --   -0.59843  -0.49379
 Alpha virt. eigenvalues --   -0.29440  -0.29411  -0.26536  -0.15815  -0.14570
 Alpha virt. eigenvalues --   -0.14238  -0.11782  -0.11290  -0.10246  -0.09442
 Alpha virt. eigenvalues --   -0.06384  -0.05621  -0.04286  -0.03820  -0.03489

 Mulliken charges:
               1
     1  C    0.211924
     2  C    0.226537
     3  O   -0.456466
     4  C   -0.050735
     5  C    0.211468
     6  H    0.320279
     7  H    0.216666
     8  H    0.320328
 Sum of Mulliken charges =   1.00000

 Dipole moment (field-independent basis, Debye):
    X=              5.3204    Y=             -0.0174    Z=              1.7967  Tot=              5.6156
 Quadrupole moment (field-independent basis, Debye-Ang):
   XX=            -15.7647   YY=            -19.2347   ZZ=            -24.1483
   XY=              0.0415   XZ=             -4.6819   YZ=              0.0237

  Exact polarizability:  50.389  -0.002  33.915  -0.635  -0.013  30.929
 Approx polarizability:  72.848  -0.062  52.797   4.431  -0.042  49.893

                      1                      2                      3
                      A                      A                      A
 Frequencies --     19.5609               184.0009               295.1823
 Red. masses --      2.8872                 5.9137                 2.5840
 Frc consts  --      0.0007                 0.1180                 0.1327
 IR Inten    --      9.2026                30.9422                 4.4613

                      4                      5                      6
                      A                      A                      A
 Frequencies --    539.6512               750.5061               912.6787
 Red. masses --      4.7910                 2.2305                 1.6092
 Frc consts  --      0.8220                 0.7402                 0.7898
 IR Inten    --      7.6610                62.3438                21.1467

                      7                      8                      9
                      A                      A                      A
 Frequencies --    958.7855               973.8968              1010.5479
 Red. masses --      1.5651                 1.2695                 1.4262
 Frc consts  --      0.8477                 0.7095                 0.8581
 IR Inten    --      0.2746                80.8692                 0.0301

                     10                     11                     12
                      A                      A                      A
 Frequencies --   1037.4511              1271.1474              1357.1355
 Red. masses --      1.5001                 6.4219                 4.0807
 Frc consts  --      0.9513                 6.1138                 4.4282
 IR Inten    --     12.1629                29.0690                16.5047

                     13                     14                     15
                      A                      A                      A
 Frequencies --   1381.9183              1719.4202              1818.9244
 Red. masses --      1.3441                 6.3826                 9.3195
 Frc consts  --      1.5124                11.1176                18.1665
 IR Inten    --      6.5574                26.8819                80.7946

                     16                     17                     18
                      A                      A                      A
 Frequencies --   3018.4283              3231.1807              3264.5101
 Red. masses --      1.0953                 1.0984                 1.1448
 Frc consts  --      5.8797                 6.7567                 7.1882
 IR Inten    --      4.1515                94.6032                41.5628

 - Thermochemistry -
 -------------------
 Temperature   298.150 Kelvin.  Pressure   1.00000 Atm.
 Atom     1 has atomic number  6 and mass  12.00000

 Molecular mass:    67.01839 amu.
 Principal axes and moments of inertia in atomic units:
                           1         2         3
     Eigenvalues --    93.55502 515.30034 537.29215
           X            0.99967   0.00026  -0.02577
           Y           -0.00024   1.00000   0.00076
           Z            0.02577  -0.00075   0.99967
 This molecule is an asymmetric top.
 Rotational symmetry number  1.
 Rotational temperatures (Kelvin)      0.92581     0.16808     0.16120
 Rotational constants (GHZ):          19.29069     3.50231     3.35896
 Zero-point vibrational energy     142026.2 (Joules/Mol)
                                   33.94508 (Kcal/Mol)
 Warning -- explicit consideration of   4 degrees of freedom as
           vibrations may cause significant error
 Vibrational temperatures:     28.14   264.74   424.70   776.44  1079.81
          (Kelvin)           1313.14  1379.48  1401.22  1453.95  1492.66
                             1828.90  1952.61  1988.27  2473.86  2617.02
                             4342.84  4648.94  4696.90

 Zero-point correction=                           0.054095 (Hartree/Particle)
 Thermal correction to Energy=                    0.059366
 Thermal correction to Enthalpy=                  0.060310
 Thermal correction to Gibbs Free Energy=         0.024622
 Sum of electronic and zero-point Energies=           -229.064165
 Sum of electronic and thermal Energies=              -229.058894
 Sum of electronic and thermal Enthalpies=            -229.057950
 Sum of electronic and thermal Free Energies=         -229.093638

                     E (Thermal)             CV                S
                      KCal/Mol        Cal/Mol-Kelvin    Cal/Mol-Kelvin
 Total                   37.253             15.864             75.113
 Electronic               0.000              0.000              0.000
 Translational            0.889              2.981             38.525
 Rotational               0.889              2.981             24.764
 Vibrational             35.475              9.902             11.824
 Vibration     1          0.593              1.986              6.678
 Vibration     2          0.631              1.862              2.287
 Vibration     3          0.689              1.683              1.444
 Vibration     4          0.895              1.162              0.566

 Normal termination of Gaussian 09 at Fri Mar  1 09:12:20 2019.
