 Gaussian 09, Revision E.01,
 Gaussian 09:  EM64L-G09RevE.01 30-Nov-2015

 ------------------------------------------------------
 #p b3lyp/6-311++G(3df,2p) freq IOp(2/17=3) IOp(2/18=3)
 ------------------------------------------------------

 ---------
 b3lyp opt
 ---------
 Symbolic Z-matrix:
 Charge =  1 Multiplicity = 1

                         Standard orientation:
 ---------------------------------------------------------------------
 Center     Atomic      Atomic             Coordinates (Angstroms)
 Number     Number       Type             X           Y           Z
 ---------------------------------------------------------------------
      1          6           0        0.269673    1.387864    0.634414
      2          6           0       -0.143413   -1.003842   -0.000000
      3          8           0        0.269673   -2.044896   -0.000000
      4          6           0       -0.633749    0.308450    0.000000
      5          6           0        0.269673    1.387864   -0.634414
      6          1           0        0.494878    1.756273    1.619934
      7          1           0       -1.720254    0.364603    0.000000
      8          1           0        0.494878    1.756273   -1.619934
 ---------------------------------------------------------------------

 SCF Done:  E(RB3LYP) =  -229.134698691     A.U. after   11 cycles

 The electronic state is 1-A'.
 Alpha  occ. eigenvalues --  -19.48261 -10.58157 -10.48014 -10.45036 -10.44901
 Alpha  occ. eigenvalues --   -1.42081  -1.15114  -0.97126  -0.81213  -0.79826
 Alpha  occ. eigenvalues --   -0.76183  -0.75981  -0.73351  -0.71448  -0.63329
 Alpha  occ. eigenvalues --   -0.56230  -0.53142
 Alpha virt. eigenvalues --   -0.29117  -0.28519  -0.23280  -0.18023  -0.13024
 Alpha virt. eigenvalues --   -0.12892  -0.12535  -0.09032  -0.08935  -0.08468
 Alpha virt. eigenvalues --   -0.07512  -0.06383  -0.04998  -0.04668  -0.04146

 Mulliken charges:
               1
     1  C   -0.002264
     2  C    0.754820
     3  O   -0.414678
     4  C   -0.175287
     5  C   -0.002264
     6  H    0.315027
     7  H    0.209620
     8  H    0.315027
 Sum of Mulliken charges =   1.00000

 Dipole moment (field-independent basis, Debye):
    X=             -0.6683    Y=              1.6527    Z=              0.0000  Tot=              1.7827
 Quadrupole moment (field-independent basis, Debye-Ang):
   XX=            -23.2979   YY=            -17.6031   ZZ=            -20.3173
   XY=              1.9228   XZ=              0.0000   YZ=              0.0000

  Exact polarizability:  31.284   1.528  54.256  -0.000   0.000  35.123
 Approx polarizability:  47.169  -0.116  89.098   0.000  -0.000  58.580

                      1                      2                      3
                     A'                     A"                     A'
 Frequencies --    191.5961               207.3911               622.0219
 Red. masses --      6.7412                 3.5144                 6.2131
 Frc consts  --      0.1458                 0.0891                 1.4163
 IR Inten    --      2.3491                 0.5803                 5.1960

                      4                      5                      6
                     A"                     A'                     A"
 Frequencies --    631.0170               701.7461               739.3153
 Red. masses --      6.8503                 1.1892                 6.0873
 Frc consts  --      1.6071                 0.3450                 1.9604
 IR Inten    --      5.5037                90.5637                14.5401

                      7                      8                      9
                     A"                     A'                     A"
 Frequencies --    833.2358               910.0429               922.6394
 Red. masses --      1.4929                 1.8610                 1.1564
 Frc consts  --      0.6107                 0.9081                 0.5800
 IR Inten    --      2.5205                 1.5826                69.1131

                     10                     11                     12
                     A'                     A'                     A"
 Frequencies --    960.9032              1009.5396              1033.1424
 Red. masses --      5.1063                 2.0434                 1.3411
 Frc consts  --      2.7779                 1.2270                 0.8434
 IR Inten    --    141.4097                13.1779                 0.3775

                     13                     14                     15
                     A'                     A'                     A'
 Frequencies --   1323.4748              1779.9600              2316.1318
 Red. masses --      1.1767                 4.7035                12.8992
 Frc consts  --      1.2144                 8.7799                40.7697
 IR Inten    --     12.2601                 4.6267               426.8989

                     16                     17                     18
                     A'                     A"                     A'
 Frequencies --   3107.0200              3258.9666              3318.2735
 Red. masses --      1.0846                 1.0868                 1.1669
 Frc consts  --      6.1687                 6.8006                 7.5704
 IR Inten    --     21.2929               113.8101                43.3778

 - Thermochemistry -
 -------------------
 Temperature   298.150 Kelvin.  Pressure   1.00000 Atm.
 Atom     1 has atomic number  6 and mass  12.00000

 Molecular mass:    67.01839 amu.
 Principal axes and moments of inertia in atomic units:
                           1         2         3
     Eigenvalues --    94.23391 513.95261 526.48628
           X            0.00582   0.00000   0.99998
           Y            0.99998  -0.00000  -0.00582
           Z            0.00000   1.00000  -0.00000
 This molecule is an asymmetric top.
 Rotational symmetry number  1.
 Rotational temperatures (Kelvin)      0.91914     0.16852     0.16451
 Rotational constants (GHZ):          19.15172     3.51149     3.42790
 Zero-point vibrational energy     142752.9 (Joules/Mol)
                                   34.11876 (Kcal/Mol)
 Warning -- explicit consideration of   2 degrees of freedom as
           vibrations may cause significant error
 Vibrational temperatures:    275.66   298.39   894.95   907.89  1009.65
          (Kelvin)           1063.71  1198.84  1309.35  1327.47  1382.52
                             1452.50  1486.46  1904.18  2560.96  3332.39
                             4470.30  4688.92  4774.25

 Zero-point correction=                           0.054372 (Hartree/Particle)
 Thermal correction to Energy=                    0.059123
 Thermal correction to Enthalpy=                  0.060067
 Thermal correction to Gibbs Free Energy=         0.026957
 Sum of electronic and zero-point Energies=           -229.080327
 Sum of electronic and thermal Energies=              -229.075576
 Sum of electronic and thermal Enthalpies=            -229.074632
 Sum of electronic and thermal Free Energies=         -229.107741

                     E (Thermal)             CV                S
                      KCal/Mol        Cal/Mol-Kelvin    Cal/Mol-Kelvin
 Total                   37.100             16.030             69.685
 Electronic               0.000              0.000              0.000
 Translational            0.889              2.981             38.525
 Rotational               0.889              2.981             24.748
 Vibrational             35.323             10.068              6.412
 Vibration     1          0.634              1.851              2.212
 Vibration     2          0.641              1.829              2.067

 Normal termination of Gaussian 09 at Sun Mar  3 15:57:17 2019.
