 Gaussian 09, Revision E.01,
 Gaussian 09:  EM64L-G09RevE.01 30-Nov-2015

 ------------------------------------------------------
 #p b3lyp/6-311++G(3df,2p) freq IOp(2/17=3) IOp(2/18=3)
 ------------------------------------------------------

 ---------
 b3lyp opt
 ---------
 Symbolic Z-matrix:
 Charge =  0 Multiplicity = 2

                         Standard orientation:
 ---------------------------------------------------------------------
 Center     Atomic      Atomic             Coordinates (Angstroms)
 Number     Number       Type             X           Y           Z
 ---------------------------------------------------------------------
      1          6           0       -0.818898   -1.005723    0.000000
      2          6           0        0.000000    1.097585    0.000000
      3          8           0       -1.124267    0.355166    0.000000
      4          6           0        1.129774    0.288578   -0.000000
      5          6           0        0.645026   -1.003297   -0.000000
      6          1           0       -0.115855    2.170503    0.000000
      7          1           0        2.149023    0.637221   -0.000000
      8          1           0        1.225553   -1.911910   -0.000000
 ---------------------------------------------------------------------

 SCF Done:  E(UB3LYP) =  -229.380093381     A.U. after   15 cycles

 The electronic state is 2-A".
 Alpha  occ. eigenvalues --  -19.20582 -10.28357 -10.22808 -10.21087 -10.20786
 Alpha  occ. eigenvalues --   -1.12850  -0.83615  -0.76480  -0.61917  -0.59028
 Alpha  occ. eigenvalues --   -0.55598  -0.48020  -0.45470  -0.43310  -0.39183
 Alpha  occ. eigenvalues --   -0.32345  -0.26706  -0.23532
 Alpha virt. eigenvalues --   -0.03821  -0.01305   0.00665   0.01691   0.02065
 Alpha virt. eigenvalues --    0.04555   0.04670   0.06000   0.07145   0.08522
 Alpha virt. eigenvalues --    0.09830   0.09979   0.10113   0.11071   0.11684

  Beta  occ. eigenvalues --  -19.20709 -10.27584 -10.22311 -10.21197 -10.20348
  Beta  occ. eigenvalues --   -1.12599  -0.82986  -0.74581  -0.61264  -0.58313
  Beta  occ. eigenvalues --   -0.55104  -0.46129  -0.45199  -0.42833  -0.39048
  Beta  occ. eigenvalues --   -0.31301  -0.22680
  Beta virt. eigenvalues --   -0.16488  -0.01274  -0.00783   0.00716   0.02093
  Beta virt. eigenvalues --    0.04318   0.04696   0.05121   0.06145   0.07202
  Beta virt. eigenvalues --    0.09123   0.09987   0.10187   0.10195   0.11148

 Mulliken charges and spin densities:
               1          2
     1  C   -0.324606   0.319409
     2  C    0.064549   0.522739
     3  O   -0.498579  -0.057195
     4  C    0.037458  -0.120346
     5  C    0.142416   0.362609
     6  H    0.193263  -0.014760
     7  H    0.214552  -0.001361
     8  H    0.170947  -0.011095
 Sum of Mulliken charges =  -0.00000   1.00000

 Dipole moment (field-independent basis, Debye):
    X=              3.5208    Y=              2.6523    Z=             -0.0000  Tot=              4.4080
 Quadrupole moment (field-independent basis, Debye-Ang):
   XX=            -31.2665   YY=            -27.5128   ZZ=            -30.1918
   XY=             -3.6714   XZ=              0.0000   YZ=              0.0000

  Exact polarizability:  52.909   3.670  62.304   0.001  -0.002  30.375
 Approx polarizability:  79.755   2.275  98.447  -0.000  -0.000  52.778

                      1                      2                      3
                     A"                     A"                     A'
 Frequencies --    506.7569               704.4461               722.0168
 Red. masses --      2.2047                 2.0610                10.7914
 Frc consts  --      0.3336                 0.6026                 3.3145
 IR Inten    --     14.4125                 6.8762                 1.9092

                      4                      5                      6
                     A"                     A'                     A"
 Frequencies --    823.9124               867.7638               907.4676
 Red. masses --      1.6936                 5.9065                 1.3091
 Frc consts  --      0.6774                 2.6205                 0.6351
 IR Inten    --     25.4149                 1.9711                69.6673

                      7                      8                      9
                     A'                     A"                     A'
 Frequencies --    914.4193               936.0568              1011.4398
 Red. masses --      7.6406                 1.8713                 2.3726
 Frc consts  --      3.7642                 0.9661                 1.4301
 IR Inten    --      5.7940                15.7176                12.5903

                     10                     11                     12
                     A'                     A'                     A'
 Frequencies --   1033.6833              1100.3948              1137.3261
 Red. masses --      1.9858                 1.7036                 2.2689
 Frc consts  --      1.2502                 1.2154                 1.7292
 IR Inten    --     34.1942                16.1843                 8.1368

                     13                     14                     15
                     A'                     A'                     A'
 Frequencies --   1339.0882              1406.0947              1480.6991
 Red. masses --      1.7227                 3.3583                 2.9970
 Frc consts  --      1.8200                 3.9120                 3.8714
 IR Inten    --     20.6846                66.3493                 4.4499

                     16                     17                     18
                     A'                     A'                     A'
 Frequencies --   3222.7075              3229.9040              3247.4947
 Red. masses --      1.0890                 1.0938                 1.1060
 Frc consts  --      6.6640                 6.7229                 6.8720
 IR Inten    --      0.0399                 2.5519                 0.6709

 - Thermochemistry -
 -------------------
 Temperature   298.150 Kelvin.  Pressure   1.00000 Atm.
 Atom     1 has atomic number  6 and mass  12.00000

 Molecular mass:    67.01839 amu.
 Principal axes and moments of inertia in atomic units:
                           1         2         3
     Eigenvalues --   178.35805 197.03074 375.38879
           X            0.94349   0.33140   0.00000
           Y           -0.33140   0.94349   0.00000
           Z           -0.00000   0.00000   1.00000
 This molecule is an asymmetric top.
 Rotational symmetry number  1.
 Rotational temperatures (Kelvin)      0.48562     0.43960     0.23073
 Rotational constants (GHZ):          10.11864     9.15969     4.80766
 Zero-point vibrational energy     147090.9 (Joules/Mol)
                                   35.15556 (Kcal/Mol)
 Warning -- explicit consideration of   1 degrees of freedom as
           vibrations may cause significant error
 Vibrational temperatures:    729.11  1013.54  1038.82  1185.42  1248.52
          (Kelvin)           1305.64  1315.64  1346.78  1455.23  1487.24
                             1583.22  1636.36  1926.65  2023.05  2130.39
                             4636.75  4647.11  4672.41

 Zero-point correction=                           0.056024 (Hartree/Particle)
 Thermal correction to Energy=                    0.059710
 Thermal correction to Enthalpy=                  0.060654
 Thermal correction to Gibbs Free Energy=         0.029156
 Sum of electronic and zero-point Energies=           -229.324069
 Sum of electronic and thermal Energies=              -229.320383
 Sum of electronic and thermal Enthalpies=            -229.319439
 Sum of electronic and thermal Free Energies=         -229.350938

                     E (Thermal)             CV                S
                      KCal/Mol        Cal/Mol-Kelvin    Cal/Mol-Kelvin
 Total                   37.469             12.936             66.295
 Electronic               0.000              0.000              1.377
 Translational            0.889              2.981             38.525
 Rotational               0.889              2.981             24.093
 Vibrational             35.691              6.974              2.299
 Vibration     1          0.862              1.235              0.641

 Normal termination of Gaussian 09 at Fri Mar  1 09:05:58 2019.
