 Gaussian 09, Revision E.01,
 Gaussian 09:  EM64L-G09RevE.01 30-Nov-2015

 ------------------------------------------------------
 #p b3lyp/6-311++G(3df,2p) freq IOp(2/17=3) IOp(2/18=3)
 ------------------------------------------------------

 ---------
 b3lyp opt
 ---------
 Symbolic Z-matrix:
 Charge =  1 Multiplicity = 1

                         Standard orientation:
 ---------------------------------------------------------------------
 Center     Atomic      Atomic             Coordinates (Angstroms)
 Number     Number       Type             X           Y           Z
 ---------------------------------------------------------------------
      1          6           0       -0.603325    0.850606   -0.027836
      2          6           0        1.099155   -0.494670   -0.043388
      3          8           0        0.787858    0.797924    0.014888
      4          6           0       -0.112789   -1.097773    0.171247
      5          6           0       -1.231413   -0.386555   -0.136135
      6          1           0       -1.038205    1.781908    0.310521
      7          1           0        2.110016   -0.824530   -0.219024
      8          1           0       -2.284444   -0.570410    0.006073
 ---------------------------------------------------------------------

 SCF Done:  E(RB3LYP) =  -229.050310995     A.U. after   13 cycles

 The electronic state is 1-A.
 Alpha  occ. eigenvalues --  -19.47088 -10.52162 -10.52083 -10.51341 -10.46231
 Alpha  occ. eigenvalues --   -1.39911  -1.10291  -1.01744  -0.86786  -0.83599
 Alpha  occ. eigenvalues --   -0.78212  -0.74012  -0.70644  -0.68759  -0.64565
 Alpha  occ. eigenvalues --   -0.56770  -0.50473
 Alpha virt. eigenvalues --   -0.40490  -0.27116  -0.21969  -0.15143  -0.13596
 Alpha virt. eigenvalues --   -0.12873  -0.11586  -0.10661  -0.10334  -0.08875
 Alpha virt. eigenvalues --   -0.06403  -0.05587  -0.05020  -0.04008  -0.02602

 Mulliken charges:
               1
     1  C    0.227578
     2  C    0.215950
     3  O   -0.458533
     4  C    0.311279
     5  C   -0.081394
     6  H    0.244393
     7  H    0.293833
     8  H    0.246896
 Sum of Mulliken charges =   1.00000

 Dipole moment (field-independent basis, Debye):
    X=             -0.7484    Y=             -0.9004    Z=             -0.1875  Tot=              1.1857
 Quadrupole moment (field-independent basis, Debye-Ang):
   XX=            -14.4372   YY=            -19.8753   ZZ=            -27.3992
   XY=             -3.3295   XZ=             -0.9753   YZ=              1.3827

  Exact polarizability:  48.661  -1.418  48.705  -1.009  -1.939  26.222
 Approx polarizability:  82.583   3.148 109.779  -2.538  -7.895  39.801

                      1                      2                      3
                      A                      A                      A
 Frequencies --    416.2747               527.9534               638.2051
 Red. masses --      3.5276                 2.5042                 7.2625
 Frc consts  --      0.3602                 0.4113                 1.7428
 IR Inten    --     30.8751                55.0309                31.1579

                      4                      5                      6
                      A                      A                      A
 Frequencies --    704.3251               798.7788               844.7668
 Red. masses --      2.2594                 1.7676                 1.6670
 Frc consts  --      0.6604                 0.6645                 0.7009
 IR Inten    --     18.2278                26.8357                24.5152

                      7                      8                      9
                      A                      A                      A
 Frequencies --    890.9967               980.3737              1076.6546
 Red. masses --      2.1507                 2.2100                 1.8511
 Frc consts  --      1.0060                 1.2515                 1.2643
 IR Inten    --     32.5498                10.7994                14.9135

                     10                     11                     12
                      A                      A                      A
 Frequencies --   1099.8115              1229.4706              1249.2095
 Red. masses --      1.6069                 3.5910                 1.4137
 Frc consts  --      1.1452                 3.1982                 1.2998
 IR Inten    --     46.0216                 9.4598                 6.2196

                     13                     14                     15
                      A                      A                      A
 Frequencies --   1308.3792              1435.6185              1525.1040
 Red. masses --      2.8882                 2.4638                 6.9892
 Frc consts  --      2.9130                 2.9918                 9.5781
 IR Inten    --     43.6105                 9.4896                12.4856

                     16                     17                     18
                      A                      A                      A
 Frequencies --   3213.4209              3246.4286              3266.0653
 Red. masses --      1.0945                 1.1027                 1.1026
 Frc consts  --      6.6589                 6.8472                 6.9301
 IR Inten    --     57.8785                72.2154                62.2139

 - Thermochemistry -
 -------------------
 Temperature   298.150 Kelvin.  Pressure   1.00000 Atm.
 Atom     1 has atomic number  6 and mass  12.00000

 Molecular mass:    67.01839 amu.
 Principal axes and moments of inertia in atomic units:
                           1         2         3
     Eigenvalues --   152.45622 210.74888 357.98906
           X            0.99009  -0.13968  -0.01459
           Y            0.13993   0.98999   0.01826
           Z            0.01190  -0.02012   0.99973
 This molecule is an asymmetric top.
 Rotational symmetry number  1.
 Rotational temperatures (Kelvin)      0.56812     0.41098     0.24195
 Rotational constants (GHZ):          11.83777     8.56347     5.04133
 Zero-point vibrational energy     146254.5 (Joules/Mol)
                                   34.95566 (Kcal/Mol)
 Warning -- explicit consideration of   2 degrees of freedom as
           vibrations may cause significant error
 Vibrational temperatures:    598.93   759.61   918.23  1013.37  1149.26
          (Kelvin)           1215.43  1281.94  1410.54  1549.06  1582.38
                             1768.93  1797.33  1882.46  2065.53  2194.28
                             4623.39  4670.88  4699.13

 Zero-point correction=                           0.055705 (Hartree/Particle)
 Thermal correction to Energy=                    0.059630
 Thermal correction to Enthalpy=                  0.060575
 Thermal correction to Gibbs Free Energy=         0.029430
 Sum of electronic and zero-point Energies=           -228.994606
 Sum of electronic and thermal Energies=              -228.990681
 Sum of electronic and thermal Enthalpies=            -228.989736
 Sum of electronic and thermal Free Energies=         -229.020881

                     E (Thermal)             CV                S
                      KCal/Mol        Cal/Mol-Kelvin    Cal/Mol-Kelvin
 Total                   37.419             13.750             65.550
 Electronic               0.000              0.000              0.000
 Translational            0.889              2.981             38.525
 Rotational               0.889              2.981             23.957
 Vibrational             35.641              7.789              3.068
 Vibration     1          0.779              1.435              0.905
 Vibration     2          0.883              1.188              0.592

 Optimization completed.
    -- Stationary point found.
 Normal termination of Gaussian 09 at Fri Mar  1 09:12:47 2019.
