 Gaussian 09, Revision E.01,
 Gaussian 09:  EM64L-G09RevE.01 30-Nov-2015

 ------------------------------------------------------
 #p b3lyp/6-311++G(3df,2p) freq IOp(2/17=3) IOp(2/18=3)
 ------------------------------------------------------

 ---------
 b3lyp opt
 ---------
 Symbolic Z-matrix:
 Charge =  0 Multiplicity = 2

                         Standard orientation:
 ---------------------------------------------------------------------
 Center     Atomic      Atomic             Coordinates (Angstroms)
 Number     Number       Type             X           Y           Z
 ---------------------------------------------------------------------
      1          6           0        0.000000    1.231804   -0.000000
      2          1           0       -1.309563   -1.828755    0.000000
      3          6           0        1.030280    0.345748   -0.000000
      4          6           0       -0.792633   -0.888614    0.000000
      5          6           0       -1.153399    0.406208   -0.000000
      6          1           0        0.064783    2.304947   -0.000000
      7          1           0        2.098903    0.465401    0.000000
      8          8           0        0.580048   -0.939058    0.000000
 ---------------------------------------------------------------------

 SCF Done:  E(UB3LYP) =  -229.404423313     A.U. after   15 cycles

 The electronic state is 2-A'.
 Alpha  occ. eigenvalues --  -19.20394 -10.23561 -10.23017 -10.21134 -10.18763
 Alpha  occ. eigenvalues --   -1.12444  -0.82120  -0.76030  -0.60635  -0.58368
 Alpha  occ. eigenvalues --   -0.53626  -0.46526  -0.45611  -0.43289  -0.39209
 Alpha  occ. eigenvalues --   -0.30196  -0.29152  -0.24837
 Alpha virt. eigenvalues --   -0.01303  -0.00155   0.01322   0.02092   0.04272
 Alpha virt. eigenvalues --    0.04752   0.05416   0.05846   0.07632   0.08962
 Alpha virt. eigenvalues --    0.10350   0.10545   0.11329   0.11998   0.12253

  Beta  occ. eigenvalues --  -19.20245 -10.23463 -10.23031 -10.19507 -10.18715
  Beta  occ. eigenvalues --   -1.12007  -0.80663  -0.75488  -0.59902  -0.57900
  Beta  occ. eigenvalues --   -0.51932  -0.46422  -0.45295  -0.42592  -0.38530
  Beta  occ. eigenvalues --   -0.29380  -0.24587
  Beta virt. eigenvalues --   -0.12229  -0.01167  -0.00120   0.01345   0.02257
  Beta virt. eigenvalues --    0.04778   0.05231   0.06091   0.06175   0.07736
  Beta virt. eigenvalues --    0.08932   0.10385   0.10802   0.11492   0.12070

 Mulliken charges and spin densities:
               1          2
     1  C   -0.159215  -0.085386
     2  H    0.204106   0.004646
     3  C    0.057517   0.047532
     4  C    0.031300  -0.083218
     5  C    0.047480   1.064018
     6  H    0.182900   0.005684
     7  H    0.197236   0.004643
     8  O   -0.561323   0.042082
 Sum of Mulliken charges =  -0.00000   1.00000

 Dipole moment (field-independent basis, Debye):
    X=              0.4709    Y=              0.3629    Z=              0.0000  Tot=              0.5945
 Quadrupole moment (field-independent basis, Debye-Ang):
   XX=            -27.2376   YY=            -25.9823   ZZ=            -31.3323
   XY=              2.8243   XZ=              0.0000   YZ=              0.0000

  Exact polarizability:  53.291   3.212  53.415  -0.000  -0.002  34.268
 Approx polarizability:  85.173   0.638  86.954  -0.000  -0.000  48.452

                      1                      2                      3
                     A"                     A"                     A"
 Frequencies --    546.4146               618.1643               706.8081
 Red. masses --      3.4707                 3.5035                 1.3542
 Frc consts  --      0.6105                 0.7888                 0.3986
 IR Inten    --     14.0214                11.1968                10.6429

                      4                      5                      6
                     A"                     A"                     A'
 Frequencies --    767.8566               860.0751               866.5996
 Red. masses --      1.3001                 1.3344                 5.8770
 Frc consts  --      0.4516                 0.5816                 2.6004
 IR Inten    --     72.0507                 0.0002                22.2068

                      7                      8                      9
                     A'                     A'                     A'
 Frequencies --    873.9552              1015.5456              1047.0268
 Red. masses --      6.9899                 2.3113                 2.0914
 Frc consts  --      3.1456                 1.4044                 1.3508
 IR Inten    --      1.2312                46.5654                 0.3868

                     10                     11                     12
                     A'                     A'                     A'
 Frequencies --   1138.6079              1175.1309              1247.4845
 Red. masses --      6.4994                 1.9088                 1.2274
 Frc consts  --      4.9645                 1.5531                 1.1254
 IR Inten    --      4.9645                 6.4022                 4.0569

                     13                     14                     15
                     A'                     A'                     A'
 Frequencies --   1377.8412              1490.0979              1545.6493
 Red. masses --      2.5961                 3.5973                 5.5694
 Frc consts  --      2.9038                 4.7061                 7.8394
 IR Inten    --      2.1208                16.6024                 0.5755

                     16                     17                     18
                     A'                     A'                     A'
 Frequencies --   3253.1973              3272.9838              3293.8394
 Red. masses --      1.0892                 1.1050                 1.0996
 Frc consts  --      6.7917                 6.9743                 7.0290
 IR Inten    --      0.8706                 0.2733                 1.8445

 - Thermochemistry -
 -------------------
 Temperature   298.150 Kelvin.  Pressure   1.00000 Atm.
 Atom     1 has atomic number  6 and mass  12.00000

 Molecular mass:    67.01839 amu.
 Principal axes and moments of inertia in atomic units:
                           1         2         3
     Eigenvalues --   168.71178 195.24225 363.95403
           X            0.26961   0.96297   0.00000
           Y            0.96297  -0.26961   0.00000
           Z            0.00000   0.00000   1.00000
 This molecule is an asymmetric top.
 Rotational symmetry number  1.
 Rotational temperatures (Kelvin)      0.51338     0.44362     0.23798
 Rotational constants (GHZ):          10.69719     9.24360     4.95871
 Zero-point vibrational energy     150115.1 (Joules/Mol)
                                   35.87836 (Kcal/Mol)
 Warning -- explicit consideration of   2 degrees of freedom as
           vibrations may cause significant error
 Vibrational temperatures:    786.17   889.40  1016.94  1104.77  1237.45
          (Kelvin)           1246.84  1257.43  1461.14  1506.44  1638.20
                             1690.75  1794.85  1982.40  2143.92  2223.84
                             4680.62  4709.09  4739.09

 Zero-point correction=                           0.057176 (Hartree/Particle)
 Thermal correction to Energy=                    0.060869
 Thermal correction to Enthalpy=                  0.061813
 Thermal correction to Gibbs Free Energy=         0.030348
 Sum of electronic and zero-point Energies=           -229.347248
 Sum of electronic and thermal Energies=              -229.343555
 Sum of electronic and thermal Enthalpies=            -229.342610
 Sum of electronic and thermal Free Energies=         -229.374075

                     E (Thermal)             CV                S
                      KCal/Mol        Cal/Mol-Kelvin    Cal/Mol-Kelvin
 Total                   38.196             12.855             66.223
 Electronic               0.000              0.000              1.377
 Translational            0.889              2.981             38.525
 Rotational               0.889              2.981             23.998
 Vibrational             36.418              6.894              2.322
 Vibration     1          0.902              1.148              0.552
 Vibration     2          0.978              0.994              0.419

 Normal termination of Gaussian 09 at Fri Mar  1 09:06:04 2019.
