 Gaussian 09, Revision E.01,
 Gaussian 09:  EM64L-G09RevE.01 30-Nov-2015

 ------------------------------------------------------
 #p b3lyp/6-311++G(3df,2p) freq IOp(2/17=3) IOp(2/18=3)
 ------------------------------------------------------

 ---------
 b3lyp opt
 ---------
 Symbolic Z-matrix:
 Charge =  1 Multiplicity = 3

                         Standard orientation:
 ---------------------------------------------------------------------
 Center     Atomic      Atomic             Coordinates (Angstroms)
 Number     Number       Type             X           Y           Z
 ---------------------------------------------------------------------
      1          6           0       -0.018832   -0.856198   -0.000000
      2          1           0       -0.331290    1.008775    0.817592
      3          1           0       -0.331290    1.008775   -0.817592
      4          1           0        0.926233   -1.397506   -0.000000
      5          8           0       -0.018832    0.564643    0.000000
 ---------------------------------------------------------------------

 SCF Done:  E(UB3LYP) =  -114.683132695     A.U. after   11 cycles

 The electronic state is 3-A".
 Alpha  occ. eigenvalues --  -19.56111 -10.54340  -1.45369  -1.01153  -0.94723
 Alpha  occ. eigenvalues --   -0.80104  -0.76972  -0.56109  -0.52270
 Alpha virt. eigenvalues --   -0.26721  -0.18729  -0.15799  -0.12717  -0.10595
 Alpha virt. eigenvalues --   -0.09011  -0.07215  -0.05689  -0.05292  -0.04076
 Alpha virt. eigenvalues --   -0.01440   0.00396   0.00487   0.03098   0.08182

  Beta  occ. eigenvalues --  -19.55829 -10.51095  -1.44288  -0.97152  -0.93819
  Beta  occ. eigenvalues --   -0.76726  -0.73751
  Beta virt. eigenvalues --   -0.36111  -0.32191  -0.25870  -0.18502  -0.14300
  Beta virt. eigenvalues --   -0.11273  -0.09871  -0.08107  -0.05227  -0.05086
  Beta virt. eigenvalues --   -0.03841  -0.03778  -0.00694   0.00998   0.01422

 Mulliken charges and spin densities:
               1          2
     1  C    0.194866   1.893560
     2  H    0.337055   0.015532
     3  H    0.337055   0.015532
     4  H    0.259284   0.056768
     5  O   -0.128261   0.018610
 Sum of Mulliken charges =   1.00000   2.00000

 Dipole moment (field-independent basis, Debye):
    X=             -0.4811    Y=              1.9786    Z=             -0.0000  Tot=              2.0362
 Quadrupole moment (field-independent basis, Debye-Ang):
   XX=            -10.1308   YY=             -4.8977   ZZ=             -8.2079
   XY=             -3.1965   XZ=              0.0000   YZ=             -0.0000

  Exact polarizability:  13.142  -1.543  18.410  -0.000  -0.000  13.568
 Approx polarizability:  16.083  -1.518  22.061   0.000  -0.000  17.153

                      1                      2                      3
                     A"                     A'                     A'
 Frequencies --    377.6615               545.3238               980.5478
 Red. masses --      1.0807                 1.2423                 6.3529
 Frc consts  --      0.0908                 0.2177                 3.5988
 IR Inten    --     60.4790               326.4465                51.3128

                      4                      5                      6
                     A"                     A'                     A'
 Frequencies --   1031.9443              1098.7906              1653.5615
 Red. masses --      1.1776                 1.1856                 1.0855
 Frc consts  --      0.7388                 0.8434                 1.7488
 IR Inten    --      9.8553                15.1800               122.0307

                      7                      8                      9
                     A'                     A'                     A"
 Frequencies --   3129.1119              3544.7611              3611.5314
 Red. masses --      1.0900                 1.0385                 1.0926
 Frc consts  --      6.2879                 7.6884                 8.3966
 IR Inten    --     50.2017               232.8115               413.2720

 - Thermochemistry -
 -------------------
 Temperature   298.150 Kelvin.  Pressure   1.00000 Atm.
 Atom     1 has atomic number  6 and mass  12.00000

 Molecular mass:    31.01839 amu.
 Principal axes and moments of inertia in atomic units:
                           1         2         3
     Eigenvalues --     7.91150  67.84016  69.55179
           X           -0.11430   0.00000   0.99345
           Y            0.99345   0.00000   0.11430
           Z           -0.00000   1.00000   0.00000
 This molecule is an asymmetric top.
 Rotational symmetry number  1.
 Rotational temperatures (Kelvin)     10.94783     1.27673     1.24531
 Rotational constants (GHZ):         228.11611    26.60284    25.94816
 Zero-point vibrational energy      95541.2 (Joules/Mol)
                                   22.83488 (Kcal/Mol)
 Warning -- explicit consideration of   2 degrees of freedom as
           vibrations may cause significant error
 Vibrational temperatures:    543.37   784.60  1410.79  1484.74  1580.91
          (Kelvin)           2379.10  4502.09  5100.11  5196.18

 Zero-point correction=                           0.036390 (Hartree/Particle)
 Thermal correction to Energy=                    0.039847
 Thermal correction to Enthalpy=                  0.040791
 Thermal correction to Gibbs Free Energy=         0.012981
 Sum of electronic and zero-point Energies=           -114.646743
 Sum of electronic and thermal Energies=              -114.643286
 Sum of electronic and thermal Enthalpies=            -114.642342
 Sum of electronic and thermal Free Energies=         -114.670151

                     E (Thermal)             CV                S
                      KCal/Mol        Cal/Mol-Kelvin    Cal/Mol-Kelvin
 Total                   25.004              9.696             58.530
 Electronic               0.000              0.000              2.183
 Translational            0.889              2.981             36.229
 Rotational               0.889              2.981             18.263
 Vibrational             23.227              3.735              1.855
 Vibration     1          0.748              1.518              1.049
 Vibration     2          0.900              1.150              0.554

 Normal termination of Gaussian 09 at Sun Mar  3 15:50:57 2019.
