 Gaussian 09, Revision E.01,
 Gaussian 09:  EM64L-G09RevE.01 30-Nov-2015

 ------------------------------------------------------
 #p b3lyp/6-311++G(3df,2p) freq IOp(2/17=3) IOp(2/18=3)
 ------------------------------------------------------

 ---------
 b3lyp opt
 ---------
 Symbolic Z-matrix:
 Charge =  0 Multiplicity = 2

                         Standard orientation:
 ---------------------------------------------------------------------
 Center     Atomic      Atomic             Coordinates (Angstroms)
 Number     Number       Type             X           Y           Z
 ---------------------------------------------------------------------
      1          6           0       -0.683317    0.027617   -0.057692
      2          1           0        1.103476    0.728195   -0.051703
      3          1           0       -1.116175    0.996096    0.149876
      4          1           0       -1.236325   -0.884636    0.093439
      5          8           0        0.668615   -0.125670    0.019318
 ---------------------------------------------------------------------

 SCF Done:  E(UB3LYP) =  -115.110656830     A.U. after   12 cycles

 The electronic state is 2-A.
 Alpha  occ. eigenvalues --  -19.16729 -10.21732  -1.06953  -0.68149  -0.54010
 Alpha  occ. eigenvalues --   -0.46220  -0.41125  -0.36741  -0.18379
 Alpha virt. eigenvalues --   -0.01549   0.01283   0.03399   0.06367   0.07462
 Alpha virt. eigenvalues --    0.09669   0.11349   0.14512   0.15613   0.18536
 Alpha virt. eigenvalues --    0.19531   0.20836   0.23279   0.25103   0.31806

  Beta  occ. eigenvalues --  -19.16181 -10.20421  -1.05739  -0.65645  -0.52949
  Beta  occ. eigenvalues --   -0.45368  -0.37314  -0.35646
  Beta virt. eigenvalues --   -0.04288  -0.01468   0.01443   0.03385   0.07349
  Beta virt. eigenvalues --    0.07994   0.09746   0.11787   0.15032   0.16129
  Beta virt. eigenvalues --    0.18798   0.19926   0.21213   0.23859   0.25486

 Mulliken charges and spin densities:
               1          2
     1  C   -0.112440   0.936868
     2  H    0.235685  -0.005114
     3  H    0.151476  -0.023332
     4  H    0.149398  -0.022589
     5  O   -0.424119   0.114166
 Sum of Mulliken charges =  -0.00000   1.00000

 Dipole moment (field-independent basis, Debye):
    X=              0.0688    Y=              1.4697    Z=              0.2402  Tot=              1.4908
 Quadrupole moment (field-independent basis, Debye-Ang):
   XX=            -11.9815   YY=            -11.2097   ZZ=            -14.6826
   XY=              2.1715   XZ=             -0.6059   YZ=             -0.0136

  Exact polarizability:  23.625   0.366  19.274   0.279  -0.124  19.348
 Approx polarizability:  28.811   0.415  24.766   0.256  -0.234  22.735

                      1                      2                      3
                      A                      A                      A
 Frequencies --    409.7816               526.6167              1053.5438
 Red. masses --      1.1498                 1.2044                 1.0792
 Frc consts  --      0.1138                 0.1968                 0.7058
 IR Inten    --     28.9337               121.6921                47.9106

                      4                      5                      6
                      A                      A                      A
 Frequencies --   1203.7318              1355.7363              1483.7012
 Red. masses --      5.3144                 1.2825                 1.1504
 Frc consts  --      4.5370                 1.3888                 1.4921
 IR Inten    --    107.5792                28.8192                 8.1232

                      7                      8                      9
                      A                      A                      A
 Frequencies --   3129.7921              3271.7755              3850.3227
 Red. masses --      1.0459                 1.1246                 1.0665
 Frc consts  --      6.0365                 7.0927                 9.3158
 IR Inten    --     18.3021                 8.9612                62.8694

 - Thermochemistry -
 -------------------
 Temperature   298.150 Kelvin.  Pressure   1.00000 Atm.
 Atom     1 has atomic number  6 and mass  12.00000

 Molecular mass:    31.01839 amu.
 Principal axes and moments of inertia in atomic units:
                           1         2         3
     Eigenvalues --     9.26715  60.15621  68.91196
           X            0.99841   0.05258  -0.02036
           Y           -0.05244   0.99860   0.00749
           Z            0.02072  -0.00641   0.99976
 This molecule is an asymmetric top.
 Rotational symmetry number  1.
 Rotational temperatures (Kelvin)      9.34633     1.43981     1.25688
 Rotational constants (GHZ):         194.74609    30.00091    26.18908
 Zero-point vibrational energy      97405.9 (Joules/Mol)
                                   23.28058 (Kcal/Mol)
 Warning -- explicit consideration of   2 degrees of freedom as
           vibrations may cause significant error
 Vibrational temperatures:    589.58   757.68  1515.81  1731.90  1950.60
          (Kelvin)           2134.71  4503.07  4707.35  5539.75

 Zero-point correction=                           0.037100 (Hartree/Particle)
 Thermal correction to Energy=                    0.040498
 Thermal correction to Enthalpy=                  0.041442
 Thermal correction to Gibbs Free Energy=         0.014089
 Sum of electronic and zero-point Energies=           -115.073557
 Sum of electronic and thermal Energies=              -115.070159
 Sum of electronic and thermal Enthalpies=            -115.069214
 Sum of electronic and thermal Free Energies=         -115.096568

                     E (Thermal)             CV                S
                      KCal/Mol        Cal/Mol-Kelvin    Cal/Mol-Kelvin
 Total                   25.413              9.329             57.570
 Electronic               0.000              0.000              1.377
 Translational            0.889              2.981             36.229
 Rotational               0.889              2.981             18.292
 Vibrational             23.636              3.367              1.672
 Vibration     1          0.774              1.449              0.927
 Vibration     2          0.882              1.191              0.595

 Optimization completed.
    -- Stationary point found.
 Normal termination of Gaussian 09 at Fri Mar  1 09:07:23 2019.
