 Gaussian 09, Revision E.01,
 Gaussian 09:  EM64L-G09RevE.01 30-Nov-2015

 ------------------------------------------------------
 #p b3lyp/6-311++G(3df,2p) freq IOp(2/17=3) IOp(2/18=3)
 ------------------------------------------------------

 ---------
 b3lyp opt
 ---------
 Symbolic Z-matrix:
 Charge =  1 Multiplicity = 3

                         Standard orientation:
 ---------------------------------------------------------------------
 Center     Atomic      Atomic             Coordinates (Angstroms)
 Number     Number       Type             X           Y           Z
 ---------------------------------------------------------------------
      1          6           0       -0.006836   -0.666339   -0.000000
      2          1           0       -0.895446    1.084717    0.000000
      3          1           0        0.495542   -1.122925   -0.900068
      4          1           0        0.495542   -1.122925    0.900068
      5          8           0       -0.006836    0.644896    0.000000
 ---------------------------------------------------------------------

 SCF Done:  E(UB3LYP) =  -114.689554659     A.U. after   12 cycles

 The electronic state is 3-A".
 Alpha  occ. eigenvalues --  -19.57550 -10.56109  -1.45782  -1.03556  -0.86347
 Alpha  occ. eigenvalues --   -0.83319  -0.80809  -0.67246  -0.54503
 Alpha virt. eigenvalues --   -0.23811  -0.18493  -0.14570  -0.13356  -0.10225
 Alpha virt. eigenvalues --   -0.09831  -0.07212  -0.05057  -0.03439  -0.02605
 Alpha virt. eigenvalues --   -0.01893   0.00023   0.00190   0.05751   0.09161

  Beta  occ. eigenvalues --  -19.55539 -10.54372  -1.41223  -0.99635  -0.81895
  Beta  occ. eigenvalues --   -0.76576  -0.74953
  Beta virt. eigenvalues --   -0.51883  -0.36561  -0.22827  -0.17294  -0.13279
  Beta virt. eigenvalues --   -0.12464  -0.08947  -0.08560  -0.06473  -0.03716
  Beta virt. eigenvalues --   -0.02658  -0.01446  -0.01215   0.01222   0.01900

 Mulliken charges and spin densities:
               1          2
     1  C    0.201101   1.020450
     2  H    0.352491   0.000731
     3  H    0.281315   0.163092
     4  H    0.281315   0.163092
     5  O   -0.116221   0.652636
 Sum of Mulliken charges =   1.00000   2.00000

 Dipole moment (field-independent basis, Debye):
    X=             -0.6761    Y=             -0.6152    Z=             -0.0000  Tot=              0.9142
 Quadrupole moment (field-independent basis, Debye-Ang):
   XX=             -8.8747   YY=             -5.5618   ZZ=             -8.6796
   XY=             -4.1970   XZ=             -0.0000   YZ=              0.0000

  Exact polarizability:  13.521  -3.351  23.334   0.000  -0.000  14.314
 Approx polarizability:  17.263  -4.621  35.343  -0.000   0.000  19.201

                      1                      2                      3
                     A"                     A'                     A"
 Frequencies --    629.0518               724.5083               981.4640
 Red. masses --      1.0976                 1.2373                 1.2077
 Frc consts  --      0.2559                 0.3827                 0.6854
 IR Inten    --    148.0733                88.5567                54.5265

                      4                      5                      6
                     A'                     A'                     A'
 Frequencies --   1033.9520              1111.2901              1275.3238
 Red. masses --      1.2532                 1.4919                 2.4386
 Frc consts  --      0.7894                 1.0856                 2.3368
 IR Inten    --    314.4126                62.4057                 7.6309

                      7                      8                      9
                     A"                     A'                     A'
 Frequencies --   2666.7317              2702.6938              3460.9362
 Red. masses --      1.0870                 1.0449                 1.0677
 Frc consts  --      4.5543                 4.4972                 7.5350
 IR Inten    --    192.5644               340.3770               365.2092

 - Thermochemistry -
 -------------------
 Temperature   298.150 Kelvin.  Pressure   1.00000 Atm.
 Atom     1 has atomic number  6 and mass  12.00000

 Molecular mass:    31.01839 amu.
 Principal axes and moments of inertia in atomic units:
                           1         2         3
     Eigenvalues --     9.40120  60.59824  62.85959
           X           -0.14260  -0.00000   0.98978
           Y            0.98978  -0.00000   0.14260
           Z            0.00000   1.00000   0.00000
 This molecule is an asymmetric top.
 Rotational symmetry number  1.
 Rotational temperatures (Kelvin)      9.21306     1.42931     1.37789
 Rotational constants (GHZ):         191.96926    29.78207    28.71067
 Zero-point vibrational energy      87243.4 (Joules/Mol)
                                   20.85166 (Kcal/Mol)
 Vibrational temperatures:    905.06  1042.40  1412.11  1487.62  1598.90
          (Kelvin)           1834.90  3836.83  3888.57  4979.51

 Zero-point correction=                           0.033229 (Hartree/Particle)
 Thermal correction to Energy=                    0.036418
 Thermal correction to Enthalpy=                  0.037362
 Thermal correction to Gibbs Free Energy=         0.010001
 Sum of electronic and zero-point Energies=           -114.656325
 Sum of electronic and thermal Energies=              -114.653137
 Sum of electronic and thermal Enthalpies=            -114.652193
 Sum of electronic and thermal Free Energies=         -114.679554

                     E (Thermal)             CV                S
                      KCal/Mol        Cal/Mol-Kelvin    Cal/Mol-Kelvin
 Total                   22.853              8.888             57.587
 Electronic               0.000              0.000              2.183
 Translational            0.889              2.981             36.229
 Rotational               0.889              2.981             18.222
 Vibrational             21.075              2.926              0.953

 Optimization completed.
    -- Stationary point found.
 Normal termination of Gaussian 09 at Fri Mar  1 09:14:24 2019.
