 Gaussian 09, Revision E.01,
 Gaussian 09:  EM64L-G09RevE.01 30-Nov-2015

 ------------------------------------------------------
 #p b3lyp/6-311++G(3df,2p) freq IOp(2/17=3) IOp(2/18=3)
 ------------------------------------------------------

 ---------
 b3lyp opt
 ---------
 Symbolic Z-matrix:
 Charge =  1 Multiplicity = 1

                         Standard orientation:
 ---------------------------------------------------------------------
 Center     Atomic      Atomic             Coordinates (Angstroms)
 Number     Number       Type             X           Y           Z
 ---------------------------------------------------------------------
      1          6           0       -0.057763   -0.866615    0.000000
      2          1           0        1.022463   -1.100588    0.000000
      3          1           0       -0.936315    0.962854   -0.000000
      4          1           0        0.722528    1.133292   -0.000000
      5          8           0       -0.057763    0.525516   -0.000000
 ---------------------------------------------------------------------

 SCF Done:  E(RB3LYP) =  -114.703274874     A.U. after   10 cycles

 The electronic state is 1-A'.
 Alpha  occ. eigenvalues --  -19.58442 -10.55681  -1.47062  -1.03065  -0.96785
 Alpha  occ. eigenvalues --   -0.77491  -0.77171  -0.53285
 Alpha virt. eigenvalues --   -0.36533  -0.27353  -0.20009  -0.15604  -0.11187
 Alpha virt. eigenvalues --   -0.11108  -0.08957  -0.06969  -0.05890  -0.04429
 Alpha virt. eigenvalues --   -0.03886  -0.02277  -0.00470   0.02049   0.04734

 Mulliken charges:
               1
     1  C    0.156678
     2  H    0.222161
     3  H    0.344505
     4  H    0.341170
     5  O   -0.064513
 Sum of Mulliken charges =   1.00000

 Dipole moment (field-independent basis, Debye):
    X=              1.2855    Y=              3.1054    Z=             -0.0000  Tot=              3.3609
 Quadrupole moment (field-independent basis, Debye-Ang):
   XX=             -7.7281   YY=             -6.1831   ZZ=            -11.0320
   XY=             -2.4881   XZ=             -0.0000   YZ=              0.0000

  Exact polarizability:  16.123  -0.398  20.874   0.000  -0.000  12.921
 Approx polarizability:  20.654  -0.598  27.893  -0.000  -0.000  19.113

                      1                      2                      3
                     A"                     A'                     A"
 Frequencies --    593.0339               921.0330               938.2368
 Red. masses --      1.2542                 7.9232                 1.0647
 Frc consts  --      0.2599                 3.9600                 0.5522
 IR Inten    --    307.0102                89.7772                39.6196

                      4                      5                      6
                     A'                     A'                     A'
 Frequencies --    993.9052              1433.4043              1664.2119
 Red. masses --      1.1016                 1.2262                 1.0925
 Frc consts  --      0.6411                 1.4844                 1.7828
 IR Inten    --     36.4214                37.1563               100.9809

                      7                      8                      9
                     A'                     A'                     A'
 Frequencies --   2996.1629              3426.6725              3604.5835
 Red. masses --      1.0873                 1.0487                 1.0822
 Frc consts  --      5.7506                 7.2550                 8.2842
 IR Inten    --      3.0585               146.4297               434.0825

 - Thermochemistry -
 -------------------
 Temperature   298.150 Kelvin.  Pressure   1.00000 Atm.
 Atom     1 has atomic number  6 and mass  12.00000

 Molecular mass:    31.01839 amu.
 Principal axes and moments of inertia in atomic units:
                           1         2         3
     Eigenvalues --     8.74057  60.47869  69.21926
           X           -0.07809   0.99695   0.00000
           Y            0.99695   0.07809   0.00000
           Z           -0.00000  -0.00000   1.00000
 This molecule is an asymmetric top.
 Rotational symmetry number  1.
 Rotational temperatures (Kelvin)      9.90940     1.43214     1.25130
 Rotational constants (GHZ):         206.47868    29.84094    26.07282
 Zero-point vibrational energy      99118.0 (Joules/Mol)
                                   23.68978 (Kcal/Mol)
 Warning -- explicit consideration of   1 degrees of freedom as
           vibrations may cause significant error
 Vibrational temperatures:    853.24  1325.16  1349.91  1430.01  2062.35
          (Kelvin)           2394.43  4310.80  4930.21  5186.19

 Zero-point correction=                           0.037752 (Hartree/Particle)
 Thermal correction to Energy=                    0.040892
 Thermal correction to Enthalpy=                  0.041836
 Thermal correction to Gibbs Free Energy=         0.015561
 Sum of electronic and zero-point Energies=           -114.665523
 Sum of electronic and thermal Energies=              -114.662383
 Sum of electronic and thermal Enthalpies=            -114.661439
 Sum of electronic and thermal Free Energies=         -114.687714

                     E (Thermal)             CV                S
                      KCal/Mol        Cal/Mol-Kelvin    Cal/Mol-Kelvin
 Total                   25.660              8.450             55.299
 Electronic               0.000              0.000              0.000
 Translational            0.889              2.981             36.229
 Rotational               0.889              2.981             18.243
 Vibrational             23.882              2.489              0.827
 Vibration     1          0.951              1.047              0.462

 Optimization completed.
    -- Stationary point found.
 Normal termination of Gaussian 09 at Fri Mar  1 09:06:37 2019.
