 Gaussian 09, Revision E.01,
 Gaussian 09:  EM64L-G09RevE.01 30-Nov-2015

 ------------------------------------------------------
 #p b3lyp/6-311++G(3df,2p) freq IOp(2/17=3) IOp(2/18=3)
 ------------------------------------------------------

 ---------
 b3lyp opt
 ---------
 Symbolic Z-matrix:
 Charge =  0 Multiplicity = 2

                         Standard orientation:
 ---------------------------------------------------------------------
 Center     Atomic      Atomic             Coordinates (Angstroms)
 Number     Number       Type             X           Y           Z
 ---------------------------------------------------------------------
      1          6           0        0.011222   -0.572343    0.000000
      2          1           0        0.449632   -1.005681    0.908298
      3          1           0       -1.056579   -0.865578    0.000000
      4          1           0        0.449632   -1.005681   -0.908298
      5          8           0        0.011222    0.788876   -0.000000
 ---------------------------------------------------------------------

 SCF Done:  E(UB3LYP) =  -115.099316499     A.U. after   11 cycles

 The electronic state is 2-A'.
 Alpha  occ. eigenvalues --  -19.17652 -10.23089  -1.03869  -0.68286  -0.49436
 Alpha  occ. eigenvalues --   -0.47286  -0.44769  -0.34067  -0.29839
 Alpha virt. eigenvalues --   -0.00902   0.02880   0.03048   0.03190   0.08498
 Alpha virt. eigenvalues --    0.09277   0.11274   0.15458   0.16335   0.17147
 Alpha virt. eigenvalues --    0.20065   0.20222   0.21438   0.24213   0.31791

  Beta  occ. eigenvalues --  -19.15304 -10.23141  -0.98692  -0.66456  -0.46713
  Beta  occ. eigenvalues --   -0.44879  -0.42703  -0.27850
  Beta virt. eigenvalues --   -0.15106  -0.00817   0.03011   0.03048   0.03383
  Beta virt. eigenvalues --    0.08805   0.09371   0.11380   0.15779   0.16614
  Beta virt. eigenvalues --    0.17229   0.20776   0.21634   0.22004   0.24402

 Mulliken charges and spin densities:
               1          2
     1  C   -0.021091  -0.038772
     2  H    0.137114   0.019174
     3  H    0.154384   0.107275
     4  H    0.137114   0.019174
     5  O   -0.407521   0.893150
 Sum of Mulliken charges =  -0.00000   1.00000

 Dipole moment (field-independent basis, Debye):
    X=             -0.2075    Y=             -2.0891    Z=             -0.0000  Tot=              2.0994
 Quadrupole moment (field-independent basis, Debye-Ang):
   XX=            -11.7262   YY=            -13.8158   ZZ=            -12.8727
   XY=              0.2307   XZ=             -0.0000   YZ=              0.0000

  Exact polarizability:  17.335   0.243  23.090   0.000   0.000  19.877
 Approx polarizability:  22.563   0.858  30.700  -0.000   0.000  22.964

                      1                      2                      3
                     A"                     A'                     A'
 Frequencies --    682.4363               958.3259              1106.7601
 Red. masses --      1.3264                 1.5317                 4.0169
 Frc consts  --      0.3640                 0.8288                 2.8990
 IR Inten    --     72.8945                 0.4128                 9.2438

                      4                      5                      6
                     A"                     A'                     A'
 Frequencies --   1354.9531              1365.2939              1511.9282
 Red. masses --      1.0280                 1.0943                 1.1096
 Frc consts  --      1.1119                 1.2019                 1.4945
 IR Inten    --     17.2746                25.2468                 5.6186

                      7                      8                      9
                     A'                     A'                     A"
 Frequencies --   2886.7248              2962.3086              3005.4186
 Red. masses --      1.0487                 1.0657                 1.1008
 Frc consts  --      5.1487                 5.5099                 5.8581
 IR Inten    --      0.6802                39.9358                27.2022

 - Thermochemistry -
 -------------------
 Temperature   298.150 Kelvin.  Pressure   1.00000 Atm.
 Atom     1 has atomic number  6 and mass  12.00000

 Molecular mass:    31.01839 amu.
 Principal axes and moments of inertia in atomic units:
                           1         2         3
     Eigenvalues --    11.42033  64.10802  64.56450
           X            0.00406  -0.00000   0.99999
           Y            0.99999  -0.00000  -0.00406
           Z            0.00000   1.00000   0.00000
 This molecule is an asymmetric top.
 Rotational symmetry number  1.
 Rotational temperatures (Kelvin)      7.58418     1.35106     1.34151
 Rotational constants (GHZ):         158.02879    28.15157    27.95253
 Zero-point vibrational energy      94709.2 (Joules/Mol)
                                   22.63605 (Kcal/Mol)
 Vibrational temperatures:    981.87  1378.82  1592.38  1949.47  1964.35
          (Kelvin)           2175.32  4153.35  4262.10  4324.12

 Zero-point correction=                           0.036073 (Hartree/Particle)
 Thermal correction to Energy=                    0.039115
 Thermal correction to Enthalpy=                  0.040059
 Thermal correction to Gibbs Free Energy=         0.013140
 Sum of electronic and zero-point Energies=           -115.063244
 Sum of electronic and thermal Energies=              -115.060201
 Sum of electronic and thermal Enthalpies=            -115.059257
 Sum of electronic and thermal Free Energies=         -115.086177

                     E (Thermal)             CV                S
                      KCal/Mol        Cal/Mol-Kelvin    Cal/Mol-Kelvin
 Total                   24.545              7.839             56.656
 Electronic               0.000              0.000              1.377
 Translational            0.889              2.981             36.229
 Rotational               0.889              2.981             18.498
 Vibrational             22.768              1.878              0.553

 Normal termination of Gaussian 09 at Fri Mar  1 09:06:51 2019.
