 Gaussian 09, Revision E.01,
 Gaussian 09:  EM64L-G09RevE.01 30-Nov-2015

 ------------------------------------------------------
 #p b3lyp/6-311++G(3df,2p) freq IOp(2/17=3) IOp(2/18=3)
 ------------------------------------------------------

 ---------
 b3lyp opt
 ---------
 Symbolic Z-matrix:
 Charge =  0 Multiplicity = 1

                         Standard orientation:
 ---------------------------------------------------------------------
 Center     Atomic      Atomic             Coordinates (Angstroms)
 Number     Number       Type             X           Y           Z
 ---------------------------------------------------------------------
      1          6           0       -0.000000    0.649427    0.000000
      2          6           0        1.085426   -0.369094   -0.000000
      3          1           0        1.722098   -0.190577    0.870330
      4          1           0        0.740733   -1.418650   -0.000000
      5          1           0        1.722098   -0.190577   -0.870330
      6          1           0       -1.195716   -0.865100   -0.000000
      7          8           0       -1.187722    0.122863    0.000000
 ---------------------------------------------------------------------

 SCF Done:  E(RB3LYP) =  -153.805935967     A.U. after   11 cycles

 The electronic state is 1-A'.
 Alpha  occ. eigenvalues --  -19.20703 -10.24216 -10.18405  -1.11231  -0.76250
 Alpha  occ. eigenvalues --   -0.65083  -0.51150  -0.46225  -0.45841  -0.40202
 Alpha  occ. eigenvalues --   -0.38355  -0.22336
 Alpha virt. eigenvalues --   -0.04966  -0.02113   0.00547   0.02802   0.03075
 Alpha virt. eigenvalues --    0.06831   0.07275   0.07609   0.07846   0.09743
 Alpha virt. eigenvalues --    0.10427   0.12498   0.13409   0.15329   0.16111

 Mulliken charges:
               1
     1  C   -0.022896
     2  C   -0.196641
     3  H    0.162007
     4  H    0.065901
     5  H    0.162007
     6  H    0.186445
     7  O   -0.356825
 Sum of Mulliken charges =  -0.00000

 Dipole moment (field-independent basis, Debye):
    X=              0.7815    Y=             -3.0873    Z=             -0.0000  Tot=              3.1847
 Quadrupole moment (field-independent basis, Debye-Ang):
   XX=            -18.5052   YY=            -22.1943   ZZ=            -18.7591
   XY=              1.5129   XZ=             -0.0000   YZ=              0.0000

  Exact polarizability:  40.070   2.186  41.793  -0.000   0.000  28.143
 Approx polarizability:  54.241   5.289  56.039  -0.000   0.000  40.459

                      1                      2                      3
                     A"                     A'                     A"
 Frequencies --    146.7206               535.1338               744.9288
 Red. masses --      1.2415                 2.2659                 1.0987
 Frc consts  --      0.0157                 0.3823                 0.3592
 IR Inten    --      8.9906                 6.3050                69.3232

                      4                      5                      6
                     A'                     A"                     A'
 Frequencies --    909.3820               980.4522              1060.4548
 Red. masses --      2.7413                 1.4898                 1.6387
 Frc consts  --      1.3357                 0.8438                 1.0858
 IR Inten    --      1.0213                19.5756                 5.5343

                      7                      8                      9
                     A'                     A'                     A'
 Frequencies --   1325.9588              1353.1632              1369.7810
 Red. masses --      5.1831                 1.3998                 1.2839
 Frc consts  --      5.3690                 1.5101                 1.4193
 IR Inten    --    112.6356               110.8548                29.9964

                     10                     11                     12
                     A"                     A'                     A'
 Frequencies --   1429.9791              1471.5255              2895.9334
 Red. masses --      1.0495                 1.1148                 1.0564
 Frc consts  --      1.2644                 1.4222                 5.2200
 IR Inten    --     10.2227                23.6571                82.5571

                     13                     14                     15
                     A'                     A"                     A'
 Frequencies --   3057.2253              3077.2802              3335.6476
 Red. masses --      1.0772                 1.0966                 1.0625
 Frc consts  --      5.9318                 6.1181                 6.9650
 IR Inten    --     10.9074                 0.1288               101.8956

 - Thermochemistry -
 -------------------
 Temperature   298.150 Kelvin.  Pressure   1.00000 Atm.
 Atom     1 has atomic number  6 and mass  12.00000

 Molecular mass:    44.02621 amu.
 Principal axes and moments of inertia in atomic units:
                           1         2         3
     Eigenvalues --    34.13450 169.99502 193.22489
           X            0.97871   0.20524   0.00000
           Y           -0.20524   0.97871   0.00000
           Z            0.00000  -0.00000   1.00000
 This molecule is an asymmetric top.
 Rotational symmetry number  1.
 Rotational temperatures (Kelvin)      2.53743     0.50951     0.44825
 Rotational constants (GHZ):          52.87147    10.61644     9.34011
 Zero-point vibrational energy     141719.0 (Joules/Mol)
                                   33.87165 (Kcal/Mol)
 Warning -- explicit consideration of   2 degrees of freedom as
           vibrations may cause significant error
 Vibrational temperatures:    211.10   769.94  1071.79  1308.40  1410.65
          (Kelvin)           1525.76  1907.76  1946.90  1970.81  2057.42
                             2117.19  4166.60  4398.66  4427.51  4799.25

 Zero-point correction=                           0.053978 (Hartree/Particle)
 Thermal correction to Energy=                    0.057915
 Thermal correction to Enthalpy=                  0.058860
 Thermal correction to Gibbs Free Energy=         0.028989
 Sum of electronic and zero-point Energies=           -153.751958
 Sum of electronic and thermal Energies=              -153.748021
 Sum of electronic and thermal Enthalpies=            -153.747076
 Sum of electronic and thermal Free Energies=         -153.776947

                     E (Thermal)             CV                S
                      KCal/Mol        Cal/Mol-Kelvin    Cal/Mol-Kelvin
 Total                   36.342             11.544             62.869
 Electronic               0.000              0.000              0.000
 Translational            0.889              2.981             37.273
 Rotational               0.889              2.981             21.644
 Vibrational             34.565              5.582              3.952
 Vibration     1          0.617              1.906              2.714
 Vibration     2          0.890              1.172              0.576

 Optimization completed.
    -- Stationary point found.
 Normal termination of Gaussian 09 at Sun Mar  3 15:52:44 2019.
