 Gaussian 09, Revision E.01,
 Gaussian 09:  EM64L-G09RevE.01 30-Nov-2015

 ------------------------------------------------------
 #p b3lyp/6-311++G(3df,2p) freq IOp(2/17=3) IOp(2/18=3)
 ------------------------------------------------------

 ---------
 b3lyp opt
 ---------
 Symbolic Z-matrix:
 Charge =  0 Multiplicity = 1

                         Standard orientation:
 ---------------------------------------------------------------------
 Center     Atomic      Atomic             Coordinates (Angstroms)
 Number     Number       Type             X           Y           Z
 ---------------------------------------------------------------------
      1          6           0        0.126460   -0.604945   -0.000191
      2          6           0       -1.164886    0.136184    0.000056
      3          1           0       -1.738091   -0.203073    0.867742
      4          1           0        1.945226   -0.202378    0.001560
      5          1           0       -1.739158   -0.203865   -0.866555
      6          1           0       -1.082236    1.227803   -0.000354
      7          8           0        1.105601    0.274259   -0.000197
 ---------------------------------------------------------------------

 SCF Done:  E(RB3LYP) =  -153.810747947     A.U. after   11 cycles

 The electronic state is 1-A.
 Alpha  occ. eigenvalues --  -19.20200 -10.23700 -10.16759  -1.10828  -0.76207
 Alpha  occ. eigenvalues --   -0.62887  -0.49301  -0.44850  -0.44806  -0.39767
 Alpha  occ. eigenvalues --   -0.39281  -0.21882
 Alpha virt. eigenvalues --   -0.04750  -0.01241   0.00617   0.03290   0.03469
 Alpha virt. eigenvalues --    0.06588   0.07598   0.09033   0.09069   0.09453
 Alpha virt. eigenvalues --    0.10938   0.12692   0.14692   0.16235   0.17569

 Mulliken charges:
               1
     1  C   -0.158657
     2  C   -0.194713
     3  H    0.161832
     4  H    0.295917
     5  H    0.161780
     6  H    0.091955
     7  O   -0.358114
 Sum of Mulliken charges =  -0.00000

 Dipole moment (field-independent basis, Debye):
    X=              0.4770    Y=              0.9499    Z=              0.0028  Tot=              1.0630
 Quadrupole moment (field-independent basis, Debye-Ang):
   XX=            -13.4104   YY=            -23.6385   ZZ=            -18.9255
   XY=             -0.7227   XZ=              0.0059   YZ=             -0.0003

  Exact polarizability:  40.890  -1.206  34.733   0.001  -0.000  28.676
 Approx polarizability:  52.980   0.693  44.126   0.001  -0.001  40.938

                      1                      2                      3
                      A                      A                      A
 Frequencies --     99.8523               510.5268               732.5594
 Red. masses --      1.2825                 2.5405                 1.0938
 Frc consts  --      0.0075                 0.3901                 0.3458
 IR Inten    --      7.6020                 8.7545                43.5039

                      4                      5                      6
                      A                      A                      A
 Frequencies --    916.3196               972.3798              1054.4447
 Red. masses --      2.3455                 1.3405                 1.6893
 Frc consts  --      1.1603                 0.7468                 1.1067
 IR Inten    --      5.4844                37.9688                79.8974

                      7                      8                      9
                      A                      A                      A
 Frequencies --   1287.8726              1342.1685              1371.5768
 Red. masses --      5.7909                 1.2643                 1.3598
 Frc consts  --      5.6591                 1.3419                 1.5072
 IR Inten    --    197.0937                22.1841                28.3157

                     10                     11                     12
                      A                      A                      A
 Frequencies --   1443.9756              1467.6084              2985.8338
 Red. masses --      1.0516                 1.1492                 1.0370
 Frc consts  --      1.2919                 1.4584                 5.4468
 IR Inten    --     15.2864                 2.2774                20.1911

                     13                     14                     15
                      A                      A                      A
 Frequencies --   3064.0607              3071.8787              3764.8544
 Red. masses --      1.0949                 1.1011                 1.0662
 Frc consts  --      6.0565                 6.1220                 8.9040
 IR Inten    --      0.9239                29.7838               105.0489

 - Thermochemistry -
 -------------------
 Temperature   298.150 Kelvin.  Pressure   1.00000 Atm.
 Atom     1 has atomic number  6 and mass  12.00000

 Molecular mass:    44.02621 amu.
 Principal axes and moments of inertia in atomic units:
                           1         2         3
     Eigenvalues --    31.92821 173.21328 194.31643
           X            0.99965  -0.02634   0.00005
           Y            0.02634   0.99965  -0.00005
           Z           -0.00005   0.00006   1.00000
 This molecule is an asymmetric top.
 Rotational symmetry number  1.
 Rotational temperatures (Kelvin)      2.71277     0.50004     0.44574
 Rotational constants (GHZ):          56.52497    10.41918     9.28764
 Zero-point vibrational energy     144065.7 (Joules/Mol)
                                   34.43254 (Kcal/Mol)
 Warning -- explicit consideration of   2 degrees of freedom as
           vibrations may cause significant error
 Vibrational temperatures:    143.67   734.53  1053.99  1318.38  1399.04
          (Kelvin)           1517.11  1852.96  1931.08  1973.39  2077.56
                             2111.56  4295.94  4408.49  4419.74  5416.78

 Zero-point correction=                           0.054872 (Hartree/Particle)
 Thermal correction to Energy=                    0.058919
 Thermal correction to Enthalpy=                  0.059863
 Thermal correction to Gibbs Free Energy=         0.029624
 Sum of electronic and zero-point Energies=           -153.755876
 Sum of electronic and thermal Energies=              -153.751829
 Sum of electronic and thermal Enthalpies=            -153.750885
 Sum of electronic and thermal Free Energies=         -153.781124

                     E (Thermal)             CV                S
                      KCal/Mol        Cal/Mol-Kelvin    Cal/Mol-Kelvin
 Total                   36.972             11.688             63.644
 Electronic               0.000              0.000              0.000
 Translational            0.889              2.981             37.273
 Rotational               0.889              2.981             21.602
 Vibrational             35.195              5.727              4.770
 Vibration     1          0.604              1.949              3.457
 Vibration     2          0.866              1.227              0.632

 Normal termination of Gaussian 09 at Fri Mar  1 09:16:02 2019.
