 Gaussian 09, Revision E.01,
 Gaussian 09:  EM64L-G09RevE.01 30-Nov-2015

 ------------------------------------------------------
 #p b3lyp/6-311++G(3df,2p) freq IOp(2/17=3) IOp(2/18=3)
 ------------------------------------------------------

 ---------
 b3lyp opt
 ---------
 Symbolic Z-matrix:
 Charge =  0 Multiplicity = 1

                         Standard orientation:
 ---------------------------------------------------------------------
 Center     Atomic      Atomic             Coordinates (Angstroms)
 Number     Number       Type             X           Y           Z
 ---------------------------------------------------------------------
      1          6           0       -0.000000    0.440997    0.000000
      2          6           0        1.211340   -0.102030    0.000000
      3          1           0        2.085203    0.530350    0.000000
      4          1           0       -1.038390   -1.168029   -0.000000
      5          1           0       -0.159631    1.511043    0.000000
      6          1           0        1.365480   -1.173959    0.000000
      7          8           0       -1.190088   -0.216651   -0.000000
 ---------------------------------------------------------------------

 SCF Done:  E(RB3LYP) =  -153.876773683     A.U. after   10 cycles

 The electronic state is 1-A'.
 Alpha  occ. eigenvalues --  -19.16280 -10.23350 -10.15913  -1.06993  -0.75892
 Alpha  occ. eigenvalues --   -0.63020  -0.50574  -0.49041  -0.40301  -0.39318
 Alpha  occ. eigenvalues --   -0.37948  -0.24625
 Alpha virt. eigenvalues --   -0.01070   0.00835   0.01003   0.02077   0.04677
 Alpha virt. eigenvalues --    0.06463   0.07318   0.09080   0.11093   0.11703
 Alpha virt. eigenvalues --    0.12192   0.13909   0.14524   0.15445   0.17181

 Mulliken charges:
               1
     1  C    0.284941
     2  C   -0.398013
     3  H    0.130853
     4  H    0.249522
     5  H    0.160339
     6  H    0.117939
     7  O   -0.545582
 Sum of Mulliken charges =  -0.00000

 Dipole moment (field-independent basis, Debye):
    X=              0.5489    Y=             -0.8098    Z=             -0.0000  Tot=              0.9784
 Quadrupole moment (field-independent basis, Debye-Ang):
   XX=            -20.4230   YY=            -14.6417   ZZ=            -21.1969
   XY=              1.2017   XZ=             -0.0000   YZ=             -0.0000

  Exact polarizability:  41.341  -1.751  30.844   0.000  -0.000  24.880
 Approx polarizability:  60.880  -5.495  42.863   0.000   0.000  32.954

                      1                      2                      3
                     A"                     A'                     A"
 Frequencies --    455.8523               492.0452               713.5861
 Red. masses --      1.1201                 2.0501                 1.4767
 Frc consts  --      0.1371                 0.2924                 0.4430
 IR Inten    --     91.4799                12.1740                 2.1966

                      4                      5                      6
                     A"                     A'                     A"
 Frequencies --    840.6490               961.0185               996.8853
 Red. masses --      1.3861                 1.7489                 1.1555
 Frc consts  --      0.5771                 0.9516                 0.6765
 IR Inten    --     67.4303                15.3984                31.7129

                      7                      8                      9
                     A'                     A'                     A'
 Frequencies --   1119.0676              1322.6401              1351.5248
 Red. masses --      2.0475                 1.5777                 1.2177
 Frc consts  --      1.5107                 1.6261                 1.3106
 IR Inten    --    188.2188                 1.6312                10.0961

                     10                     11                     12
                     A'                     A'                     A'
 Frequencies --   1449.8420              1695.8198              3140.2961
 Red. masses --      1.1617                 4.2340                 1.0625
 Frc consts  --      1.4387                 7.1740                 6.1734
 IR Inten    --     14.6485               177.4464                 5.4336

                     13                     14                     15
                     A'                     A'                     A'
 Frequencies --   3185.9168              3238.2021              3810.3222
 Red. masses --      1.0936                 1.1130                 1.0654
 Frc consts  --      6.5398                 6.8760                 9.1134
 IR Inten    --      3.8930                 6.6922                38.2639

 - Thermochemistry -
 -------------------
 Temperature   298.150 Kelvin.  Pressure   1.00000 Atm.
 Atom     1 has atomic number  6 and mass  12.00000

 Molecular mass:    44.02621 amu.
 Principal axes and moments of inertia in atomic units:
                           1         2         3
     Eigenvalues --    29.65917 170.60092 200.26010
           X            0.99682  -0.07967   0.00000
           Y            0.07967   0.99682   0.00000
           Z            0.00000  -0.00000   1.00000
 This molecule is an asymmetric top.
 Rotational symmetry number  1.
 Rotational temperatures (Kelvin)      2.92030     0.50770     0.43251
 Rotational constants (GHZ):          60.84934    10.57873     9.01199
 Zero-point vibrational energy     148179.4 (Joules/Mol)
                                   35.41574 (Kcal/Mol)
 Warning -- explicit consideration of   2 degrees of freedom as
           vibrations may cause significant error
 Vibrational temperatures:    655.87   707.94  1026.69  1209.50  1382.69
          (Kelvin)           1434.29  1610.09  1902.98  1944.54  2086.00
                             2439.90  4518.18  4583.82  4659.04  5482.20

 Zero-point correction=                           0.056439 (Hartree/Particle)
 Thermal correction to Energy=                    0.060066
 Thermal correction to Enthalpy=                  0.061010
 Thermal correction to Gibbs Free Energy=         0.031994
 Sum of electronic and zero-point Energies=           -153.820335
 Sum of electronic and thermal Energies=              -153.816708
 Sum of electronic and thermal Enthalpies=            -153.815764
 Sum of electronic and thermal Free Energies=         -153.844779

                     E (Thermal)             CV                S
                      KCal/Mol        Cal/Mol-Kelvin    Cal/Mol-Kelvin
 Total                   37.692             11.422             61.068
 Electronic               0.000              0.000              0.000
 Translational            0.889              2.981             37.273
 Rotational               0.889              2.981             21.543
 Vibrational             35.914              5.460              2.252
 Vibration     1          0.814              1.348              0.778
 Vibration     2          0.848              1.268              0.678

 Optimization completed.
    -- Stationary point found.
 Normal termination of Gaussian 09 at Fri Mar  1 09:15:35 2019.
