 Gaussian 09, Revision E.01,
 Gaussian 09:  EM64L-G09RevE.01 30-Nov-2015

 ------------------------------------------------------
 #p b3lyp/6-311++G(3df,2p) freq IOp(2/17=3) IOp(2/18=3)
 ------------------------------------------------------

 ---------
 b3lyp opt
 ---------
 Symbolic Z-matrix:
 Charge =  0 Multiplicity = 1

                         Standard orientation:
 ---------------------------------------------------------------------
 Center     Atomic      Atomic             Coordinates (Angstroms)
 Number     Number       Type             X           Y           Z
 ---------------------------------------------------------------------
      1          6           0       -0.389201   -0.140042   -0.000000
      2          6           0        0.481627   -1.138591   -0.000000
      3          1           0        0.127652   -2.157263   -0.000000
      4          1           0       -0.769222    1.742743    0.000000
      5          1           0        1.547555   -0.960471    0.000000
      6          1           0       -1.460544   -0.309112   -0.000000
      7          8           0        0.000000    1.169487    0.000000
 ---------------------------------------------------------------------

 SCF Done:  E(RB3LYP) =  -153.874860973     A.U. after   10 cycles

 The electronic state is 1-A'.
 Alpha  occ. eigenvalues --  -19.16049 -10.23043 -10.15304  -1.06653  -0.76061
 Alpha  occ. eigenvalues --   -0.59543  -0.55507  -0.45146  -0.41091  -0.39969
 Alpha  occ. eigenvalues --   -0.36302  -0.24212
 Alpha virt. eigenvalues --   -0.01777   0.01058   0.01361   0.02225   0.04702
 Alpha virt. eigenvalues --    0.06393   0.07882   0.08411   0.10676   0.11565
 Alpha virt. eigenvalues --    0.12619   0.14167   0.15171   0.16655   0.17579

 Mulliken charges:
               1
     1  C    0.219396
     2  C   -0.365655
     3  H    0.142510
     4  H    0.248751
     5  H    0.140904
     6  H    0.144680
     7  O   -0.530586
 Sum of Mulliken charges =  -0.00000

 Dipole moment (field-independent basis, Debye):
    X=             -1.7899    Y=              0.4317    Z=             -0.0000  Tot=              1.8412
 Quadrupole moment (field-independent basis, Debye-Ang):
   XX=            -16.2532   YY=            -16.6217   ZZ=            -21.1976
   XY=             -2.7817   XZ=             -0.0000   YZ=             -0.0000

  Exact polarizability:  32.612  -6.317  40.294   0.000   0.000  24.981
 Approx polarizability:  46.467 -11.551  56.814   0.000   0.000  33.018

                      1                      2                      3
                     A"                     A'                     A"
 Frequencies --    278.7165               485.2407               714.9925
 Red. masses --      1.1028                 2.2284                 1.4189
 Frc consts  --      0.0505                 0.3091                 0.4274
 IR Inten    --     98.3597                 3.8236                23.6176

                      4                      5                      6
                     A"                     A'                     A"
 Frequencies --    866.3048               957.8057               976.7803
 Red. masses --      1.4064                 1.9407                 1.1326
 Frc consts  --      0.6219                 1.0490                 0.6367
 IR Inten    --     59.9514                57.2973                22.1189

                      7                      8                      9
                     A'                     A'                     A'
 Frequencies --   1139.2107              1281.0289              1349.8532
 Red. masses --      1.7894                 1.6149                 1.1753
 Frc consts  --      1.3682                 1.5614                 1.2618
 IR Inten    --     15.5657               217.0055                 1.8764

                     10                     11                     12
                     A'                     A'                     A'
 Frequencies --   1440.2031              1722.2535              3142.6742
 Red. masses --      1.1783                 4.1368                 1.0819
 Frc consts  --      1.4400                 7.2295                 6.2958
 IR Inten    --      0.1484               117.1951                14.3284

                     13                     14                     15
                     A'                     A'                     A'
 Frequencies --   3161.4815              3251.3994              3872.4718
 Red. masses --      1.0709                 1.1166                 1.0669
 Frc consts  --      6.3061                 6.9549                 9.4269
 IR Inten    --      0.6256                 4.2498                91.7530

 - Thermochemistry -
 -------------------
 Temperature   298.150 Kelvin.  Pressure   1.00000 Atm.
 Atom     1 has atomic number  6 and mass  12.00000

 Molecular mass:    44.02621 amu.
 Principal axes and moments of inertia in atomic units:
                           1         2         3
     Eigenvalues --    28.00865 172.51792 200.52657
           X           -0.21825   0.97589   0.00000
           Y            0.97589   0.21825   0.00000
           Z           -0.00000  -0.00000   1.00000
 This molecule is an asymmetric top.
 Rotational symmetry number  1.
 Rotational temperatures (Kelvin)      3.09240     0.50206     0.43193
 Rotational constants (GHZ):          64.43514    10.46118     9.00001
 Zero-point vibrational energy     147382.4 (Joules/Mol)
                                   35.22524 (Kcal/Mol)
 Warning -- explicit consideration of   2 degrees of freedom as
           vibrations may cause significant error
 Vibrational temperatures:    401.01   698.15  1028.71  1246.42  1378.07
          (Kelvin)           1405.37  1639.07  1843.11  1942.14  2072.13
                             2477.94  4521.60  4548.66  4678.03  5571.62

 Zero-point correction=                           0.056135 (Hartree/Particle)
 Thermal correction to Energy=                    0.059953
 Thermal correction to Enthalpy=                  0.060897
 Thermal correction to Gibbs Free Energy=         0.031536
 Sum of electronic and zero-point Energies=           -153.818726
 Sum of electronic and thermal Energies=              -153.814908
 Sum of electronic and thermal Enthalpies=            -153.813964
 Sum of electronic and thermal Free Energies=         -153.843325

                     E (Thermal)             CV                S
                      KCal/Mol        Cal/Mol-Kelvin    Cal/Mol-Kelvin
 Total                   37.621             11.792             61.796
 Electronic               0.000              0.000              0.000
 Translational            0.889              2.981             37.273
 Rotational               0.889              2.981             21.499
 Vibrational             35.843              5.831              3.024
 Vibration     1          0.679              1.713              1.542
 Vibration     2          0.841              1.283              0.696

 Optimization completed.
    -- Stationary point found.
 Normal termination of Gaussian 09 at Fri Mar  1 09:15:40 2019.
