 Gaussian 09, Revision E.01,
 Gaussian 09:  EM64L-G09RevE.01 30-Nov-2015

 ------------------------------------------------------
 #p b3lyp/6-311++G(3df,2p) freq IOp(2/17=3) IOp(2/18=3)
 ------------------------------------------------------

 ---------
 b3lyp opt
 ---------
 Symbolic Z-matrix:
 Charge =  1 Multiplicity = 4

                         Standard orientation:
 ---------------------------------------------------------------------
 Center     Atomic      Atomic             Coordinates (Angstroms)
 Number     Number       Type             X           Y           Z
 ---------------------------------------------------------------------
      1          6           0       -1.623534   -0.313188    0.067235
      2          6           0        0.748589    0.429937    0.380185
      3          6           0       -0.610702    0.514307   -0.277724
      4          1           0        1.434231    1.277313    0.208974
      5          1           0        0.769274    0.225113    1.466806
      6          1           0       -1.882612   -1.033153    0.832347
      7          1           0       -0.693285    1.136794   -1.166009
      8          8           0        1.160785   -0.674050   -0.295036
 ---------------------------------------------------------------------

 SCF Done:  E(UB3LYP) =  -191.471658243     A.U. after   16 cycles

 The electronic state is 4-A.
 Alpha  occ. eigenvalues --  -19.50221 -10.50040 -10.49368 -10.48827  -1.35244
 Alpha  occ. eigenvalues --   -1.06758  -0.94091  -0.84159  -0.77636  -0.76447
 Alpha  occ. eigenvalues --   -0.72657  -0.69631  -0.62489  -0.61064  -0.56007
 Alpha  occ. eigenvalues --   -0.50460
 Alpha virt. eigenvalues --   -0.28700  -0.16363  -0.15066  -0.13441  -0.13132
 Alpha virt. eigenvalues --   -0.11303  -0.09495  -0.07739  -0.06991  -0.05751
 Alpha virt. eigenvalues --   -0.05091  -0.04641  -0.02866  -0.02326  -0.01780

  Beta  occ. eigenvalues --  -19.46688 -10.49893 -10.48506 -10.47156  -1.27975
  Beta  occ. eigenvalues --   -1.02732  -0.90255  -0.81312  -0.73064  -0.72512
  Beta  occ. eigenvalues --   -0.69718  -0.65717  -0.55453
  Beta virt. eigenvalues --   -0.42893  -0.42629  -0.32996  -0.23624  -0.15977
  Beta virt. eigenvalues --   -0.14580  -0.12744  -0.12576  -0.10625  -0.08694
  Beta virt. eigenvalues --   -0.07168  -0.06557  -0.05200  -0.04208  -0.04031

 Mulliken charges and spin densities:
               1          2
     1  C   -0.082066   1.364230
     2  C    0.056846   0.048967
     3  C    0.186118   0.131793
     4  H    0.232922   0.088786
     5  H    0.252539   0.098361
     6  H    0.277121   0.008454
     7  H    0.223991   0.026339
     8  O   -0.147472   1.233070
 Sum of Mulliken charges =   1.00000   3.00000

 Dipole moment (field-independent basis, Debye):
    X=             -0.8628    Y=              1.3807    Z=              1.3839  Tot=              2.1368
 Quadrupole moment (field-independent basis, Debye-Ang):
   XX=            -14.0071   YY=            -18.2685   ZZ=            -18.1878
   XY=              3.2710   XZ=              0.1426   YZ=             -2.1387

  Exact polarizability:  62.744  -0.638  34.267   0.450  -0.923  29.798
 Approx polarizability:  98.787  -9.897  56.927  -5.306   1.691  42.304

                      1                      2                      3
                      A                      A                      A
 Frequencies --    119.4135               318.7407               398.9783
 Red. masses --      2.4058                 3.5623                 2.0257
 Frc consts  --      0.0202                 0.2132                 0.1900
 IR Inten    --      6.0735                11.4923                 2.0653

                      4                      5                      6
                      A                      A                      A
 Frequencies --    727.5026               761.7390               826.7338
 Red. masses --      1.3089                 1.7544                 1.7178
 Frc consts  --      0.4082                 0.5998                 0.6918
 IR Inten    --     22.3483                 5.3025                15.6700

                      7                      8                      9
                      A                      A                      A
 Frequencies --    887.3214               939.1689              1023.2288
 Red. masses --      1.3584                 2.6829                 2.9777
 Frc consts  --      0.6301                 1.3943                 1.8368
 IR Inten    --     28.1136                32.4378                19.0723

                     10                     11                     12
                      A                      A                      A
 Frequencies --   1090.5449              1258.6432              1267.3126
 Red. masses --      1.5002                 1.2545                 1.1811
 Frc consts  --      1.0512                 1.1709                 1.1177
 IR Inten    --      3.8243                30.6630                 0.5575

                     13                     14                     15
                      A                      A                      A
 Frequencies --   1322.0945              1467.4345              2902.0387
 Red. masses --      1.1168                 5.2512                 1.0603
 Frc consts  --      1.1502                 6.6624                 5.2613
 IR Inten    --     46.4272               152.9104                72.2018

                     16                     17                     18
                      A                      A                      A
 Frequencies --   2937.8750              3132.9964              3221.7434
 Red. masses --      1.0849                 1.0886                 1.1010
 Frc consts  --      5.5171                 6.2958                 6.7330
 IR Inten    --     47.5195                25.2950                46.0631

 - Thermochemistry -
 -------------------
 Temperature   298.150 Kelvin.  Pressure   1.00000 Atm.
 Atom     1 has atomic number  6 and mass  12.00000

 Molecular mass:    56.02621 amu.
 Principal axes and moments of inertia in atomic units:
                           1         2         3
     Eigenvalues --    92.95276 283.57942 318.58728
           X            0.99821   0.05980   0.00258
           Y           -0.05868   0.98619  -0.15490
           Z           -0.01180   0.15447   0.98793
 This molecule is an asymmetric top.
 Rotational symmetry number  1.
 Rotational temperatures (Kelvin)      0.93180     0.30543     0.27187
 Rotational constants (GHZ):          19.41568     6.36415     5.66483
 Zero-point vibrational energy     147161.7 (Joules/Mol)
                                   35.17248 (Kcal/Mol)
 Warning -- explicit consideration of   3 degrees of freedom as
           vibrations may cause significant error
 Vibrational temperatures:    171.81   458.60   574.04  1046.71  1095.97
          (Kelvin)           1189.48  1276.66  1351.25  1472.20  1569.05
                             1810.90  1823.38  1902.20  2111.31  4175.38
                             4226.94  4507.68  4635.36

 Zero-point correction=                           0.056051 (Hartree/Particle)
 Thermal correction to Energy=                    0.060757
 Thermal correction to Enthalpy=                  0.061701
 Thermal correction to Gibbs Free Energy=         0.027965
 Sum of electronic and zero-point Energies=           -191.415607
 Sum of electronic and thermal Energies=              -191.410901
 Sum of electronic and thermal Enthalpies=            -191.409957
 Sum of electronic and thermal Free Energies=         -191.443693

                     E (Thermal)             CV                S
                      KCal/Mol        Cal/Mol-Kelvin    Cal/Mol-Kelvin
 Total                   38.126             15.269             71.004
 Electronic               0.000              0.000              2.755
 Translational            0.889              2.981             37.991
 Rotational               0.889              2.981             23.644
 Vibrational             36.348              9.308              6.614
 Vibration     1          0.609              1.933              3.110
 Vibration     2          0.705              1.638              1.317
 Vibration     3          0.765              1.472              0.966

 Optimization completed.
    -- Stationary point found.
 Normal termination of Gaussian 09 at Fri Mar  1 09:25:40 2019.
