 Gaussian 09, Revision E.01,
 Gaussian 09:  EM64L-G09RevE.01 30-Nov-2015

 ------------------------------------------------------
 #p b3lyp/6-311++G(3df,2p) freq IOp(2/17=3) IOp(2/18=3)
 ------------------------------------------------------

 ---------
 b3lyp opt
 ---------
 Symbolic Z-matrix:
 Charge =  0 Multiplicity = 1

                         Standard orientation:
 ---------------------------------------------------------------------
 Center     Atomic      Atomic             Coordinates (Angstroms)
 Number     Number       Type             X           Y           Z
 ---------------------------------------------------------------------
      1          6           0       -0.000000    1.266614    0.000000
      2          6           0        0.066443   -0.202390   -0.000000
      3          6           0       -1.144982    0.235505    0.000000
      4          1           0        0.510646   -2.039736   -0.000000
      5          1           0        0.223555    1.820220   -0.911964
      6          1           0        0.223555    1.820220    0.911964
      7          1           0       -2.209673    0.109717    0.000000
      8          8           0        0.965432   -1.188628   -0.000000
 ---------------------------------------------------------------------

 SCF Done:  E(RB3LYP) =  -191.916289344     A.U. after   11 cycles

 The electronic state is 1-A'.
 Alpha  occ. eigenvalues --  -19.18284 -10.24260 -10.18374 -10.17422  -1.08841
 Alpha  occ. eigenvalues --   -0.87257  -0.62432  -0.60549  -0.52788  -0.46433
 Alpha  occ. eigenvalues --   -0.45790  -0.38911  -0.34105  -0.31137  -0.23555
 Alpha virt. eigenvalues --   -0.01869   0.00998   0.01457   0.01615   0.04001
 Alpha virt. eigenvalues --    0.06104   0.06822   0.07228   0.08450   0.09326
 Alpha virt. eigenvalues --    0.10535   0.11412   0.12623   0.13689   0.14694

 Mulliken charges:
               1
     1  C   -0.445378
     2  C    0.268254
     3  C    0.029203
     4  H    0.256621
     5  H    0.117684
     6  H    0.117684
     7  H    0.236085
     8  O   -0.580153
 Sum of Mulliken charges =  -0.00000

 Dipole moment (field-independent basis, Debye):
    X=             -1.0446    Y=             -1.3335    Z=             -0.0000  Tot=              1.6939
 Quadrupole moment (field-independent basis, Debye-Ang):
   XX=            -24.9844   YY=            -19.8278   ZZ=            -25.0676
   XY=              0.9676   XZ=              0.0000   YZ=             -0.0000

  Exact polarizability:  43.847  -1.537  45.911   0.000  -0.000  31.207
 Approx polarizability:  70.705  -5.001  62.056   0.000   0.000  43.323

                      1                      2                      3
                     A"                     A'                     A"
 Frequencies --    336.5970               419.8004               464.9903
 Red. masses --      1.6225                 3.3989                 1.3752
 Frc consts  --      0.1083                 0.3529                 0.1752
 IR Inten    --     80.9569                18.2558                55.1741

                      4                      5                      6
                     A"                     A'                     A'
 Frequencies --    670.1923               691.6058               954.1140
 Red. masses --      1.7016                 3.3424                 1.3808
 Frc consts  --      0.4503                 0.9419                 0.7406
 IR Inten    --     39.7146                 2.9379                18.3440

                      7                      8                      9
                     A"                     A'                     A'
 Frequencies --   1005.9732              1024.2934              1071.6231
 Red. masses --      1.1122                 4.6807                 1.3850
 Frc consts  --      0.6632                 2.8934                 0.9371
 IR Inten    --      0.5893               108.7584                 5.1713

                     10                     11                     12
                     A"                     A'                     A'
 Frequencies --   1112.7510              1160.6139              1377.5551
 Red. masses --      1.2982                 2.1379                 2.0676
 Frc consts  --      0.9471                 1.6968                 2.3118
 IR Inten    --      0.9365               105.9908                 6.7715

                     13                     14                     15
                     A'                     A'                     A'
 Frequencies --   1526.6429              1869.6030              3016.8387
 Red. masses --      1.0944                 7.3002                 1.0467
 Frc consts  --      1.5029                15.0343                 5.6130
 IR Inten    --      9.8814               211.2591                82.1700

                     16                     17                     18
                     A"                     A'                     A'
 Frequencies --   3074.8854              3295.7003              3786.2936
 Red. masses --      1.1171                 1.1169                 1.0654
 Frc consts  --      6.2232                 7.1473                 8.9988
 IR Inten    --     47.7371                 8.4500                51.7142

 - Thermochemistry -
 -------------------
 Temperature   298.150 Kelvin.  Pressure   1.00000 Atm.
 Atom     1 has atomic number  6 and mass  12.00000

 Molecular mass:    56.02621 amu.
 Principal axes and moments of inertia in atomic units:
                           1         2         3
     Eigenvalues --    80.87600 251.74075 320.64388
           X           -0.55951   0.82882   0.00000
           Y            0.82882   0.55951  -0.00000
           Z            0.00000  -0.00000   1.00000
 This molecule is an asymmetric top.
 Rotational symmetry number  1.
 Rotational temperatures (Kelvin)      1.07095     0.34406     0.27012
 Rotational constants (GHZ):          22.31492     7.16905     5.62849
 Zero-point vibrational energy     160658.9 (Joules/Mol)
                                   38.39840 (Kcal/Mol)
 Warning -- explicit consideration of   3 degrees of freedom as
           vibrations may cause significant error
 Vibrational temperatures:    484.29   604.00   669.02   964.26   995.07
          (Kelvin)           1372.76  1447.37  1473.73  1541.82  1601.00
                             1669.86  1981.99  2196.50  2689.94  4340.55
                             4424.07  4741.77  5447.63

 Zero-point correction=                           0.061192 (Hartree/Particle)
 Thermal correction to Energy=                    0.065382
 Thermal correction to Enthalpy=                  0.066326
 Thermal correction to Gibbs Free Energy=         0.035245
 Sum of electronic and zero-point Energies=           -191.855098
 Sum of electronic and thermal Energies=              -191.850907
 Sum of electronic and thermal Enthalpies=            -191.849963
 Sum of electronic and thermal Free Energies=         -191.881045

                     E (Thermal)             CV                S
                      KCal/Mol        Cal/Mol-Kelvin    Cal/Mol-Kelvin
 Total                   41.028             14.213             65.417
 Electronic               0.000              0.000              0.000
 Translational            0.889              2.981             37.991
 Rotational               0.889              2.981             23.394
 Vibrational             39.250              8.251              4.031
 Vibration     1          0.717              1.602              1.228
 Vibration     2          0.782              1.427              0.893
 Vibration     3          0.822              1.328              0.752

 Optimization completed.
    -- Stationary point found.
 Normal termination of Gaussian 09 at Fri Mar  1 09:16:47 2019.
