 Gaussian 09, Revision E.01,
 Gaussian 09:  EM64L-G09RevE.01 30-Nov-2015

 ------------------------------------------------------
 #p b3lyp/6-311++G(3df,2p) freq IOp(2/17=3) IOp(2/18=3)
 ------------------------------------------------------

 ---------
 b3lyp opt
 ---------
 Symbolic Z-matrix:
 Charge =  0 Multiplicity = 1

                         Standard orientation:
 ---------------------------------------------------------------------
 Center     Atomic      Atomic             Coordinates (Angstroms)
 Number     Number       Type             X           Y           Z
 ---------------------------------------------------------------------
      1          6           0        0.775220    0.156274   -0.004193
      2          6           0       -0.620725    0.587833    0.035364
      3          6           0        1.914739   -0.217699   -0.012897
      4          1           0       -1.321833   -1.169320    0.535437
      5          1           0       -0.798609    1.148222    0.960349
      6          1           0       -0.824187    1.263206   -0.796390
      7          1           0        2.924507   -0.545915   -0.030358
      8          8           0       -1.549410   -0.481830   -0.097335
 ---------------------------------------------------------------------

 SCF Done:  E(RB3LYP) =  -191.938974014     A.U. after   12 cycles

 The electronic state is 1-A.
 Alpha  occ. eigenvalues --  -19.14036 -10.25161 -10.18484 -10.17791  -1.04123
 Alpha  occ. eigenvalues --   -0.78383  -0.70904  -0.56441  -0.52506  -0.48560
 Alpha  occ. eigenvalues --   -0.46409  -0.37640  -0.31288  -0.29496  -0.28460
 Alpha virt. eigenvalues --   -0.01732   0.00229   0.01275   0.01411   0.01889
 Alpha virt. eigenvalues --    0.04182   0.05586   0.07587   0.08153   0.09285
 Alpha virt. eigenvalues --    0.09741   0.10798   0.11152   0.12385   0.13486

 Mulliken charges:
               1
     1  C   -0.286490
     2  C   -0.276934
     3  C    0.284241
     4  H    0.228110
     5  H    0.152492
     6  H    0.160774
     7  H    0.307914
     8  O   -0.570107
 Sum of Mulliken charges =  -0.00000

 Dipole moment (field-independent basis, Debye):
    X=              0.9268    Y=              0.1486    Z=              1.0411  Tot=              1.4017
 Quadrupole moment (field-independent basis, Debye-Ang):
   XX=            -23.8456   YY=            -22.3495   ZZ=            -24.5100
   XY=             -1.9114   XZ=             -1.6480   YZ=             -1.6666

  Exact polarizability:  55.508  -3.914  36.248  -0.392  -0.207  32.104
 Approx polarizability:  83.254  -9.820  50.646   0.094  -0.767  44.299

                      1                      2                      3
                      A                      A                      A
 Frequencies --    199.7977               268.5560               340.3522
 Red. masses --      2.7933                 1.5173                 2.1864
 Frc consts  --      0.0657                 0.0645                 0.1492
 IR Inten    --      9.3392                77.4743                48.5767

                      4                      5                      6
                      A                      A                      A
 Frequencies --    561.5909               663.6938               709.7449
 Red. masses --      6.1046                 1.2534                 1.2839
 Frc consts  --      1.1344                 0.3253                 0.3811
 IR Inten    --     15.1675                50.4952                37.0819

                      7                      8                      9
                      A                      A                      A
 Frequencies --    911.7616               993.4223              1047.5492
 Red. masses --      3.9982                 1.6106                 6.4752
 Frc consts  --      1.9583                 0.9365                 4.1865
 IR Inten    --     23.1661                20.7336               104.6583

                     10                     11                     12
                      A                      A                      A
 Frequencies --   1215.7115              1347.6174              1412.2140
 Red. masses --      1.0990                 1.1889                 1.2246
 Frc consts  --      0.9570                 1.2721                 1.4389
 IR Inten    --     18.4562                 4.0633                55.4260

                     13                     14                     15
                      A                      A                      A
 Frequencies --   1495.0927              2214.2020              2992.6687
 Red. masses --      1.0786                 5.9068                 1.0707
 Frc consts  --      1.4205                17.0622                 5.6499
 IR Inten    --      2.2791                 0.2648                33.7181

                     16                     17                     18
                      A                      A                      A
 Frequencies --   3069.3412              3461.0987              3834.4230
 Red. masses --      1.0898                 1.1621                 1.0666
 Frc consts  --      6.0491                 8.2018                 9.2394
 IR Inten    --      8.2467                60.6934                34.8829

 - Thermochemistry -
 -------------------
 Temperature   298.150 Kelvin.  Pressure   1.00000 Atm.
 Atom     1 has atomic number  6 and mass  12.00000

 Molecular mass:    56.02621 amu.
 Principal axes and moments of inertia in atomic units:
                           1         2         3
     Eigenvalues --    54.62765 385.59677 426.00443
           X            0.99973  -0.02187  -0.00783
           Y            0.02152   0.99886  -0.04272
           Z            0.00875   0.04254   0.99906
 This molecule is an asymmetric top.
 Rotational symmetry number  1.
 Rotational temperatures (Kelvin)      1.58553     0.22462     0.20332
 Rotational constants (GHZ):          33.03714     4.68038     4.23644
 Zero-point vibrational energy     159933.8 (Joules/Mol)
                                   38.22509 (Kcal/Mol)
 Warning -- explicit consideration of   4 degrees of freedom as
           vibrations may cause significant error
 Vibrational temperatures:    287.46   386.39   489.69   808.00   954.91
          (Kelvin)           1021.16  1311.82  1429.31  1507.19  1749.14
                             1938.92  2031.86  2151.10  3185.74  4305.78
                             4416.09  4979.74  5516.87

 Zero-point correction=                           0.060916 (Hartree/Particle)
 Thermal correction to Energy=                    0.065719
 Thermal correction to Enthalpy=                  0.066663
 Thermal correction to Gibbs Free Energy=         0.034251
 Sum of electronic and zero-point Energies=           -191.878058
 Sum of electronic and thermal Energies=              -191.873255
 Sum of electronic and thermal Enthalpies=            -191.872311
 Sum of electronic and thermal Free Energies=         -191.904723

                     E (Thermal)             CV                S
                      KCal/Mol        Cal/Mol-Kelvin    Cal/Mol-Kelvin
 Total                   41.239             15.654             68.217
 Electronic               0.000              0.000              0.000
 Translational            0.889              2.981             37.991
 Rotational               0.889              2.981             23.710
 Vibrational             39.462              9.692              6.516
 Vibration     1          0.638              1.840              2.135
 Vibration     2          0.673              1.731              1.605
 Vibration     3          0.720              1.595              1.211
 Vibration     4          0.917              1.114              0.521

 Normal termination of Gaussian 09 at Fri Mar  1 09:17:34 2019.
