 Gaussian 09, Revision E.01,
 Gaussian 09:  EM64L-G09RevE.01 30-Nov-2015

 ------------------------------------------------------
 #p b3lyp/6-311++G(3df,2p) freq IOp(2/17=3) IOp(2/18=3)
 ------------------------------------------------------

 ---------
 b3lyp opt
 ---------
 Symbolic Z-matrix:
 Charge =  0 Multiplicity = 1

                         Standard orientation:
 ---------------------------------------------------------------------
 Center     Atomic      Atomic             Coordinates (Angstroms)
 Number     Number       Type             X           Y           Z
 ---------------------------------------------------------------------
      1          6           0        0.902867    0.337591    0.040410
      2          6           0       -0.575420    0.621045   -0.025970
      3          6           0        1.711842   -0.661134   -0.062733
      4          1           0       -1.238451   -1.049338    0.734943
      5          1           0       -0.849965    1.263759    0.817496
      6          1           0       -0.793679    1.174019   -0.940265
      7          1           0        1.601888    1.166633    0.253422
      8          8           0       -1.369441   -0.542510   -0.071979
 ---------------------------------------------------------------------

 SCF Done:  E(RB3LYP) =  -191.862857861     A.U. after   12 cycles

 The electronic state is 1-A.
 Alpha  occ. eigenvalues --  -19.15153 -10.26389 -10.23102 -10.19025  -1.05572
 Alpha  occ. eigenvalues --   -0.81603  -0.71307  -0.56462  -0.49707  -0.49442
 Alpha  occ. eigenvalues --   -0.46509  -0.37489  -0.32312  -0.29876  -0.29198
 Alpha virt. eigenvalues --   -0.10126  -0.01748   0.00028   0.00401   0.02054
 Alpha virt. eigenvalues --    0.02537   0.06407   0.06619   0.06981   0.08350
 Alpha virt. eigenvalues --    0.08865   0.10690   0.11637   0.12607   0.12938

 Mulliken charges:
               1
     1  C    0.268138
     2  C    0.160235
     3  C   -0.562398
     4  H    0.235977
     5  H    0.149332
     6  H    0.163318
     7  H    0.152182
     8  O   -0.566784
 Sum of Mulliken charges =  -0.00000

 Dipole moment (field-independent basis, Debye):
    X=             -1.1031    Y=              2.4668    Z=              1.3913  Tot=              3.0393
 Quadrupole moment (field-independent basis, Debye-Ang):
   XX=            -30.8769   YY=            -23.2891   ZZ=            -24.4061
   XY=              3.8139   XZ=             -1.1002   YZ=             -1.5383

  Exact polarizability:  47.362  -4.263  43.037  -0.465   0.195  34.015
 Approx polarizability:  62.878  -7.587  66.774  -0.225   1.160  48.176

                      1                      2                      3
                      A                      A                      A
 Frequencies --    140.7792               153.8306               327.9551
 Red. masses --      3.7773                 2.3840                 1.1094
 Frc consts  --      0.0441                 0.0332                 0.0703
 IR Inten    --      9.9887                10.1900               105.1685

                      4                      5                      6
                      A                      A                      A
 Frequencies --    455.7500               541.6198               861.4753
 Red. masses --      3.3571                 1.5120                 1.8535
 Frc consts  --      0.4108                 0.2613                 0.8104
 IR Inten    --     28.0078                24.2111                 1.8495

                      7                      8                      9
                      A                      A                      A
 Frequencies --    897.1459               985.9695              1095.5596
 Red. masses --      2.3093                 1.5936                 3.9785
 Frc consts  --      1.0951                 0.9128                 2.8135
 IR Inten    --     12.5025                42.3015                94.1859

                     10                     11                     12
                      A                      A                      A
 Frequencies --   1217.4599              1372.9087              1405.3522
 Red. masses --      1.1033                 1.2118                 1.2272
 Frc consts  --      0.9635                 1.3458                 1.4280
 IR Inten    --     17.5650                 6.8351                48.9078

                     13                     14                     15
                      A                      A                      A
 Frequencies --   1497.1232              1790.9256              2981.2258
 Red. masses --      1.0825                 8.4977                 1.0776
 Frc consts  --      1.4295                16.0585                 5.6430
 IR Inten    --      0.9686                80.3346                35.8485

                     16                     17                     18
                      A                      A                      A
 Frequencies --   2997.5901              3069.8383              3831.0948
 Red. masses --      1.0702                 1.0925                 1.0664
 Frc consts  --      5.6656                 6.0659                 9.2220
 IR Inten    --     33.1719                 9.4306                37.7388

 - Thermochemistry -
 -------------------
 Temperature   298.150 Kelvin.  Pressure   1.00000 Atm.
 Atom     1 has atomic number  6 and mass  12.00000

 Molecular mass:    56.02621 amu.
 Principal axes and moments of inertia in atomic units:
                           1         2         3
     Eigenvalues --    84.31606 309.63256 377.50785
           X            0.99983   0.01722  -0.00606
           Y           -0.01738   0.99949  -0.02680
           Z            0.00560   0.02690   0.99962
 This molecule is an asymmetric top.
 Rotational symmetry number  1.
 Rotational temperatures (Kelvin)      1.02725     0.27973     0.22944
 Rotational constants (GHZ):          21.40448     5.82865     4.78067
 Zero-point vibrational energy     153263.2 (Joules/Mol)
                                   36.63078 (Kcal/Mol)
 Warning -- explicit consideration of   5 degrees of freedom as
           vibrations may cause significant error
 Vibrational temperatures:    202.55   221.33   471.85   655.72   779.27
          (Kelvin)           1239.47  1290.79  1418.59  1576.26  1751.65
                             1975.31  2021.99  2154.02  2576.74  4289.31
                             4312.86  4416.81  5512.08

 Zero-point correction=                           0.058375 (Hartree/Particle)
 Thermal correction to Energy=                    0.063563
 Thermal correction to Enthalpy=                  0.064507
 Thermal correction to Gibbs Free Energy=         0.031067
 Sum of electronic and zero-point Energies=           -191.804483
 Sum of electronic and thermal Energies=              -191.799295
 Sum of electronic and thermal Enthalpies=            -191.798351
 Sum of electronic and thermal Free Energies=         -191.831791

                     E (Thermal)             CV                S
                      KCal/Mol        Cal/Mol-Kelvin    Cal/Mol-Kelvin
 Total                   39.886             16.150             70.381
 Electronic               0.000              0.000              0.000
 Translational            0.889              2.981             37.991
 Rotational               0.889              2.981             23.803
 Vibrational             38.109             10.188              8.586
 Vibration     1          0.615              1.913              2.793
 Vibration     2          0.619              1.898              2.624
 Vibration     3          0.711              1.620              1.270
 Vibration     4          0.814              1.348              0.779
 Vibration     5          0.897              1.158              0.562

 Optimization completed.
    -- Stationary point found.
 Normal termination of Gaussian 09 at Fri Mar  1 09:23:31 2019.
