 Gaussian 09, Revision E.01,
 Gaussian 09:  EM64L-G09RevE.01 30-Nov-2015

 ------------------------------------------------------
 #p b3lyp/6-311++G(3df,2p) freq IOp(2/17=3) IOp(2/18=3)
 ------------------------------------------------------

 ---------
 b3lyp opt
 ---------
 Symbolic Z-matrix:
 Charge =  1 Multiplicity = 4

                         Standard orientation:
 ---------------------------------------------------------------------
 Center     Atomic      Atomic             Coordinates (Angstroms)
 Number     Number       Type             X           Y           Z
 ---------------------------------------------------------------------
      1          6           0        1.701838   -0.357257   -0.333371
      2          6           0       -0.577075    0.689206   -0.202983
      3          6           0        0.712264    0.241789    0.409100
      4          1           0       -1.529937   -0.798875    0.773014
      5          1           0       -1.128735    1.417485    0.385326
      6          1           0       -0.530913    0.945490   -1.254771
      7          1           0        0.813363    0.248107    1.496081
      8          8           0       -1.080742   -0.656829   -0.079515
 ---------------------------------------------------------------------

 SCF Done:  E(UB3LYP) =  -191.431793003     A.U. after   15 cycles

 The electronic state is 4-A.
 Alpha  occ. eigenvalues --  -19.44048 -10.53479 -10.51294 -10.47994  -1.32429
 Alpha  occ. eigenvalues --   -1.07838  -0.94928  -0.82473  -0.78101  -0.72744
 Alpha  occ. eigenvalues --   -0.70204  -0.64624  -0.61315  -0.60817  -0.55457
 Alpha  occ. eigenvalues --   -0.48988
 Alpha virt. eigenvalues --   -0.29559  -0.18892  -0.15125  -0.13704  -0.11663
 Alpha virt. eigenvalues --   -0.10283  -0.09512  -0.08099  -0.07301  -0.05392
 Alpha virt. eigenvalues --   -0.05158  -0.04069  -0.02953  -0.02349  -0.01945

  Beta  occ. eigenvalues --  -19.43015 -10.50744 -10.49352 -10.47837  -1.30223
  Beta  occ. eigenvalues --   -1.03592  -0.91681  -0.79846  -0.75699  -0.70423
  Beta  occ. eigenvalues --   -0.67910  -0.60557  -0.56617
  Beta virt. eigenvalues --   -0.41974  -0.41485  -0.29491  -0.22429  -0.18261
  Beta virt. eigenvalues --   -0.14620  -0.13424  -0.10950  -0.09925  -0.08839
  Beta virt. eigenvalues --   -0.07431  -0.06615  -0.04875  -0.04647  -0.03617

 Mulliken charges and spin densities:
               1          2
     1  C    0.094129   2.414999
     2  C    0.117940   0.070131
     3  C    0.171006   0.139719
     4  H    0.305731  -0.007942
     5  H    0.217704   0.006929
     6  H    0.217483   0.006857
     7  H    0.228976   0.052606
     8  O   -0.352970   0.316701
 Sum of Mulliken charges =   1.00000   3.00000

 Dipole moment (field-independent basis, Debye):
    X=              0.3636    Y=              1.0255    Z=              1.6417  Tot=              1.9695
 Quadrupole moment (field-independent basis, Debye-Ang):
   XX=            -12.4239   YY=            -19.6300   ZZ=            -17.5450
   XY=             -0.8075   XZ=             -2.4816   YZ=             -1.1000

  Exact polarizability:  57.569   0.338  31.311  -1.177   1.320  30.925
 Approx polarizability:  89.180   4.927  47.060  -2.929   5.005  44.711

                      1                      2                      3
                      A                      A                      A
 Frequencies --    182.9774               313.6655               449.9139
 Red. masses --      4.0383                 4.3139                 3.0057
 Frc consts  --      0.0797                 0.2501                 0.3585
 IR Inten    --      1.8286                25.7711                 3.0023

                      4                      5                      6
                      A                      A                      A
 Frequencies --    551.3447               825.6129               916.6050
 Red. masses --      1.1152                 1.7878                 2.9101
 Frc consts  --      0.1997                 0.7180                 1.4405
 IR Inten    --     73.2156                21.8307                 8.3129

                      7                      8                      9
                      A                      A                      A
 Frequencies --    989.3457              1046.8772              1130.9336
 Red. masses --      1.7894                 1.5998                 1.5418
 Frc consts  --      1.0319                 1.0330                 1.1618
 IR Inten    --      1.1333                57.8811                13.2494

                     10                     11                     12
                      A                      A                      A
 Frequencies --   1262.0235              1314.0881              1326.2295
 Red. masses --      1.2864                 1.2776                 1.2533
 Frc consts  --      1.2072                 1.2998                 1.2988
 IR Inten    --      1.4966                60.5857                 6.3933

                     13                     14                     15
                      A                      A                      A
 Frequencies --   1380.4050              1499.5471              3084.4143
 Red. masses --      3.5764                 1.0919                 1.0872
 Frc consts  --      4.0153                 1.4466                 6.0941
 IR Inten    --     32.6078                 3.8728                17.1071

                     16                     17                     18
                      A                      A                      A
 Frequencies --   3103.6358              3192.4438              3692.1065
 Red. masses --      1.0582                 1.1161                 1.0680
 Frc consts  --      6.0058                 6.7021                 8.5775
 IR Inten    --      1.7674                 6.6187               302.8147

 - Thermochemistry -
 -------------------
 Temperature   298.150 Kelvin.  Pressure   1.00000 Atm.
 Atom     1 has atomic number  6 and mass  12.00000

 Molecular mass:    56.02621 amu.
 Principal axes and moments of inertia in atomic units:
                           1         2         3
     Eigenvalues --    96.03743 273.02090 308.87507
           X            0.99988  -0.01463   0.00448
           Y            0.01495   0.99638  -0.08369
           Z           -0.00324   0.08374   0.99648
 This molecule is an asymmetric top.
 Rotational symmetry number  1.
 Rotational temperatures (Kelvin)      0.90188     0.31724     0.28042
 Rotational constants (GHZ):          18.79206     6.61027     5.84295
 Zero-point vibrational energy     157082.7 (Joules/Mol)
                                   37.54366 (Kcal/Mol)
 Warning -- explicit consideration of   4 degrees of freedom as
           vibrations may cause significant error
 Vibrational temperatures:    263.26   451.29   647.32   793.26  1187.87
          (Kelvin)           1318.79  1423.45  1506.22  1627.16  1815.77
                             1890.68  1908.15  1986.09  2157.51  4437.78
                             4465.43  4593.21  5312.11

 Zero-point correction=                           0.059830 (Hartree/Particle)
 Thermal correction to Energy=                    0.064366
 Thermal correction to Enthalpy=                  0.065310
 Thermal correction to Gibbs Free Energy=         0.032054
 Sum of electronic and zero-point Energies=           -191.371963
 Sum of electronic and thermal Energies=              -191.367427
 Sum of electronic and thermal Enthalpies=            -191.366483
 Sum of electronic and thermal Free Energies=         -191.399739

                     E (Thermal)             CV                S
                      KCal/Mol        Cal/Mol-Kelvin    Cal/Mol-Kelvin
 Total                   40.390             14.663             69.994
 Electronic               0.000              0.000              2.755
 Translational            0.889              2.981             37.991
 Rotational               0.889              2.981             23.608
 Vibrational             38.613              8.701              5.640
 Vibration     1          0.630              1.863              2.298
 Vibration     2          0.702              1.648              1.343
 Vibration     3          0.809              1.361              0.796
 Vibration     4          0.907              1.137              0.541

 Optimization completed.
    -- Stationary point found.
 Normal termination of Gaussian 09 at Fri Mar  1 09:25:53 2019.
