 Gaussian 09, Revision E.01,
 Gaussian 09:  EM64L-G09RevE.01 30-Nov-2015

 ------------------------------------------------------
 #p b3lyp/6-311++G(3df,2p) freq IOp(2/17=3) IOp(2/18=3)
 ------------------------------------------------------

 ---------
 b3lyp opt
 ---------
 Symbolic Z-matrix:
 Charge =  0 Multiplicity = 3

                         Standard orientation:
 ---------------------------------------------------------------------
 Center     Atomic      Atomic             Coordinates (Angstroms)
 Number     Number       Type             X           Y           Z
 ---------------------------------------------------------------------
      1          6           0        1.723923   -0.277386   -0.365212
      2          6           0       -0.656860   -0.272494    0.292681
      3          6           0        0.637663    0.537159    0.175270
      4          1           0       -0.590413   -1.159839    0.953102
      5          1           0        0.433654    1.405078   -0.456344
      6          1           0        2.396143   -1.022958    0.032239
      7          1           0        0.894693    0.905890    1.181545
      8          8           0       -1.670304   -0.006481   -0.290872
 ---------------------------------------------------------------------

 SCF Done:  E(UB3LYP) =  -191.862119512     A.U. after   14 cycles

 The electronic state is 3-A.
 Alpha  occ. eigenvalues --  -19.14128 -10.27800 -10.22599 -10.20980  -1.07179
 Alpha  occ. eigenvalues --   -0.81427  -0.65196  -0.59506  -0.49787  -0.47971
 Alpha  occ. eigenvalues --   -0.46422  -0.42422  -0.39949  -0.29269  -0.27167
 Alpha  occ. eigenvalues --   -0.23129
 Alpha virt. eigenvalues --   -0.04529  -0.00890   0.00838   0.01804   0.02732
 Alpha virt. eigenvalues --    0.05516   0.07328   0.07539   0.08018   0.08409
 Alpha virt. eigenvalues --    0.11180   0.11361   0.11813   0.12608   0.12946

  Beta  occ. eigenvalues --  -19.14052 -10.27637 -10.21037 -10.19807  -1.07011
  Beta  occ. eigenvalues --   -0.79362  -0.61376  -0.57608  -0.48900  -0.46460
  Beta  occ. eigenvalues --   -0.45770  -0.41297  -0.39235  -0.27913
  Beta virt. eigenvalues --   -0.10058  -0.08127  -0.03330  -0.00722   0.01003
  Beta virt. eigenvalues --    0.02165   0.02960   0.05615   0.07513   0.07987
  Beta virt. eigenvalues --    0.08762   0.09769   0.11507   0.11601   0.12275

 Mulliken charges and spin densities:
               1          2
     1  C   -0.353527   1.971239
     2  C    0.393708   0.042406
     3  C   -0.102124  -0.170890
     4  H    0.128399   0.011401
     5  H    0.165064   0.038907
     6  H    0.199839   0.002834
     7  H    0.136865   0.076209
     8  O   -0.568223   0.027894
 Sum of Mulliken charges =  -0.00000   2.00000

 Dipole moment (field-independent basis, Debye):
    X=              2.1430    Y=             -0.1547    Z=              1.8172  Tot=              2.8141
 Quadrupole moment (field-independent basis, Debye-Ang):
   XX=            -29.3402   YY=            -23.0658   ZZ=            -24.3531
   XY=             -0.3789   XZ=             -0.1450   YZ=             -0.4517

  Exact polarizability:  53.007  -1.623  38.276   0.355  -1.690  35.604
 Approx polarizability:  71.190  -4.065  51.019   3.798  -2.618  50.325

                      1                      2                      3
                      A                      A                      A
 Frequencies --     80.3332               171.2712               360.2254
 Red. masses --      2.7550                 1.1961                 3.0846
 Frc consts  --      0.0105                 0.0207                 0.2358
 IR Inten    --      3.9953                29.2414                23.1941

                      4                      5                      6
                      A                      A                      A
 Frequencies --    485.7647               720.6759               820.4629
 Red. masses --      2.7705                 1.2694                 1.6406
 Frc consts  --      0.3852                 0.3884                 0.6507
 IR Inten    --     10.6354                 7.9241                15.7057

                      7                      8                      9
                      A                      A                      A
 Frequencies --   1007.0544              1041.7367              1087.1920
 Red. masses --      2.4710                 2.1557                 3.3723
 Frc consts  --      1.4765                 1.3783                 2.3485
 IR Inten    --     24.9810                13.5569                 1.3161

                     10                     11                     12
                      A                      A                      A
 Frequencies --   1198.5931              1256.1138              1405.3993
 Red. masses --      1.1946                 1.3975                 1.1505
 Frc consts  --      1.0112                 1.2991                 1.3388
 IR Inten    --      9.8076                 3.0518                 6.6094

                     13                     14                     15
                      A                      A                      A
 Frequencies --   1422.8973              1806.2436              2888.5955
 Red. masses --      1.0936                10.2920                 1.0836
 Frc consts  --      1.3045                19.7834                 5.3271
 IR Inten    --      7.9545               256.0598                92.2228

                     16                     17                     18
                      A                      A                      A
 Frequencies --   2928.0843              3048.7443              3215.0141
 Red. masses --      1.0679                 1.0876                 1.0913
 Frc consts  --      5.3946                 5.9564                 6.6458
 IR Inten    --     12.6403                 2.9647                 1.5677

 - Thermochemistry -
 -------------------
 Temperature   298.150 Kelvin.  Pressure   1.00000 Atm.
 Atom     1 has atomic number  6 and mass  12.00000

 Molecular mass:    56.02621 amu.
 Principal axes and moments of inertia in atomic units:
                           1         2         3
     Eigenvalues --    61.89785 371.43019 385.47119
           X            0.99998  -0.00284   0.00574
           Y            0.00384   0.98339  -0.18145
           Z           -0.00513   0.18147   0.98338
 This molecule is an asymmetric top.
 Rotational symmetry number  1.
 Rotational temperatures (Kelvin)      1.39930     0.23319     0.22470
 Rotational constants (GHZ):          29.15677     4.85890     4.68191
 Zero-point vibrational energy     149200.7 (Joules/Mol)
                                   35.65981 (Kcal/Mol)
 Warning -- explicit consideration of   4 degrees of freedom as
           vibrations may cause significant error
 Vibrational temperatures:    115.58   246.42   518.28   698.91  1036.89
          (Kelvin)           1180.46  1448.92  1498.82  1564.22  1724.51
                             1807.27  2022.05  2047.23  2598.78  4156.04
                             4212.85  4386.46  4625.68

 Zero-point correction=                           0.056828 (Hartree/Particle)
 Thermal correction to Energy=                    0.061942
 Thermal correction to Enthalpy=                  0.062886
 Thermal correction to Gibbs Free Energy=         0.028290
 Sum of electronic and zero-point Energies=           -191.805292
 Sum of electronic and thermal Energies=              -191.800178
 Sum of electronic and thermal Enthalpies=            -191.799234
 Sum of electronic and thermal Free Energies=         -191.833830

                     E (Thermal)             CV                S
                      KCal/Mol        Cal/Mol-Kelvin    Cal/Mol-Kelvin
 Total                   38.869             15.644             72.813
 Electronic               0.000              0.000              2.183
 Translational            0.889              2.981             37.991
 Rotational               0.889              2.981             23.698
 Vibrational             37.091              9.682              8.941
 Vibration     1          0.600              1.963              3.883
 Vibration     2          0.626              1.878              2.421
 Vibration     3          0.735              1.554              1.121
 Vibration     4          0.842              1.282              0.695

 Optimization completed.
    -- Stationary point found.
 Normal termination of Gaussian 09 at Fri Mar  1 09:24:49 2019.
