 Gaussian 09, Revision E.01,
 Gaussian 09:  EM64L-G09RevE.01 30-Nov-2015

 ------------------------------------------------------
 #p b3lyp/6-311++G(3df,2p) freq IOp(2/17=3) IOp(2/18=3)
 ------------------------------------------------------

 ---------
 b3lyp opt
 ---------
 Symbolic Z-matrix:
 Charge =  1 Multiplicity = 2

                         Standard orientation:
 ---------------------------------------------------------------------
 Center     Atomic      Atomic             Coordinates (Angstroms)
 Number     Number       Type             X           Y           Z
 ---------------------------------------------------------------------
      1          6           0        1.511140   -0.765399   -0.130771
      2          6           0       -0.429517    0.104410    0.483176
      3          6           0        0.847552    0.535440   -0.113935
      4          1           0       -1.481652    0.070495   -1.120296
      5          1           0        0.830816    1.085052   -1.063560
      6          1           0       -0.493281   -0.141645    1.538216
      7          1           0        1.466400    1.094094    0.617921
      8          8           0       -1.487167   -0.169338   -0.175388
 ---------------------------------------------------------------------

 SCF Done:  E(UB3LYP) =  -191.509193059     A.U. after   20 cycles

 The electronic state is 2-A.
 Alpha  occ. eigenvalues --  -19.46401 -10.55570 -10.51960 -10.45336  -1.38443
 Alpha  occ. eigenvalues --   -1.09021  -0.94807  -0.83076  -0.79613  -0.77168
 Alpha  occ. eigenvalues --   -0.69664  -0.68054  -0.63897  -0.54524  -0.47253
 Alpha virt. eigenvalues --   -0.35166  -0.31217  -0.19931  -0.16126  -0.14669
 Alpha virt. eigenvalues --   -0.12165  -0.11383  -0.10427  -0.06895  -0.06502
 Alpha virt. eigenvalues --   -0.05855  -0.05384  -0.04209  -0.03330  -0.02615

  Beta  occ. eigenvalues --  -19.46140 -10.55214 -10.50842 -10.45417  -1.37921
  Beta  occ. eigenvalues --   -1.07936  -0.94164  -0.80862  -0.78727  -0.76727
  Beta  occ. eigenvalues --   -0.68313  -0.67258  -0.63394  -0.52849
  Beta virt. eigenvalues --   -0.35513  -0.33826  -0.26371  -0.19791  -0.16075
  Beta virt. eigenvalues --   -0.14489  -0.11899  -0.11025  -0.10099  -0.06545
  Beta virt. eigenvalues --   -0.06310  -0.05716  -0.05177  -0.03963  -0.03220

 Mulliken charges and spin densities:
               1          2
     1  C   -0.075445   0.722338
     2  C    0.464576   0.244682
     3  C   -0.041809  -0.084410
     4  H    0.316433  -0.001387
     5  H    0.212576   0.040610
     6  H    0.267510  -0.005751
     7  H    0.229510   0.006612
     8  O   -0.373352   0.077307
 Sum of Mulliken charges =   1.00000   1.00000

 Dipole moment (field-independent basis, Debye):
    X=              0.0690    Y=              2.3924    Z=             -0.5938  Tot=              2.4660
 Quadrupole moment (field-independent basis, Debye-Ang):
   XX=            -17.4029   YY=            -22.0381   ZZ=            -15.4447
   XY=              2.6228   XZ=              2.5473   YZ=             -0.3647

  Exact polarizability:  53.695  -4.794  32.139  -2.274   0.511  32.587
 Approx polarizability:  87.284 -12.553  49.963  -4.071   4.120  48.675

                      1                      2                      3
                      A                      A                      A
 Frequencies --    153.8474               327.1706               426.8438
 Red. masses --      6.6580                 2.3030                 1.4333
 Frc consts  --      0.0928                 0.1452                 0.1539
 IR Inten    --     22.8054                20.0747                 2.7697

                      4                      5                      6
                      A                      A                      A
 Frequencies --    511.5196               682.0629               856.4458
 Red. masses --      2.2993                 1.5616                 3.6117
 Frc consts  --      0.3545                 0.4280                 1.5608
 IR Inten    --      1.7517                53.6304                23.6932

                      7                      8                      9
                      A                      A                      A
 Frequencies --    962.9914              1017.1828              1045.4278
 Red. masses --      1.2552                 1.9283                 1.2929
 Frc consts  --      0.6858                 1.1755                 0.8325
 IR Inten    --     83.1433                 9.7452                10.2772

                     10                     11                     12
                      A                      A                      A
 Frequencies --   1137.9211              1272.4451              1311.4557
 Red. masses --      1.4443                 1.4377                 1.1213
 Frc consts  --      1.1019                 1.3715                 1.1363
 IR Inten    --    129.1441               147.4041                32.7278

                     13                     14                     15
                      A                      A                      A
 Frequencies --   1418.2604              1552.8710              2914.6966
 Red. masses --      1.3828                 4.1703                 1.0659
 Frc consts  --      1.6388                 5.9250                 5.3355
 IR Inten    --     13.5624               261.5480                94.6788

                     16                     17                     18
                      A                      A                      A
 Frequencies --   3019.6024              3182.6665              3668.8067
 Red. masses --      1.0923                 1.0936                 1.0665
 Frc consts  --      5.8680                 6.5264                 8.4578
 IR Inten    --     20.9979                29.4035               217.7590

 - Thermochemistry -
 -------------------
 Temperature   298.150 Kelvin.  Pressure   1.00000 Atm.
 Atom     1 has atomic number  6 and mass  12.00000

 Molecular mass:    56.02621 amu.
 Principal axes and moments of inertia in atomic units:
                           1         2         3
     Eigenvalues --    79.00461 313.30731 330.18262
           X            0.99920   0.03933   0.00736
           Y           -0.03768   0.98675  -0.15780
           Z           -0.01347   0.15740   0.98744
 This molecule is an asymmetric top.
 Rotational symmetry number  1.
 Rotational temperatures (Kelvin)      1.09631     0.27645     0.26232
 Rotational constants (GHZ):          22.84349     5.76029     5.46589
 Zero-point vibrational energy     152297.9 (Joules/Mol)
                                   36.40007 (Kcal/Mol)
 Warning -- explicit consideration of   4 degrees of freedom as
           vibrations may cause significant error
 Vibrational temperatures:    221.35   470.72   614.13   735.96   981.34
          (Kelvin)           1232.23  1385.53  1463.50  1504.14  1637.21
                             1830.76  1886.89  2040.56  2234.23  4193.59
                             4344.53  4579.14  5278.59

 Zero-point correction=                           0.058007 (Hartree/Particle)
 Thermal correction to Energy=                    0.062711
 Thermal correction to Enthalpy=                  0.063655
 Thermal correction to Gibbs Free Energy=         0.030734
 Sum of electronic and zero-point Energies=           -191.451186
 Sum of electronic and thermal Energies=              -191.446482
 Sum of electronic and thermal Enthalpies=            -191.445538
 Sum of electronic and thermal Free Energies=         -191.478459

                     E (Thermal)             CV                S
                      KCal/Mol        Cal/Mol-Kelvin    Cal/Mol-Kelvin
 Total                   39.351             15.368             69.287
 Electronic               0.000              0.000              1.377
 Translational            0.889              2.981             37.991
 Rotational               0.889              2.981             23.617
 Vibrational             37.574              9.406              6.301
 Vibration     1          0.619              1.898              2.624
 Vibration     2          0.711              1.621              1.274
 Vibration     3          0.789              1.412              0.869
 Vibration     4          0.867              1.224              0.630

 Optimization completed.
    -- Stationary point found.
 Normal termination of Gaussian 09 at Fri Mar  1 09:25:47 2019.
