 Gaussian 09, Revision E.01,
 Gaussian 09:  EM64L-G09RevE.01 30-Nov-2015

 ------------------------------------------------------
 #p b3lyp/6-311++G(3df,2p) freq IOp(2/17=3) IOp(2/18=3)
 ------------------------------------------------------

 ---------
 b3lyp opt
 ---------
 Symbolic Z-matrix:
 Charge =  1 Multiplicity = 4

                         Standard orientation:
 ---------------------------------------------------------------------
 Center     Atomic      Atomic             Coordinates (Angstroms)
 Number     Number       Type             X           Y           Z
 ---------------------------------------------------------------------
      1          6           0        2.027401   -0.006076    0.000083
      2          6           0       -0.495461    0.436125   -0.000413
      3          6           0        0.635453   -0.415069   -0.000361
      4          1           0       -1.821645   -0.976788    0.001686
      5          1           0        0.459768   -1.491375   -0.000773
      6          1           0       -0.422238    1.515716   -0.000860
      7          1           0        2.569707    0.928418    0.002154
      8          8           0       -1.723744   -0.008231    0.000242
 ---------------------------------------------------------------------

 SCF Done:  E(UB3LYP) =  -191.506272313     A.U. after   13 cycles

 The electronic state is 4-A.
 Alpha  occ. eigenvalues --  -19.44986 -10.51289 -10.51130 -10.46645  -1.35980
 Alpha  occ. eigenvalues --   -1.07458  -0.94428  -0.87267  -0.79335  -0.74164
 Alpha  occ. eigenvalues --   -0.70121  -0.67261  -0.64010  -0.59468  -0.50615
 Alpha  occ. eigenvalues --   -0.43958
 Alpha virt. eigenvalues --   -0.25982  -0.19289  -0.14523  -0.14504  -0.11660
 Alpha virt. eigenvalues --   -0.10447  -0.09413  -0.07264  -0.06036  -0.05379
 Alpha virt. eigenvalues --   -0.04684  -0.04622  -0.03174  -0.02993  -0.01658

  Beta  occ. eigenvalues --  -19.44131 -10.50640 -10.50304 -10.43785  -1.34233
  Beta  occ. eigenvalues --   -1.03055  -0.91559  -0.83210  -0.77869  -0.72490
  Beta  occ. eigenvalues --   -0.65673  -0.64648  -0.62666
  Beta virt. eigenvalues --   -0.44721  -0.31337  -0.28956  -0.18962  -0.18437
  Beta virt. eigenvalues --   -0.14230  -0.14070  -0.10712  -0.09697  -0.08600
  Beta virt. eigenvalues --   -0.06661  -0.05533  -0.04645  -0.03771  -0.02807

 Mulliken charges and spin densities:
               1          2
     1  C   -0.283873   1.797585
     2  C    0.279841   0.383988
     3  C    0.349256   0.554939
     4  H    0.310844  -0.010581
     5  H    0.202895   0.008985
     6  H    0.248082  -0.008860
     7  H    0.253351   0.004414
     8  O   -0.360395   0.269528
 Sum of Mulliken charges =   1.00000   3.00000

 Dipole moment (field-independent basis, Debye):
    X=              0.8635    Y=             -0.9618    Z=              0.0027  Tot=              1.2925
 Quadrupole moment (field-independent basis, Debye-Ang):
   XX=            -12.6053   YY=            -15.0592   ZZ=            -22.5972
   XY=              4.5335   XZ=             -0.0006   YZ=             -0.0015

  Exact polarizability:  63.298  -0.288  32.327  -0.001  -0.001  22.884
 Approx polarizability:  90.068  -3.340  44.629  -0.002  -0.002  31.839

                      1                      2                      3
                      A                      A                      A
 Frequencies --    176.2491               291.4884               303.3936
 Red. masses --      2.0261                 1.4646                 2.9406
 Frc consts  --      0.0371                 0.0733                 0.1595
 IR Inten    --      3.9269                30.2450                16.2527

                      4                      5                      6
                      A                      A                      A
 Frequencies --    522.1276               524.5258               819.4463
 Red. masses --      1.3874                 3.3418                 1.6016
 Frc consts  --      0.2228                 0.5417                 0.6336
 IR Inten    --     59.6696                 2.4200                18.0647

                      7                      8                      9
                      A                      A                      A
 Frequencies --    841.1045               898.7970              1089.8375
 Red. masses --      1.4695                 1.2205                 2.2922
 Frc consts  --      0.6125                 0.5809                 1.6041
 IR Inten    --     14.2336                69.9580                73.5325

                     10                     11                     12
                      A                      A                      A
 Frequencies --   1158.0855              1270.7289              1308.2785
 Red. masses --      2.0046                 2.0560                 1.6491
 Frc consts  --      1.5840                 1.9561                 1.6630
 IR Inten    --    282.9478                12.4946                59.2144

                     13                     14                     15
                      A                      A                      A
 Frequencies --   1392.7936              1553.1573              3109.5454
 Red. masses --      1.3521                 3.2524                 1.0876
 Frc consts  --      1.5454                 4.6226                 6.1960
 IR Inten    --     15.4029                 1.7541                13.7059

                     16                     17                     18
                      A                      A                      A
 Frequencies --   3204.7288              3228.3874              3691.3683
 Red. masses --      1.0928                 1.0931                 1.0672
 Frc consts  --      6.6125                 6.7125                 8.5678
 IR Inten    --     30.7162                60.5517               220.5756

 - Thermochemistry -
 -------------------
 Temperature   298.150 Kelvin.  Pressure   1.00000 Atm.
 Atom     1 has atomic number  6 and mass  12.00000

 Molecular mass:    56.02621 amu.
 Principal axes and moments of inertia in atomic units:
                           1         2         3
     Eigenvalues --    38.07685 411.02518 449.10194
           X            0.99964   0.02698   0.00002
           Y           -0.02698   0.99964   0.00002
           Z           -0.00002  -0.00002   1.00000
 This molecule is an asymmetric top.
 Rotational symmetry number  1.
 Rotational temperatures (Kelvin)      2.27471     0.21073     0.19286
 Rotational constants (GHZ):          47.39733     4.39083     4.01856
 Zero-point vibrational energy     151830.3 (Joules/Mol)
                                   36.28831 (Kcal/Mol)
 Warning -- explicit consideration of   5 degrees of freedom as
           vibrations may cause significant error
 Vibrational temperatures:    253.58   419.39   436.52   751.22   754.67
          (Kelvin)           1179.00  1210.16  1293.17  1568.03  1666.22
                             1828.29  1882.32  2003.92  2234.64  4473.94
                             4610.88  4644.92  5311.05

 Zero-point correction=                           0.057829 (Hartree/Particle)
 Thermal correction to Energy=                    0.062798
 Thermal correction to Enthalpy=                  0.063742
 Thermal correction to Gibbs Free Energy=         0.029838
 Sum of electronic and zero-point Energies=           -191.448443
 Sum of electronic and thermal Energies=              -191.443475
 Sum of electronic and thermal Enthalpies=            -191.442531
 Sum of electronic and thermal Free Energies=         -191.476435

                     E (Thermal)             CV                S
                      KCal/Mol        Cal/Mol-Kelvin    Cal/Mol-Kelvin
 Total                   39.406             16.294             71.357
 Electronic               0.000              0.000              2.755
 Translational            0.889              2.981             37.991
 Rotational               0.889              2.981             23.468
 Vibrational             37.629             10.332              7.144
 Vibration     1          0.628              1.872              2.368
 Vibration     2          0.687              1.690              1.465
 Vibration     3          0.695              1.667              1.398
 Vibration     4          0.877              1.201              0.605
 Vibration     5          0.879              1.196              0.600

 Normal termination of Gaussian 09 at Fri Mar  1 09:24:45 2019.
