 Gaussian 09, Revision E.01,
 Gaussian 09:  EM64L-G09RevE.01 30-Nov-2015

 ------------------------------------------------------
 #p b3lyp/6-311++G(3df,2p) freq IOp(2/17=3) IOp(2/18=3)
 ------------------------------------------------------

 ---------
 b3lyp opt
 ---------
 Symbolic Z-matrix:
 Charge =  1 Multiplicity = 2

                         Standard orientation:
 ---------------------------------------------------------------------
 Center     Atomic      Atomic             Coordinates (Angstroms)
 Number     Number       Type             X           Y           Z
 ---------------------------------------------------------------------
      1          6           0        0.190007    0.620445    0.000000
      2          6           0        0.448046   -0.726772    0.000000
      3          6           0        0.000000    1.885810    0.000000
      4          1           0       -1.381584   -1.305655   -0.000000
      5          1           0       -0.086420    2.449865   -0.929910
      6          1           0        1.461449   -1.116346    0.000000
      7          1           0       -0.086420    2.449865    0.929910
      8          8           0       -0.466793   -1.644315   -0.000000
 ---------------------------------------------------------------------

 SCF Done:  E(UB3LYP) =  -191.628170161     A.U. after   15 cycles

 The electronic state is 2-A".
 Alpha  occ. eigenvalues --  -19.45642 -10.53819 -10.47676 -10.43250  -1.37028
 Alpha  occ. eigenvalues --   -1.06176  -0.97217  -0.88013  -0.75950  -0.73951
 Alpha  occ. eigenvalues --   -0.71611  -0.68175  -0.64623  -0.54414  -0.51251
 Alpha virt. eigenvalues --   -0.26066  -0.25395  -0.18202  -0.15129  -0.12313
 Alpha virt. eigenvalues --   -0.11240  -0.08933  -0.08780  -0.07396  -0.06993
 Alpha virt. eigenvalues --   -0.04600  -0.03722  -0.02343  -0.01882  -0.01337

  Beta  occ. eigenvalues --  -19.44905 -10.53473 -10.46918 -10.43348  -1.35604
  Beta  occ. eigenvalues --   -1.04195  -0.96254  -0.87133  -0.75387  -0.73127
  Beta  occ. eigenvalues --   -0.68501  -0.65300  -0.63804  -0.54000
  Beta virt. eigenvalues --   -0.40338  -0.25048  -0.21628  -0.17966  -0.14934
  Beta virt. eigenvalues --   -0.12225  -0.11032  -0.08728  -0.08523  -0.07126
  Beta virt. eigenvalues --   -0.06985  -0.04377  -0.03522  -0.02278  -0.01565

 Mulliken charges and spin densities:
               1          2
     1  C    0.573573   0.482622
     2  C    0.109176   0.233779
     3  C   -0.371768  -0.032714
     4  H    0.321229  -0.008621
     5  H    0.244412   0.047965
     6  H    0.264133  -0.007612
     7  H    0.244412   0.047965
     8  O   -0.385167   0.236616
 Sum of Mulliken charges =   1.00000   1.00000

 Dipole moment (field-independent basis, Debye):
    X=             -0.5030    Y=              1.6008    Z=              0.0000  Tot=              1.6780
 Quadrupole moment (field-independent basis, Debye-Ang):
   XX=            -16.7149   YY=             -9.5520   ZZ=            -20.2112
   XY=              0.3730   XZ=              0.0000   YZ=              0.0000

  Exact polarizability:  29.879   0.370  62.902  -0.000  -0.000  24.456
 Approx polarizability:  42.249  -0.212  95.096   0.000  -0.000  34.322

                      1                      2                      3
                     A"                     A'                     A"
 Frequencies --    208.1924               208.4956               287.3390
 Red. masses --      1.2004                 4.0125                 1.9065
 Frc consts  --      0.0307                 0.1028                 0.0927
 IR Inten    --      0.0303                 0.3387                 0.0004

                      4                      5                      6
                     A'                     A"                     A"
 Frequencies --    599.8602               673.4722               853.0108
 Red. masses --      4.8516                 1.5059                 1.5479
 Frc consts  --      1.0286                 0.4024                 0.6636
 IR Inten    --     24.2114                99.0117                 1.3443

                      7                      8                      9
                     A'                     A"                     A'
 Frequencies --    940.9595               966.6460               984.1693
 Red. masses --      1.3151                 1.2648                 3.1062
 Frc consts  --      0.6860                 0.6963                 1.7727
 IR Inten    --     38.9726                55.1858                55.3475

                     10                     11                     12
                     A'                     A'                     A'
 Frequencies --   1231.9207              1344.9461              1379.8085
 Red. masses --      1.2561                 1.2109                 1.6826
 Frc consts  --      1.1232                 1.2905                 1.8874
 IR Inten    --    160.3443                25.5617                16.8410

                     13                     14                     15
                     A'                     A'                     A'
 Frequencies --   1488.6169              1961.2728              3056.5151
 Red. masses --      2.4280                 9.6822                 1.0599
 Frc consts  --      3.1701                21.9431                 5.8341
 IR Inten    --    166.2833                 0.0731               120.1306

                     16                     17                     18
                     A"                     A'                     A'
 Frequencies --   3126.1939              3170.4550              3667.4112
 Red. masses --      1.1106                 1.0924                 1.0670
 Frc consts  --      6.3947                 6.4697                 8.4550
 IR Inten    --     61.0713                26.3503               197.1690

 - Thermochemistry -
 -------------------
 Temperature   298.150 Kelvin.  Pressure   1.00000 Atm.
 Atom     1 has atomic number  6 and mass  12.00000

 Molecular mass:    56.02621 amu.
 Principal axes and moments of inertia in atomic units:
                           1         2         3
     Eigenvalues --    40.25619 408.80101 436.60847
           X            0.09279   0.99569   0.00000
           Y            0.99569  -0.09279   0.00000
           Z           -0.00000  -0.00000   1.00000
 This molecule is an asymmetric top.
 Rotational symmetry number  1.
 Rotational temperatures (Kelvin)      2.15157     0.21187     0.19838
 Rotational constants (GHZ):          44.83140     4.41472     4.13355
 Zero-point vibrational energy     156407.5 (Joules/Mol)
                                   37.38228 (Kcal/Mol)
 Warning -- explicit consideration of   4 degrees of freedom as
           vibrations may cause significant error
 Vibrational temperatures:    299.54   299.98   413.42   863.06   968.98
          (Kelvin)           1227.29  1353.83  1390.79  1416.00  1772.46
                             1935.08  1985.23  2141.79  2821.83  4397.64
                             4497.89  4561.57  5276.58

 Zero-point correction=                           0.059572 (Hartree/Particle)
 Thermal correction to Energy=                    0.064450
 Thermal correction to Enthalpy=                  0.065394
 Thermal correction to Gibbs Free Energy=         0.032212
 Sum of electronic and zero-point Energies=           -191.568598
 Sum of electronic and thermal Energies=              -191.563720
 Sum of electronic and thermal Enthalpies=            -191.562776
 Sum of electronic and thermal Free Energies=         -191.595958

                     E (Thermal)             CV                S
                      KCal/Mol        Cal/Mol-Kelvin    Cal/Mol-Kelvin
 Total                   40.443             15.569             69.839
 Electronic               0.000              0.000              1.377
 Translational            0.889              2.981             37.991
 Rotational               0.889              2.981             23.489
 Vibrational             38.666              9.608              6.981
 Vibration     1          0.642              1.828              2.059
 Vibration     2          0.642              1.828              2.057
 Vibration     3          0.685              1.697              1.490
 Vibration     4          0.958              1.032              0.450

 Optimization completed.
    -- Stationary point found.
 Normal termination of Gaussian 09 at Fri Mar  1 09:23:44 2019.
