 Gaussian 09, Revision E.01,
 Gaussian 09:  EM64L-G09RevE.01 30-Nov-2015

 ------------------------------------------------------
 #p b3lyp/6-311++G(3df,2p) freq IOp(2/17=3) IOp(2/18=3)
 ------------------------------------------------------

 ---------
 b3lyp opt
 ---------
 Symbolic Z-matrix:
 Charge =  1 Multiplicity = 2

                         Standard orientation:
 ---------------------------------------------------------------------
 Center     Atomic      Atomic             Coordinates (Angstroms)
 Number     Number       Type             X           Y           Z
 ---------------------------------------------------------------------
      1          6           0       -1.284124    0.383728    0.000000
      2          6           0        1.142572    0.201843   -0.000000
      3          8           0       -1.538672   -0.874906   -0.000000
      4          6           0        2.158435   -0.471217   -0.000000
      5          6           0       -0.000000    0.959543    0.000000
      6          1           0       -2.173106    1.004998    0.000000
      7          1           0       -0.746781   -1.445625   -0.000000
      8          1           0        3.060775   -1.045112   -0.000000
      9          1           0        0.067194    2.041600    0.000000
 ---------------------------------------------------------------------

 SCF Done:  E(UB3LYP) =  -229.740463427     A.U. after   16 cycles

 The electronic state is 2-A".
 Alpha  occ. eigenvalues --  -19.43946 -10.52129 -10.45657 -10.43737 -10.42341
 Alpha  occ. eigenvalues --   -1.35858  -1.05878  -0.98876  -0.91128  -0.81405
 Alpha  occ. eigenvalues --   -0.75744  -0.74853  -0.68865  -0.68158  -0.62396
 Alpha  occ. eigenvalues --   -0.58298  -0.52493  -0.48350
 Alpha virt. eigenvalues --   -0.28175  -0.20877  -0.17492  -0.13995  -0.13239
 Alpha virt. eigenvalues --   -0.12006  -0.10741  -0.09727  -0.08668  -0.07605
 Alpha virt. eigenvalues --   -0.07162  -0.05465  -0.04377  -0.04097  -0.03308

  Beta  occ. eigenvalues --  -19.43510 -10.51883 -10.45138 -10.43075 -10.42442
  Beta  occ. eigenvalues --   -1.35021  -1.04638  -0.97183  -0.90421  -0.80803
  Beta  occ. eigenvalues --   -0.75349  -0.74269  -0.67892  -0.66156  -0.61898
  Beta  occ. eigenvalues --   -0.55067  -0.52025
  Beta virt. eigenvalues --   -0.39132  -0.24781  -0.20573  -0.17406  -0.13887
  Beta virt. eigenvalues --   -0.11837  -0.11459  -0.10602  -0.09121  -0.08486
  Beta virt. eigenvalues --   -0.07454  -0.06866  -0.04854  -0.04292  -0.03627

 Mulliken charges and spin densities:
               1          2
     1  C    0.186866   0.158663
     2  C   -0.235407  -0.009393
     3  O   -0.432801   0.139825
     4  C    0.349207   0.384124
     5  C   -0.029884   0.363169
     6  H    0.261987  -0.006674
     7  H    0.320051  -0.005241
     8  H    0.372724  -0.012051
     9  H    0.207257  -0.012422
 Sum of Mulliken charges =   1.00000   1.00000

 Dipole moment (field-independent basis, Debye):
    X=              0.9831    Y=              0.1562    Z=              0.0000  Tot=              0.9954
 Quadrupole moment (field-independent basis, Debye-Ang):
   XX=            -11.0395   YY=            -18.5782   ZZ=            -27.9174
   XY=             -6.1783   XZ=             -0.0000   YZ=             -0.0000

  Exact polarizability:  79.969  -8.869  45.466   0.000  -0.000  27.479
 Approx polarizability: 131.128 -21.576  72.936  -0.000   0.000  39.158

                      1                      2                      3
                     A'                     A"                     A'
 Frequencies --    141.8458               216.6405               391.9565
 Red. masses --      4.6053                 2.0668                 5.1100
 Frc consts  --      0.0546                 0.0572                 0.4625
 IR Inten    --      1.3324                 0.1120                21.3647

                      4                      5                      6
                     A"                     A"                     A'
 Frequencies --    424.4914               684.3247               715.2921
 Red. masses --      2.4280                 1.4585                 1.2789
 Frc consts  --      0.2578                 0.4024                 0.3855
 IR Inten    --     26.3967                32.2387                38.6972

                      7                      8                      9
                     A"                     A'                     A"
 Frequencies --    724.9558               730.4574               814.8573
 Red. masses --      1.3454                 3.6733                 1.4627
 Frc consts  --      0.4166                 1.1548                 0.5722
 IR Inten    --     15.6166                16.8982                82.8729

                     10                     11                     12
                     A'                     A"                     A'
 Frequencies --    977.8765              1036.7585              1152.3814
 Red. masses --      4.7634                 1.3090                 1.6338
 Frc consts  --      2.6837                 0.8290                 1.2783
 IR Inten    --     13.6286                20.4529                36.6047

                     13                     14                     15
                     A'                     A'                     A'
 Frequencies --   1232.9526              1398.7220              1468.2662
 Red. masses --      1.1731                 1.5371                 2.4341
 Frc consts  --      1.0507                 1.7718                 3.0917
 IR Inten    --    169.9182                37.8190                22.3281

                     16                     17                     18
                     A'                     A'                     A'
 Frequencies --   1572.8716              2094.3778              3169.1596
 Red. masses --      3.6085                 6.5317                 1.0896
 Frc consts  --      5.2597                16.8805                 6.4475
 IR Inten    --    247.5105               137.2933                24.2939

                     19                     20                     21
                     A'                     A'                     A'
 Frequencies --   3190.7811              3389.5931              3638.2643
 Red. masses --      1.0961                 1.1508                 1.0656
 Frc consts  --      6.5748                 7.7902                 8.3103
 IR Inten    --     16.4474               123.5823                73.0251

 - Thermochemistry -
 -------------------
 Temperature   298.150 Kelvin.  Pressure   1.00000 Atm.
 Atom     1 has atomic number  6 and mass  12.00000

 Molecular mass:    68.02621 amu.
 Principal axes and moments of inertia in atomic units:
                           1         2         3
     Eigenvalues --   130.69119 514.34441 645.03561
           X            0.99983  -0.01844   0.00000
           Y            0.01844   0.99983   0.00000
           Z            0.00000  -0.00000   1.00000
 This molecule is an asymmetric top.
 Rotational symmetry number  1.
 Rotational temperatures (Kelvin)      0.66274     0.16840     0.13428
 Rotational constants (GHZ):          13.80920     3.50882     2.79789
 Zero-point vibrational energy     174456.4 (Joules/Mol)
                                   41.69607 (Kcal/Mol)
 Warning -- explicit consideration of   4 degrees of freedom as
           vibrations may cause significant error
 Vibrational temperatures:    204.08   311.70   563.94   610.75   984.59
          (Kelvin)           1029.14  1043.05  1050.96  1172.40  1406.94
                             1491.66  1658.02  1773.94  2012.45  2112.50
                             2263.01  3013.34  4559.71  4590.82  4876.86
                             5234.64

 Zero-point correction=                           0.066447 (Hartree/Particle)
 Thermal correction to Energy=                    0.071704
 Thermal correction to Enthalpy=                  0.072648
 Thermal correction to Gibbs Free Energy=         0.037713
 Sum of electronic and zero-point Energies=           -229.674017
 Sum of electronic and thermal Energies=              -229.668760
 Sum of electronic and thermal Enthalpies=            -229.667815
 Sum of electronic and thermal Free Energies=         -229.702751

                     E (Thermal)             CV                S
                      KCal/Mol        Cal/Mol-Kelvin    Cal/Mol-Kelvin
 Total                   44.995             17.853             73.527
 Electronic               0.000              0.000              1.377
 Translational            0.889              2.981             38.570
 Rotational               0.889              2.981             25.275
 Vibrational             43.217             11.892              8.305
 Vibration     1          0.615              1.911              2.779
 Vibration     2          0.645              1.816              1.987
 Vibration     3          0.759              1.487              0.993
 Vibration     4          0.786              1.417              0.877

 Optimization completed.
    -- Stationary point found.
 Normal termination of Gaussian 09 at Sun Mar  3 15:49:54 2019.
