 Gaussian 09, Revision E.01,
 Gaussian 09:  EM64L-G09RevE.01 30-Nov-2015

 ------------------------------------------------------
 #p b3lyp/6-311++G(3df,2p) freq IOp(2/17=3) IOp(2/18=3)
 ------------------------------------------------------

 ---------
 b3lyp opt
 ---------
 Symbolic Z-matrix:
 Charge =  1 Multiplicity = 2

                         Standard orientation:
 ---------------------------------------------------------------------
 Center     Atomic      Atomic             Coordinates (Angstroms)
 Number     Number       Type             X           Y           Z
 ---------------------------------------------------------------------
      1          8           0        2.056818   -0.480213   -0.000000
      2          6           0       -1.646127   -0.912234    0.000000
      3          6           0        1.121626    0.149722   -0.000000
      4          6           0       -1.303665    0.423949    0.000000
      5          6           0        0.000000    0.936268   -0.000000
      6          1           0       -2.685783   -1.207937    0.000000
      7          1           0       -0.909161   -1.706439    0.000000
      8          1           0       -2.092169    1.166527    0.000000
      9          1           0        0.201561    2.003321   -0.000000
 ---------------------------------------------------------------------

 SCF Done:  E(UB3LYP) =  -229.781346814     A.U. after   15 cycles

 The electronic state is 2-A".
 Alpha  occ. eigenvalues --  -19.47272 -10.56967 -10.46508 -10.44282 -10.43256
 Alpha  occ. eigenvalues --   -1.40856  -1.08729  -0.98712  -0.86230  -0.78276
 Alpha  occ. eigenvalues --   -0.76189  -0.73420  -0.72836  -0.69674  -0.64728
 Alpha  occ. eigenvalues --   -0.61197  -0.58408  -0.47743
 Alpha virt. eigenvalues --   -0.28694  -0.27756  -0.17065  -0.15694  -0.13892
 Alpha virt. eigenvalues --   -0.12959  -0.10038  -0.09887  -0.08667  -0.07979
 Alpha virt. eigenvalues --   -0.05906  -0.05901  -0.05249  -0.05114  -0.02947

  Beta  occ. eigenvalues --  -19.46894 -10.56888 -10.46009 -10.44342 -10.42452
  Beta  occ. eigenvalues --   -1.40253  -1.07539  -0.96830  -0.85395  -0.77702
  Beta  occ. eigenvalues --   -0.75845  -0.72272  -0.71428  -0.69355  -0.64245
  Beta  occ. eigenvalues --   -0.60881  -0.55179
  Beta virt. eigenvalues --   -0.38109  -0.28485  -0.24797  -0.16848  -0.13830
  Beta virt. eigenvalues --   -0.13231  -0.12760  -0.09666  -0.09506  -0.08606
  Beta virt. eigenvalues --   -0.07822  -0.05716  -0.05617  -0.05040  -0.04677

 Mulliken charges and spin densities:
               1          2
     1  O   -0.400833   0.122097
     2  C   -0.279762   0.539257
     3  C    0.632916   0.028141
     4  C    0.088757  -0.029351
     5  C    0.131027   0.381468
     6  H    0.219129  -0.015624
     7  H    0.190040  -0.013468
     8  H    0.210483  -0.000195
     9  H    0.208243  -0.012325
 Sum of Mulliken charges =   1.00000   1.00000

 Dipole moment (field-independent basis, Debye):
    X=             -1.8331    Y=              0.9676    Z=             -0.0000  Tot=              2.0728
 Quadrupole moment (field-independent basis, Debye-Ang):
   XX=            -15.0563   YY=            -18.8659   ZZ=            -27.8612
   XY=              2.6887   XZ=              0.0000   YZ=             -0.0000

  Exact polarizability:  72.122   5.163  47.212  -0.001   0.000  27.340
 Approx polarizability: 114.919   2.919  73.876  -0.000  -0.000  39.235

                      1                      2                      3
                     A'                     A"                     A'
 Frequencies --    149.7589               211.5824               421.4095
 Red. masses --      5.1095                 1.9913                 3.6274
 Frc consts  --      0.0675                 0.0525                 0.3795
 IR Inten    --      3.1534                 1.2078                 1.0142

                      4                      5                      6
                     A"                     A"                     A'
 Frequencies --    485.6296               531.9520               682.2366
 Red. masses --      1.2889                 3.5301                 4.0030
 Frc consts  --      0.1791                 0.5885                 1.0978
 IR Inten    --     12.9175                 0.0649                 3.1833

                      7                      8                      9
                     A"                     A'                     A"
 Frequencies --    727.3552               958.9068               971.4025
 Red. masses --      1.5261                 4.9749                 1.2013
 Frc consts  --      0.4757                 2.6952                 0.6679
 IR Inten    --     43.8516                 1.6018                28.0612

                     10                     11                     12
                     A"                     A'                     A'
 Frequencies --   1008.0098              1041.4037              1152.3657
 Red. masses --      1.4280                 1.5410                 1.4569
 Frc consts  --      0.8549                 0.9846                 1.1399
 IR Inten    --      0.0167                 4.8846                 4.5434

                     13                     14                     15
                     A'                     A'                     A'
 Frequencies --   1297.3667              1420.3628              1480.0668
 Red. masses --      1.5958                 1.7377                 2.0473
 Frc consts  --      1.5825                 2.0655                 2.6424
 IR Inten    --      6.7364                62.1072                16.4031

                     16                     17                     18
                     A'                     A'                     A'
 Frequencies --   1548.4530              2277.7241              3141.3598
 Red. masses --      1.7406                13.0049                 1.0577
 Frc consts  --      2.4589                39.7519                 6.1499
 IR Inten    --     17.4788               579.8199                10.5560

                     19                     20                     21
                     A'                     A'                     A'
 Frequencies --   3152.9161              3182.7230              3247.6883
 Red. masses --      1.0870                 1.0924                 1.1186
 Frc consts  --      6.3667                 6.5200                 6.9514
 IR Inten    --     55.3696                14.5625                 8.9762

 - Thermochemistry -
 -------------------
 Temperature   298.150 Kelvin.  Pressure   1.00000 Atm.
 Atom     1 has atomic number  8 and mass  15.99491

 Molecular mass:    68.02621 amu.
 Principal axes and moments of inertia in atomic units:
                           1         2         3
     Eigenvalues --   130.12430 527.79386 657.91816
           X            0.99999  -0.00364   0.00000
           Y            0.00364   0.99999   0.00000
           Z            0.00000  -0.00000   1.00000
 This molecule is an asymmetric top.
 Rotational symmetry number  1.
 Rotational temperatures (Kelvin)      0.66562     0.16411     0.13165
 Rotational constants (GHZ):          13.86936     3.41941     2.74311
 Zero-point vibrational energy     174000.9 (Joules/Mol)
                                   41.58720 (Kcal/Mol)
 Warning -- explicit consideration of   5 degrees of freedom as
           vibrations may cause significant error
 Vibrational temperatures:    215.47   304.42   606.31   698.71   765.36
          (Kelvin)            981.59  1046.50  1379.65  1397.63  1450.30
                             1498.35  1658.00  1866.62  2043.58  2129.48
                             2227.88  3277.13  4519.71  4536.34  4579.22
                             4672.69

 Zero-point correction=                           0.066273 (Hartree/Particle)
 Thermal correction to Energy=                    0.071440
 Thermal correction to Enthalpy=                  0.072384
 Thermal correction to Gibbs Free Energy=         0.037585
 Sum of electronic and zero-point Energies=           -229.715073
 Sum of electronic and thermal Energies=              -229.709907
 Sum of electronic and thermal Enthalpies=            -229.708963
 Sum of electronic and thermal Free Energies=         -229.743761

                     E (Thermal)             CV                S
                      KCal/Mol        Cal/Mol-Kelvin    Cal/Mol-Kelvin
 Total                   44.829             17.385             73.239
 Electronic               0.000              0.000              1.377
 Translational            0.889              2.981             38.570
 Rotational               0.889              2.981             25.316
 Vibrational             43.052             11.423              7.976
 Vibration     1          0.618              1.903              2.675
 Vibration     2          0.643              1.823              2.030
 Vibration     3          0.784              1.424              0.887
 Vibration     4          0.842              1.282              0.695
 Vibration     5          0.887              1.179              0.583

 Optimization completed.
    -- Stationary point found.
 Normal termination of Gaussian 09 at Sun Mar  3 15:49:47 2019.
