 Gaussian 09, Revision E.01,
 Gaussian 09:  EM64L-G09RevE.01 30-Nov-2015

 ------------------------------------------------------
 #p b3lyp/6-311++G(3df,2p) freq IOp(2/17=3) IOp(2/18=3)
 ------------------------------------------------------

 ---------
 b3lyp opt
 ---------
 Symbolic Z-matrix:
 Charge =  0 Multiplicity = 1

                         Standard orientation:
 ---------------------------------------------------------------------
 Center     Atomic      Atomic             Coordinates (Angstroms)
 Number     Number       Type             X           Y           Z
 ---------------------------------------------------------------------
      1          8           0       -2.333373    0.200881    0.000000
      2          6           0        0.000000    0.598337    0.000000
      3          6           0       -1.210941   -0.243159    0.000000
      4          6           0        1.196339    0.065305    0.000000
      5          6           0        2.363234   -0.498581    0.000000
      6          1           0       -0.144404    1.673070    0.000000
      7          1           0       -1.022451   -1.333478    0.000000
      8          1           0        2.871025   -0.739026    0.926377
      9          1           0        2.871025   -0.739026   -0.926377
 ---------------------------------------------------------------------

 SCF Done:  E(RB3LYP) =  -230.070521223     A.U. after   13 cycles

 The electronic state is 1-A'.
 Alpha  occ. eigenvalues --  -19.12779 -10.26919 -10.22994 -10.20705 -10.20515
 Alpha  occ. eigenvalues --   -1.05689  -0.83623  -0.75622  -0.61841  -0.55927
 Alpha  occ. eigenvalues --   -0.50458  -0.47893  -0.46762  -0.43913  -0.41132
 Alpha  occ. eigenvalues --   -0.31413  -0.29946  -0.26961
 Alpha virt. eigenvalues --   -0.07243  -0.02790  -0.01241   0.01571   0.01713
 Alpha virt. eigenvalues --    0.01748   0.02780   0.05173   0.06260   0.07130
 Alpha virt. eigenvalues --    0.07200   0.10000   0.10396   0.10725   0.11783

 Mulliken charges:
               1
     1  O   -0.598258
     2  C   -0.559268
     3  C    0.236018
     4  C    0.657822
     5  C   -0.399647
     6  H    0.170037
     7  H    0.134410
     8  H    0.179443
     9  H    0.179443
 Sum of Mulliken charges =  -0.00000

 Dipole moment (field-independent basis, Debye):
    X=              3.7364    Y=             -0.7605    Z=              0.0000  Tot=              3.8131
 Quadrupole moment (field-independent basis, Debye-Ang):
   XX=            -34.0582   YY=            -28.4417   ZZ=            -28.9378
   XY=             -0.2570   XZ=              0.0000   YZ=             -0.0000

  Exact polarizability:  91.551 -12.360  46.825   0.000  -0.000  35.076
 Approx polarizability: 143.514 -26.413  68.444  -0.000  -0.000  50.266

                      1                      2                      3
                     A"                     A'                     A"
 Frequencies --    130.5489               165.6021               388.1846
 Red. masses --      3.3960                 4.3106                 2.3116
 Frc consts  --      0.0341                 0.0697                 0.2052
 IR Inten    --      5.2884                 0.8329                 9.0005

                      4                      5                      6
                     A'                     A"                     A'
 Frequencies --    477.0948               544.3041               559.9504
 Red. masses --      4.5621                 1.2245                 7.5163
 Frc consts  --      0.6118                 0.2137                 1.3885
 IR Inten    --     35.4984                 4.2238                 7.9952

                      7                      8                      9
                     A'                     A"                     A"
 Frequencies --    885.0054               911.9140               999.5031
 Red. masses --      1.3133                 1.1325                 1.5819
 Frc consts  --      0.6060                 0.5549                 0.9311
 IR Inten    --     51.2758                24.8713                 0.0929

                     10                     11                     12
                     A"                     A'                     A'
 Frequencies --   1022.9236              1075.0911              1123.4138
 Red. masses --      1.7524                 3.7660                 1.8702
 Frc consts  --      1.0803                 2.5646                 1.3907
 IR Inten    --      0.1154                44.7624                69.2567

                     13                     14                     15
                     A'                     A'                     A'
 Frequencies --   1303.9609              1415.7732              1464.3460
 Red. masses --      1.5415                 1.1650                 1.5223
 Frc consts  --      1.5442                 1.3758                 1.9232
 IR Inten    --      2.2240                 0.4965                 2.2611

                     16                     17                     18
                     A'                     A'                     A'
 Frequencies --   1764.9053              2021.7718              2908.5548
 Red. masses --      9.6726                 9.9584                 1.0845
 Frc consts  --     17.7515                23.9829                 5.4053
 IR Inten    --    404.5606               142.8506                65.0186

                     19                     20                     21
                     A'                     A'                     A"
 Frequencies --   3122.3381              3152.0991              3195.7073
 Red. masses --      1.0589                 1.0895                 1.1144
 Frc consts  --      6.0824                 6.3780                 6.7056
 IR Inten    --      0.9872                 0.0679                 0.3843

 - Thermochemistry -
 -------------------
 Temperature   298.150 Kelvin.  Pressure   1.00000 Atm.
 Atom     1 has atomic number  8 and mass  15.99491

 Molecular mass:    68.02621 amu.
 Principal axes and moments of inertia in atomic units:
                           1         2         3
     Eigenvalues --    49.99242 750.29783 787.93594
           X            0.99460   0.10375   0.00000
           Y           -0.10375   0.99460   0.00000
           Z            0.00000  -0.00000   1.00000
 This molecule is an asymmetric top.
 Rotational symmetry number  1.
 Rotational temperatures (Kelvin)      1.73254     0.11544     0.10992
 Rotational constants (GHZ):          36.10030     2.40537     2.29047
 Zero-point vibrational energy     171263.3 (Joules/Mol)
                                   40.93292 (Kcal/Mol)
 Warning -- explicit consideration of   6 degrees of freedom as
           vibrations may cause significant error
 Vibrational temperatures:    187.83   238.26   558.51   686.43   783.13
          (Kelvin)            805.64  1273.32  1312.04  1438.06  1471.76
                             1546.81  1616.34  1876.11  2036.98  2106.86
                             2539.30  2908.88  4184.76  4492.34  4535.16
                             4597.90

 Zero-point correction=                           0.065231 (Hartree/Particle)
 Thermal correction to Energy=                    0.070553
 Thermal correction to Enthalpy=                  0.071497
 Thermal correction to Gibbs Free Energy=         0.037125
 Sum of electronic and zero-point Energies=           -230.005290
 Sum of electronic and thermal Energies=              -229.999969
 Sum of electronic and thermal Enthalpies=            -229.999024
 Sum of electronic and thermal Free Energies=         -230.033396

                     E (Thermal)             CV                S
                      KCal/Mol        Cal/Mol-Kelvin    Cal/Mol-Kelvin
 Total                   44.272             17.505             72.341
 Electronic               0.000              0.000              0.000
 Translational            0.889              2.981             38.570
 Rotational               0.889              2.981             24.895
 Vibrational             42.495             11.543              8.876
 Vibration     1          0.612              1.923              2.938
 Vibration     2          0.624              1.885              2.485
 Vibration     3          0.756              1.495              1.007
 Vibration     4          0.834              1.301              0.718
 Vibration     5          0.899              1.152              0.556
 Vibration     6          0.916              1.118              0.524

 Optimization completed.
    -- Stationary point found.
 Normal termination of Gaussian 09 at Fri Mar  1 07:48:44 2019.
