 Gaussian 09, Revision E.01,
 Gaussian 09:  EM64L-G09RevE.01 30-Nov-2015

 ------------------------------------------------------
 #p b3lyp/6-311++G(3df,2p) freq IOp(2/17=3) IOp(2/18=3)
 ------------------------------------------------------

 ---------
 b3lyp opt
 ---------
 Symbolic Z-matrix:
 Charge =  1 Multiplicity = 2

                         Standard orientation:
 ---------------------------------------------------------------------
 Center     Atomic      Atomic             Coordinates (Angstroms)
 Number     Number       Type             X           Y           Z
 ---------------------------------------------------------------------
      1          8           0       -1.145669    1.050616    0.000000
      2          6           0        0.000000    0.422912    0.000000
      3          6           0        1.242543    1.087101    0.000000
      4          6           0       -0.052979   -0.972700    0.000000
      5          6           0       -0.050218   -2.180052    0.000000
      6          1           0        1.300646    2.168970    0.000000
      7          1           0        2.157398    0.512757    0.000000
      8          1           0       -1.068174    2.019025    0.000000
      9          1           0       -0.060590   -3.249245    0.000000
 ---------------------------------------------------------------------

 SCF Done:  E(UB3LYP) =  -229.723738740     A.U. after   16 cycles

 The electronic state is 2-A".
 Alpha  occ. eigenvalues --  -19.42702 -10.53761 -10.45901 -10.42986 -10.41063
 Alpha  occ. eigenvalues --   -1.34666  -1.05415  -0.98571  -0.91135  -0.81004
 Alpha  occ. eigenvalues --   -0.75528  -0.73765  -0.68651  -0.66952  -0.62529
 Alpha  occ. eigenvalues --   -0.55130  -0.52172  -0.50139
 Alpha virt. eigenvalues --   -0.29199  -0.20592  -0.17415  -0.13648  -0.12499
 Alpha virt. eigenvalues --   -0.11547  -0.10311  -0.09195  -0.09062  -0.08060
 Alpha virt. eigenvalues --   -0.06555  -0.05155  -0.04849  -0.04155  -0.03770

  Beta  occ. eigenvalues --  -19.42373 -10.53713 -10.44902 -10.42658 -10.41074
  Beta  occ. eigenvalues --   -1.34051  -1.04221  -0.96880  -0.90211  -0.80724
  Beta  occ. eigenvalues --   -0.74733  -0.73419  -0.66672  -0.66405  -0.62009
  Beta  occ. eigenvalues --   -0.52593  -0.51904
  Beta virt. eigenvalues --   -0.39698  -0.25425  -0.20402  -0.17224  -0.13537
  Beta virt. eigenvalues --   -0.11415  -0.11408  -0.10180  -0.08894  -0.08524
  Beta virt. eigenvalues --   -0.07957  -0.06221  -0.05036  -0.04413  -0.03643

 Mulliken charges and spin densities:
               1          2
     1  O   -0.463304   0.116183
     2  C    0.388772   0.066795
     3  C   -0.311384   0.675046
     4  C   -0.211279   0.019894
     5  C    0.476666   0.170101
     6  H    0.208908  -0.019012
     7  H    0.231851  -0.018254
     8  H    0.306873  -0.004852
     9  H    0.372897  -0.005902
 Sum of Mulliken charges =   1.00000   1.00000

 Dipole moment (field-independent basis, Debye):
    X=              1.9023    Y=              1.1739    Z=              0.0000  Tot=              2.2353
 Quadrupole moment (field-independent basis, Debye-Ang):
   XX=            -22.6202   YY=             -2.4847   ZZ=            -27.8674
   XY=              0.7307   XZ=              0.0000   YZ=              0.0000

  Exact polarizability:  44.992   4.292  84.133  -0.000   0.000  27.564
 Approx polarizability:  65.320   3.364 145.226  -0.000  -0.000  39.097

                      1                      2                      3
                     A'                     A"                     A"
 Frequencies --    180.3404               227.0903               388.3333
 Red. masses --      3.7886                 2.7457                 1.1367
 Frc consts  --      0.0726                 0.0834                 0.1010
 IR Inten    --      9.3540                20.1667                 5.9055

                      4                      5                      6
                     A'                     A'                     A"
 Frequencies --    436.9126               588.6135               598.1036
 Red. masses --      2.7714                 6.2213                 1.3639
 Frc consts  --      0.3117                 1.2700                 0.2875
 IR Inten    --      2.6241                 9.3094                89.6208

                      7                      8                      9
                     A"                     A'                     A"
 Frequencies --    639.7223               737.4339               796.9404
 Red. masses --      2.6802                 1.2695                 1.3180
 Frc consts  --      0.6463                 0.4068                 0.4932
 IR Inten    --     15.1166                34.9685                18.2305

                     10                     11                     12
                     A'                     A"                     A'
 Frequencies --    839.7098               915.6693              1008.7216
 Red. masses --      3.9970                 1.4862                 1.5883
 Frc consts  --      1.6605                 0.7342                 0.9522
 IR Inten    --      8.3493                33.3228                16.1913

                     13                     14                     15
                     A'                     A'                     A'
 Frequencies --   1166.7802              1417.6284              1475.4519
 Red. masses --      1.4475                 2.4115                 3.8938
 Frc consts  --      1.1610                 2.8554                 4.9944
 IR Inten    --    150.0614               155.2420                80.0715

                     16                     17                     18
                     A'                     A'                     A'
 Frequencies --   1501.5160              2186.4482              3143.4114
 Red. masses --      1.6062                 6.0529                 1.0551
 Frc consts  --      2.1336                17.0487                 6.1425
 IR Inten    --     55.7821               438.7447                30.4557

                     19                     20                     21
                     A'                     A'                     A'
 Frequencies --   3263.7933              3400.5103              3718.5599
 Red. masses --      1.1215                 1.1648                 1.0669
 Frc consts  --      7.0385                 7.9356                 8.6923
 IR Inten    --     12.0032                81.8324               296.4912

 - Thermochemistry -
 -------------------
 Temperature   298.150 Kelvin.  Pressure   1.00000 Atm.
 Atom     1 has atomic number  8 and mass  15.99491

 Molecular mass:    68.02621 amu.
 Principal axes and moments of inertia in atomic units:
                           1         2         3
     Eigenvalues --   168.00905 436.03131 604.04036
           X            0.01096   0.99994   0.00000
           Y            0.99994  -0.01096   0.00000
           Z            0.00000  -0.00000   1.00000
 This molecule is an asymmetric top.
 Rotational symmetry number  1.
 Rotational temperatures (Kelvin)      0.51553     0.19864     0.14339
 Rotational constants (GHZ):          10.74193     4.13902     2.98778
 Zero-point vibrational energy     171255.5 (Joules/Mol)
                                   40.93106 (Kcal/Mol)
 Warning -- explicit consideration of   6 degrees of freedom as
           vibrations may cause significant error
 Vibrational temperatures:    259.47   326.73   558.72   628.62   846.88
          (Kelvin)            860.54   920.42  1061.00  1146.62  1208.15
                             1317.44  1451.32  1678.73  2039.65  2122.84
                             2160.34  3145.81  4522.66  4695.86  4892.57
                             5350.17

 Zero-point correction=                           0.065228 (Hartree/Particle)
 Thermal correction to Energy=                    0.070603
 Thermal correction to Enthalpy=                  0.071548
 Thermal correction to Gibbs Free Energy=         0.036586
 Sum of electronic and zero-point Energies=           -229.658511
 Sum of electronic and thermal Energies=              -229.653135
 Sum of electronic and thermal Enthalpies=            -229.652191
 Sum of electronic and thermal Free Energies=         -229.687153

                     E (Thermal)             CV                S
                      KCal/Mol        Cal/Mol-Kelvin    Cal/Mol-Kelvin
 Total                   44.304             18.892             73.584
 Electronic               0.000              0.000              1.377
 Translational            0.889              2.981             38.570
 Rotational               0.889              2.981             25.296
 Vibrational             42.527             12.930              8.341
 Vibration     1          0.629              1.866              2.325
 Vibration     2          0.651              1.800              1.902
 Vibration     3          0.757              1.495              1.007
 Vibration     4          0.797              1.390              0.836
 Vibration     5          0.946              1.056              0.470
 Vibration     6          0.956              1.036              0.453

 Optimization completed.
    -- Stationary point found.
 Normal termination of Gaussian 09 at Fri Mar  1 08:31:24 2019.
