 Gaussian 09, Revision E.01,
 Gaussian 09:  EM64L-G09RevE.01 30-Nov-2015

 ------------------------------------------------------
 #p b3lyp/6-311++G(3df,2p) freq IOp(2/17=3) IOp(2/18=3)
 ------------------------------------------------------

 ---------
 b3lyp opt
 ---------
 Symbolic Z-matrix:
 Charge =  0 Multiplicity = 1

                         Standard orientation:
 ---------------------------------------------------------------------
 Center     Atomic      Atomic             Coordinates (Angstroms)
 Number     Number       Type             X           Y           Z
 ---------------------------------------------------------------------
      1          6           0       -1.011045   -0.272146    0.000000
      2          6           0        2.525186   -0.479787    0.000000
      3          8           0       -2.285207    0.176659   -0.000000
      4          6           0        1.400157   -0.052947    0.000000
      5          6           0        0.092636    0.486905   -0.000000
      6          1           0       -0.971908   -1.352470    0.000000
      7          1           0       -2.302880    1.140500   -0.000000
      8          1           0        3.514848   -0.862952    0.000000
      9          1           0       -0.000000    1.569499   -0.000000
 ---------------------------------------------------------------------

 SCF Done:  E(RB3LYP) =  -230.049873008     A.U. after   12 cycles

 The electronic state is 1-A'.
 Alpha  occ. eigenvalues --  -19.18060 -10.25167 -10.19332 -10.17886 -10.16469
 Alpha  occ. eigenvalues --   -1.08914  -0.80968  -0.73504  -0.65587  -0.56171
 Alpha  occ. eigenvalues --   -0.52894  -0.50695  -0.43142  -0.42305  -0.39899
 Alpha  occ. eigenvalues --   -0.32985  -0.28434  -0.23272
 Alpha virt. eigenvalues --   -0.02807  -0.01871   0.00593   0.01247   0.02394
 Alpha virt. eigenvalues --    0.03354   0.05122   0.06842   0.06865   0.07546
 Alpha virt. eigenvalues --    0.08087   0.10087   0.10634   0.11589   0.12213

 Mulliken charges:
               1
     1  C    0.049721
     2  C   -0.123179
     3  O   -0.549723
     4  C   -0.199115
     5  C   -0.038802
     6  H    0.187621
     7  H    0.261902
     8  H    0.286523
     9  H    0.125052
 Sum of Mulliken charges =  -0.00000

 Dipole moment (field-independent basis, Debye):
    X=             -0.5990    Y=              1.0596    Z=              0.0000  Tot=              1.2172
 Quadrupole moment (field-independent basis, Debye-Ang):
   XX=            -28.3396   YY=            -25.4358   ZZ=            -32.3287
   XY=             -4.4279   XZ=              0.0000   YZ=              0.0000

  Exact polarizability:  91.237  -6.232  45.370   0.000   0.000  35.281
 Approx polarizability: 147.887  -8.261  67.394   0.000  -0.000  49.260

                      1                      2                      3
                     A'                     A"                     A'
 Frequencies --    174.1876               186.2978               437.3451
 Red. masses --      4.1688                 3.1730                 3.7776
 Frc consts  --      0.0745                 0.0649                 0.4257
 IR Inten    --      3.0059                 8.0166                18.3000

                      4                      5                      6
                     A"                     A"                     A'
 Frequencies --    457.1666               503.7094               548.1500
 Red. masses --      1.5427                 2.9190                 6.2126
 Frc consts  --      0.1900                 0.4364                 1.0998
 IR Inten    --     31.1314                49.7898                 2.9179

                      7                      8                      9
                     A"                     A'                     A"
 Frequencies --    596.8815               697.2590               833.8556
 Red. masses --      1.2558                 1.2678                 1.7269
 Frc consts  --      0.2636                 0.3632                 0.7075
 IR Inten    --     56.4190                41.5528                19.7710

                     10                     11                     12
                     A"                     A'                     A'
 Frequencies --    968.9705              1038.5117              1142.9599
 Red. masses --      1.1813                 3.2867                 2.2159
 Frc consts  --      0.6535                 2.0885                 1.7055
 IR Inten    --     50.1015                17.7385               254.8908

                     13                     14                     15
                     A'                     A'                     A'
 Frequencies --   1251.7123              1335.3872              1388.3588
 Red. masses --      1.7729                 1.3138                 1.3261
 Frc consts  --      1.6366                 1.3804                 1.5060
 IR Inten    --     47.0735                30.9196                11.0784

                     16                     17                     18
                     A'                     A'                     A'
 Frequencies --   1683.6726              2195.9178              3118.3234
 Red. masses --      5.0024                 6.1824                 1.0875
 Frc consts  --      8.3550                17.5646                 6.2304
 IR Inten    --    209.1657                35.6034                19.6095

                     19                     20                     21
                     A'                     A'                     A'
 Frequencies --   3201.7484              3465.1036              3802.9511
 Red. masses --      1.0927                 1.1562                 1.0653
 Frc consts  --      6.5995                 8.1791                 9.0778
 IR Inten    --      3.3501                90.2811                62.7199

 - Thermochemistry -
 -------------------
 Temperature   298.150 Kelvin.  Pressure   1.00000 Atm.
 Atom     1 has atomic number  6 and mass  12.00000

 Molecular mass:    68.02621 amu.
 Principal axes and moments of inertia in atomic units:
                           1         2         3
     Eigenvalues --    39.08539 775.47943 814.56482
           X            0.99400   0.10939   0.00000
           Y           -0.10939   0.99400   0.00000
           Z            0.00000  -0.00000   1.00000
 This molecule is an asymmetric top.
 Rotational symmetry number  1.
 Rotational temperatures (Kelvin)      2.21601     0.11169     0.10633
 Rotational constants (GHZ):          46.17431     2.32726     2.21559
 Zero-point vibrational energy     173628.8 (Joules/Mol)
                                   41.49828 (Kcal/Mol)
 Warning -- explicit consideration of   7 degrees of freedom as
           vibrations may cause significant error
 Vibrational temperatures:    250.62   268.04   629.24   657.76   724.72
          (Kelvin)            788.66   858.78  1003.20  1199.73  1394.13
                             1494.18  1644.46  1800.93  1921.32  1997.54
                             2422.43  3159.43  4486.57  4606.60  4985.50
                             5471.59

 Zero-point correction=                           0.066132 (Hartree/Particle)
 Thermal correction to Energy=                    0.071566
 Thermal correction to Enthalpy=                  0.072511
 Thermal correction to Gibbs Free Energy=         0.038295
 Sum of electronic and zero-point Energies=           -229.983741
 Sum of electronic and thermal Energies=              -229.978307
 Sum of electronic and thermal Enthalpies=            -229.977362
 Sum of electronic and thermal Free Energies=         -230.011578

                     E (Thermal)             CV                S
                      KCal/Mol        Cal/Mol-Kelvin    Cal/Mol-Kelvin
 Total                   44.909             18.738             72.012
 Electronic               0.000              0.000              0.000
 Translational            0.889              2.981             38.570
 Rotational               0.889              2.981             24.716
 Vibrational             43.131             12.776              8.726
 Vibration     1          0.627              1.874              2.390
 Vibration     2          0.632              1.859              2.264
 Vibration     3          0.798              1.389              0.835
 Vibration     4          0.815              1.345              0.774
 Vibration     5          0.859              1.242              0.649
 Vibration     6          0.903              1.144              0.548
 Vibration     7          0.955              1.038              0.455

 Optimization completed.
    -- Stationary point found.
 Normal termination of Gaussian 09 at Fri Mar  1 07:38:17 2019.
