 Gaussian 09, Revision E.01,
 Gaussian 09:  EM64L-G09RevE.01 30-Nov-2015

 ------------------------------------------------------
 #p b3lyp/6-311++G(3df,2p) freq IOp(2/17=3) IOp(2/18=3)
 ------------------------------------------------------

 ---------
 b3lyp opt
 ---------
 Symbolic Z-matrix:
 Charge =  0 Multiplicity = 1

                         Standard orientation:
 ---------------------------------------------------------------------
 Center     Atomic      Atomic             Coordinates (Angstroms)
 Number     Number       Type             X           Y           Z
 ---------------------------------------------------------------------
      1          6           0        0.447617    1.244792    0.638523
      2          6           0       -0.578441   -1.053203    0.000000
      3          8           0        0.447617   -1.687610    0.000000
      4          6           0       -0.663219    0.433899    0.000000
      5          6           0        0.447617    1.244792   -0.638523
      6          1           0        0.868529    1.514871    1.588267
      7          1           0       -1.679724    0.823278    0.000000
      8          1           0       -1.559713   -1.573822    0.000000
      9          1           0        0.868529    1.514871   -1.588267
 ---------------------------------------------------------------------

 SCF Done:  E(RB3LYP) =  -230.027840652     A.U. after   12 cycles

 The electronic state is 1-A'.
 Alpha  occ. eigenvalues --  -19.11987 -10.25586 -10.21339 -10.21212 -10.20921
 Alpha  occ. eigenvalues --   -1.04962  -0.90207  -0.68904  -0.59207  -0.56684
 Alpha  occ. eigenvalues --   -0.51643  -0.50084  -0.43588  -0.40606  -0.38424
 Alpha  occ. eigenvalues --   -0.31223  -0.29990  -0.25685
 Alpha virt. eigenvalues --   -0.04506  -0.02264  -0.00456   0.00728   0.01379
 Alpha virt. eigenvalues --    0.02623   0.04968   0.06317   0.06825   0.07637
 Alpha virt. eigenvalues --    0.09486   0.10231   0.11126   0.11207   0.11679

 Mulliken charges:
               1
     1  C   -0.107602
     2  C    0.094421
     3  O   -0.635940
     4  C   -0.009905
     5  C   -0.107602
     6  H    0.257336
     7  H    0.142737
     8  H    0.109218
     9  H    0.257336
 Sum of Mulliken charges =  -0.00000

 Dipole moment (field-independent basis, Debye):
    X=             -1.2634    Y=              2.6052    Z=             -0.0000  Tot=              2.8954
 Quadrupole moment (field-independent basis, Debye-Ang):
   XX=            -28.8313   YY=            -32.8123   ZZ=            -26.0214
   XY=              4.0213   XZ=              0.0000   YZ=             -0.0000

  Exact polarizability:  49.585   5.007  53.494   0.000  -0.000  43.031
 Approx polarizability:  73.569   2.454  71.878  -0.000   0.000  71.772

                      1                      2                      3
                     A"                     A'                     A"
 Frequencies --     97.2416               245.6661               316.0943
 Red. masses --      2.5148                 5.4513                 2.2635
 Frc consts  --      0.0140                 0.1938                 0.1332
 IR Inten    --      8.1887                11.8753                 4.1727

                      4                      5                      6
                     A'                     A'                     A"
 Frequencies --    620.3564               765.6570               766.2601
 Red. masses --      1.2424                 3.6602                 3.8419
 Frc consts  --      0.2817                 1.2642                 1.3291
 IR Inten    --     59.2944                52.2500                 0.7977

                      7                      8                      9
                     A"                     A'                     A'
 Frequencies --    841.4522               875.7928               974.5092
 Red. masses --      1.4650                 2.9107                 1.2991
 Frc consts  --      0.6112                 1.3154                 0.7269
 IR Inten    --      0.9882                 1.8853                12.4373

                     10                     11                     12
                     A"                     A"                     A"
 Frequencies --   1000.4952              1019.3997              1075.2006
 Red. masses --      1.3195                 1.5083                 1.5262
 Frc consts  --      0.7782                 0.9235                 1.0395
 IR Inten    --     33.6148                 3.3722                 5.6980

                     13                     14                     15
                     A'                     A'                     A'
 Frequencies --   1111.5782              1358.5714              1414.1571
 Red. masses --      4.9850                 1.2606                 1.2136
 Frc consts  --      3.6290                 1.3708                 1.4299
 IR Inten    --     79.8438                18.3964                 5.6647

                     16                     17                     18
                     A'                     A'                     A'
 Frequencies --   1757.7313              1792.5779              2861.1568
 Red. masses --      5.0013                 9.5416                 1.0823
 Frc consts  --      9.1042                18.0645                 5.2200
 IR Inten    --     38.3476               151.6696               148.0844

                     19                     20                     21
                     A'                     A"                     A'
 Frequencies --   3072.4561              3263.7527              3313.8643
 Red. masses --      1.0861                 1.0845                 1.1526
 Frc consts  --      6.0407                 6.8064                 7.4576
 IR Inten    --     53.7493                 6.5439                 3.0153

 - Thermochemistry -
 -------------------
 Temperature   298.150 Kelvin.  Pressure   1.00000 Atm.
 Atom     1 has atomic number  6 and mass  12.00000

 Molecular mass:    68.02621 amu.
 Principal axes and moments of inertia in atomic units:
                           1         2         3
     Eigenvalues --   135.69435 435.21934 464.71206
           X            0.10707   0.99425   0.00000
           Y            0.99425  -0.10707   0.00000
           Z           -0.00000  -0.00000   1.00000
 This molecule is an asymmetric top.
 Rotational symmetry number  1.
 Rotational temperatures (Kelvin)      0.63830     0.19901     0.18638
 Rotational constants (GHZ):          13.30005     4.14674     3.88357
 Zero-point vibrational energy     170730.9 (Joules/Mol)
                                   40.80565 (Kcal/Mol)
 Warning -- explicit consideration of   4 degrees of freedom as
           vibrations may cause significant error
 Vibrational temperatures:    139.91   353.46   454.79   892.55  1101.61
          (Kelvin)           1102.48  1210.66  1260.07  1402.10  1439.49
                             1466.69  1546.97  1599.31  1954.68  2034.65
                             2528.98  2579.12  4116.56  4420.57  4695.81
                             4767.91

 Zero-point correction=                           0.065028 (Hartree/Particle)
 Thermal correction to Energy=                    0.070128
 Thermal correction to Enthalpy=                  0.071073
 Thermal correction to Gibbs Free Energy=         0.037021
 Sum of electronic and zero-point Energies=           -229.962813
 Sum of electronic and thermal Energies=              -229.957712
 Sum of electronic and thermal Enthalpies=            -229.956768
 Sum of electronic and thermal Free Energies=         -229.990820

                     E (Thermal)             CV                S
                      KCal/Mol        Cal/Mol-Kelvin    Cal/Mol-Kelvin
 Total                   44.006             16.840             71.668
 Electronic               0.000              0.000              0.000
 Translational            0.889              2.981             38.570
 Rotational               0.889              2.981             24.821
 Vibrational             42.229             10.879              8.278
 Vibration     1          0.603              1.951              3.509
 Vibration     2          0.660              1.770              1.761
 Vibration     3          0.703              1.643              1.330
 Vibration     4          0.980              0.989              0.416

 Optimization completed.
    -- Stationary point found.
 Normal termination of Gaussian 09 at Fri Mar  1 07:38:02 2019.
