 Gaussian 09, Revision E.01,
 Gaussian 09:  EM64L-G09RevE.01 30-Nov-2015

 ------------------------------------------------------
 #p b3lyp/6-311++G(3df,2p) freq IOp(2/17=3) IOp(2/18=3)
 ------------------------------------------------------

 ---------
 b3lyp opt
 ---------
 Symbolic Z-matrix:
 Charge =  1 Multiplicity = 2

                         Standard orientation:
 ---------------------------------------------------------------------
 Center     Atomic      Atomic             Coordinates (Angstroms)
 Number     Number       Type             X           Y           Z
 ---------------------------------------------------------------------
      1          6           0        0.486416   -1.057156   -0.000000
      2          6           0       -1.266660    1.479586    0.000000
      3          8           0       -0.224263   -1.924076    0.000000
      4          6           0        0.000000    1.234551    0.000000
      5          6           0        1.107744    0.264785   -0.000000
      6          1           0        1.748500    0.330969   -0.888378
      7          1           0       -2.029888    0.698667    0.000000
      8          1           0       -1.637698    2.501734    0.000000
      9          1           0        1.748500    0.330969    0.888378
 ---------------------------------------------------------------------

 SCF Done:  E(UB3LYP) =  -229.718191369     A.U. after   16 cycles

 The electronic state is 2-A'.
 Alpha  occ. eigenvalues --  -19.49277 -10.59330 -10.48983 -10.43929 -10.38766
 Alpha  occ. eigenvalues --   -1.43031  -1.09073  -0.97386  -0.83677  -0.79180
 Alpha  occ. eigenvalues --   -0.77040  -0.75958  -0.72610  -0.68635  -0.67798
 Alpha  occ. eigenvalues --   -0.64390  -0.50008  -0.45133
 Alpha virt. eigenvalues --   -0.29617  -0.29527  -0.20757  -0.18950  -0.12728
 Alpha virt. eigenvalues --   -0.12090  -0.11787  -0.10639  -0.09642  -0.08056
 Alpha virt. eigenvalues --   -0.07249  -0.05802  -0.05751  -0.05152  -0.02774

  Beta  occ. eigenvalues --  -19.49072 -10.59016 -10.49001 -10.42605 -10.38896
  Beta  occ. eigenvalues --   -1.42649  -1.08058  -0.96337  -0.82576  -0.78077
  Beta  occ. eigenvalues --   -0.76315  -0.75680  -0.71355  -0.68364  -0.66862
  Beta  occ. eigenvalues --   -0.62921  -0.49317
  Beta virt. eigenvalues --   -0.33328  -0.28997  -0.25254  -0.20030  -0.18870
  Beta virt. eigenvalues --   -0.12634  -0.12052  -0.11705  -0.10038  -0.09485
  Beta virt. eigenvalues --   -0.07877  -0.07171  -0.05793  -0.05514  -0.04948

 Mulliken charges and spin densities:
               1          2
     1  C    0.597129   0.163231
     2  C   -0.325356  -0.207267
     3  O   -0.361824   0.057262
     4  C    0.285005   0.874944
     5  C   -0.084863  -0.015054
     6  H    0.245045   0.008955
     7  H    0.182716   0.068903
     8  H    0.217103   0.040071
     9  H    0.245045   0.008955
 Sum of Mulliken charges =   1.00000   1.00000

 Dipole moment (field-independent basis, Debye):
    X=              1.8893    Y=              0.2039    Z=             -0.0000  Tot=              1.9003
 Quadrupole moment (field-independent basis, Debye-Ang):
   XX=            -16.7090   YY=            -19.8063   ZZ=            -26.2469
   XY=             -3.7179   XZ=             -0.0000   YZ=             -0.0000

  Exact polarizability:  53.664 -11.404  67.891   0.000  -0.000  30.247
 Approx polarizability:  85.223  -9.249 109.220  -0.000  -0.000  43.755

                      1                      2                      3
                     A'                     A"                     A'
 Frequencies --    126.2444               151.3500               268.4522
 Red. masses --      4.8341                 1.7967                 4.3501
 Frc consts  --      0.0454                 0.0242                 0.1847
 IR Inten    --      1.0118                10.7281                57.8414

                      4                      5                      6
                     A"                     A"                     A'
 Frequencies --    357.8241               400.8309               525.6045
 Red. masses --      2.2378                 1.5341                 5.0086
 Frc consts  --      0.1688                 0.1452                 0.8152
 IR Inten    --      0.2254                14.2950                 2.0316

                      7                      8                      9
                     A'                     A'                     A"
 Frequencies --    785.1421               888.1009               918.9945
 Red. masses --      6.1922                 4.8497                 1.9003
 Frc consts  --      2.2490                 2.2537                 0.9456
 IR Inten    --     14.2360                 3.5194                 6.2480

                     10                     11                     12
                     A'                     A"                     A"
 Frequencies --    920.9370               943.9882              1224.9744
 Red. masses --      1.5729                 1.3065                 1.1116
 Frc consts  --      0.7860                 0.6859                 0.9828
 IR Inten    --      6.2397                38.4276                 1.1464

                     13                     14                     15
                     A'                     A'                     A'
 Frequencies --   1256.8854              1386.8202              1391.7331
 Red. masses --      1.2201                 1.1014                 1.0658
 Frc consts  --      1.1357                 1.2480                 1.2163
 IR Inten    --      3.5524                 1.0226                66.9597

                     16                     17                     18
                     A'                     A'                     A'
 Frequencies --   1792.8284              2266.8393              3000.3655
 Red. masses --      8.6522                12.8380                 1.0565
 Frc consts  --     16.3853                38.8677                 5.6036
 IR Inten    --     43.4745               462.2048                45.3053

                     19                     20                     21
                     A"                     A'                     A'
 Frequencies --   3037.0672              3049.3916              3139.7133
 Red. masses --      1.1032                 1.0656                 1.1038
 Frc consts  --      5.9955                 5.8381                 6.4112
 IR Inten    --     41.3528                24.6043                32.8182

 - Thermochemistry -
 -------------------
 Temperature   298.150 Kelvin.  Pressure   1.00000 Atm.
 Atom     1 has atomic number  6 and mass  12.00000

 Molecular mass:    68.02621 amu.
 Principal axes and moments of inertia in atomic units:
                           1         2         3
     Eigenvalues --   163.83074 474.15013 626.61930
           X           -0.27039   0.96275   0.00000
           Y            0.96275   0.27039   0.00000
           Z           -0.00000   0.00000   1.00000
 This molecule is an asymmetric top.
 Rotational symmetry number  1.
 Rotational temperatures (Kelvin)      0.52868     0.18267     0.13822
 Rotational constants (GHZ):          11.01589     3.80627     2.88012
 Zero-point vibrational energy     166484.8 (Joules/Mol)
                                   39.79082 (Kcal/Mol)
 Warning -- explicit consideration of   6 degrees of freedom as
           vibrations may cause significant error
 Vibrational temperatures:    181.64   217.76   386.24   514.83   576.71
          (Kelvin)            756.23  1129.64  1277.78  1322.23  1325.02
                             1358.19  1762.46  1808.38  1995.32  2002.39
                             2579.48  3261.47  4316.85  4369.66  4387.39
                             4517.34

 Zero-point correction=                           0.063411 (Hartree/Particle)
 Thermal correction to Energy=                    0.069229
 Thermal correction to Enthalpy=                  0.070173
 Thermal correction to Gibbs Free Energy=         0.033995
 Sum of electronic and zero-point Energies=           -229.654781
 Sum of electronic and thermal Energies=              -229.648963
 Sum of electronic and thermal Enthalpies=            -229.648018
 Sum of electronic and thermal Free Energies=         -229.684196

                     E (Thermal)             CV                S
                      KCal/Mol        Cal/Mol-Kelvin    Cal/Mol-Kelvin
 Total                   43.442             18.933             76.142
 Electronic               0.000              0.000              1.377
 Translational            0.889              2.981             38.570
 Rotational               0.889              2.981             25.390
 Vibrational             41.664             12.972             10.805
 Vibration     1          0.611              1.927              3.002
 Vibration     2          0.619              1.901              2.655
 Vibration     3          0.673              1.731              1.606
 Vibration     4          0.733              1.559              1.132
 Vibration     5          0.767              1.468              0.960
 Vibration     6          0.881              1.193              0.597

 Normal termination of Gaussian 09 at Fri Mar  1 08:02:24 2019.
