 Gaussian 09, Revision E.01,
 Gaussian 09:  EM64L-G09RevE.01 30-Nov-2015

 ------------------------------------------------------
 #p b3lyp/6-311++G(3df,2p) freq IOp(2/17=3) IOp(2/18=3)
 ------------------------------------------------------

 ---------
 b3lyp opt
 ---------
 Symbolic Z-matrix:
 Charge =  0 Multiplicity = 1

                         Standard orientation:
 ---------------------------------------------------------------------
 Center     Atomic      Atomic             Coordinates (Angstroms)
 Number     Number       Type             X           Y           Z
 ---------------------------------------------------------------------
      1          8           0        2.352483   -0.493065    0.000064
      2          6           0       -2.530521   -0.124830   -0.000095
      3          6           0       -1.091419    0.056901   -0.000320
      4          6           0        0.106791    0.181299   -0.000267
      5          6           0        1.529308    0.392297    0.000052
      6          1           0       -2.848136   -0.649099    0.903006
      7          1           0       -2.840386   -0.725070   -0.857289
      8          1           0       -3.053434    0.831109   -0.042897
      9          1           0        1.837135    1.453583    0.000449
 ---------------------------------------------------------------------

 SCF Done:  E(RB3LYP) =  -230.063354983     A.U. after   13 cycles

 The electronic state is 1-A.
 Alpha  occ. eigenvalues --  -19.13323 -10.28260 -10.21328 -10.21010 -10.18644
 Alpha  occ. eigenvalues --   -1.06096  -0.81544  -0.74977  -0.66120  -0.52978
 Alpha  occ. eigenvalues --   -0.48991  -0.46199  -0.45937  -0.45527  -0.41506
 Alpha  occ. eigenvalues --   -0.29961  -0.29696  -0.28003
 Alpha virt. eigenvalues --   -0.07617  -0.01760   0.00329   0.01250   0.02537
 Alpha virt. eigenvalues --    0.03709   0.04471   0.05774   0.05904   0.08083
 Alpha virt. eigenvalues --    0.08219   0.08642   0.10049   0.10471   0.11661

 Mulliken charges:
               1
     1  O   -0.580875
     2  C   -0.507668
     3  C    0.190305
     4  C    0.265189
     5  C    0.008172
     6  H    0.162933
     7  H    0.163200
     8  H    0.156830
     9  H    0.141914
 Sum of Mulliken charges =  -0.00000

 Dipole moment (field-independent basis, Debye):
    X=             -3.8108    Y=              1.5093    Z=              0.0031  Tot=              4.0988
 Quadrupole moment (field-independent basis, Debye-Ang):
   XX=            -28.8612   YY=            -29.4525   ZZ=            -29.0835
   XY=              4.5604   XZ=             -0.0082   YZ=              0.0002

  Exact polarizability:  85.642   0.784  42.280  -0.021   0.001  34.764
 Approx polarizability: 132.853  -3.268  61.726  -0.051   0.002  49.375

                      1                      2                      3
                      A                      A                      A
 Frequencies --      9.1936               131.9948               167.7887
 Red. masses --      1.2281                 4.7639                 3.0643
 Frc consts  --      0.0001                 0.0489                 0.0508
 IR Inten    --      3.8975                 4.8441                 9.5794

                      4                      5                      6
                      A                      A                      A
 Frequencies --    340.9003               399.6023               565.8830
 Red. masses --      4.3389                 4.1621                 6.7163
 Frc consts  --      0.2971                 0.3916                 1.2672
 IR Inten    --      6.1283                 0.1729                 1.2610

                      7                      8                      9
                      A                      A                      A
 Frequencies --    819.5891              1011.8427              1043.9255
 Red. masses --      5.3012                 1.7527                 1.4393
 Frc consts  --      2.0981                 1.0573                 0.9241
 IR Inten    --     67.7861                 0.1167                 1.7959

                     10                     11                     12
                      A                      A                      A
 Frequencies --   1055.6722              1161.5374              1413.4978
 Red. masses --      1.4045                 5.0216                 1.2490
 Frc consts  --      0.9222                 3.9917                 1.4703
 IR Inten    --      1.1312                55.9514                 1.7169

                     13                     14                     15
                      A                      A                      A
 Frequencies --   1418.8400              1471.7265              1475.0434
 Red. masses --      1.1894                 1.0405                 1.0394
 Frc consts  --      1.4108                 1.3278                 1.3324
 IR Inten    --     10.1462                10.3713                 9.0909

                     16                     17                     18
                      A                      A                      A
 Frequencies --   1743.8520              2318.2746              2921.9166
 Red. masses --     10.5120                11.8884                 1.0820
 Frc consts  --     18.8345                37.6447                 5.4425
 IR Inten    --    295.4875               178.1570                79.1109

                     19                     20                     21
                      A                      A                      A
 Frequencies --   3025.9391              3083.0709              3089.9476
 Red. masses --      1.0340                 1.0999                 1.1015
 Frc consts  --      5.5783                 6.1599                 6.1966
 IR Inten    --      8.3164                 2.1770                 4.6096

 - Thermochemistry -
 -------------------
 Temperature   298.150 Kelvin.  Pressure   1.00000 Atm.
 Atom     1 has atomic number  8 and mass  15.99491

 Molecular mass:    68.02621 amu.
 Principal axes and moments of inertia in atomic units:
                           1         2         3
     Eigenvalues --    41.49720 849.57920 879.90359
           X            0.99985   0.01729  -0.00002
           Y           -0.01729   0.99985   0.00005
           Z            0.00002  -0.00005   1.00000
 This molecule is an asymmetric top.
 Rotational symmetry number  1.
 Rotational temperatures (Kelvin)      2.08722     0.10195     0.09844
 Rotational constants (GHZ):          43.49067     2.12428     2.05107
 Zero-point vibrational energy     171484.9 (Joules/Mol)
                                   40.98588 (Kcal/Mol)
 Warning -- explicit consideration of   6 degrees of freedom as
           vibrations may cause significant error
 Vibrational temperatures:     13.23   189.91   241.41   490.48   574.94
          (Kelvin)            814.18  1179.20  1455.81  1501.97  1518.87
                             1671.19  2033.71  2041.39  2117.48  2122.26
                             2509.01  3335.48  4203.98  4353.65  4435.85
                             4445.74

 Zero-point correction=                           0.065315 (Hartree/Particle)
 Thermal correction to Energy=                    0.071435
 Thermal correction to Enthalpy=                  0.072380
 Thermal correction to Gibbs Free Energy=         0.034227
 Sum of electronic and zero-point Energies=           -229.998040
 Sum of electronic and thermal Energies=              -229.991920
 Sum of electronic and thermal Enthalpies=            -229.990975
 Sum of electronic and thermal Free Energies=         -230.029128

                     E (Thermal)             CV                S
                      KCal/Mol        Cal/Mol-Kelvin    Cal/Mol-Kelvin
 Total                   44.826             18.188             80.299
 Electronic               0.000              0.000              0.000
 Translational            0.889              2.981             38.570
 Rotational               0.889              2.981             24.943
 Vibrational             43.049             12.227             16.786
 Vibration     1          0.593              1.987              8.178
 Vibration     2          0.612              1.921              2.917
 Vibration     3          0.625              1.882              2.460
 Vibration     4          0.720              1.594              1.208
 Vibration     5          0.766              1.471              0.964
 Vibration     6          0.922              1.105              0.512

 Normal termination of Gaussian 09 at Fri Mar  1 08:00:02 2019.
