 Gaussian 09, Revision E.01,
 Gaussian 09:  EM64L-G09RevE.01 30-Nov-2015

 ------------------------------------------------------
 #p b3lyp/6-311++G(3df,2p) freq IOp(2/17=3) IOp(2/18=3)
 ------------------------------------------------------

 ---------
 b3lyp opt
 ---------
 Symbolic Z-matrix:
 Charge =  1 Multiplicity = 2

                         Standard orientation:
 ---------------------------------------------------------------------
 Center     Atomic      Atomic             Coordinates (Angstroms)
 Number     Number       Type             X           Y           Z
 ---------------------------------------------------------------------
      1          6           0        0.000000    1.078808    0.368222
      2          6           0       -0.000000   -1.078808    0.368222
      3          8           0        0.000000    0.000000    1.171315
      4          6           0        0.000000   -0.688584   -0.986516
      5          6           0        0.000000    0.688584   -0.986516
      6          1           0        0.000000    2.042961    0.854362
      7          1           0       -0.000000   -2.042961    0.854362
      8          1           0        0.000000   -1.359767   -1.829862
      9          1           0        0.000000    1.359767   -1.829862
 ---------------------------------------------------------------------

 SCF Done:  E(UB3LYP) =  -229.783956721     A.U. after   12 cycles

 The electronic state is 2-A2.
 Alpha  occ. eigenvalues --  -19.45441 -10.51877 -10.51873 -10.43694 -10.43637
 Alpha  occ. eigenvalues --   -1.39092  -1.07101  -1.01854  -0.85959  -0.83445
 Alpha  occ. eigenvalues --   -0.79678  -0.72770  -0.70426  -0.66294  -0.65539
 Alpha  occ. eigenvalues --   -0.63219  -0.54602  -0.51337
 Alpha virt. eigenvalues --   -0.27626  -0.19835  -0.15494  -0.13156  -0.12685
 Alpha virt. eigenvalues --   -0.12017  -0.10793  -0.10547  -0.10379  -0.06395
 Alpha virt. eigenvalues --   -0.06012  -0.05380  -0.04983  -0.02200  -0.02163

  Beta  occ. eigenvalues --  -19.45600 -10.51082 -10.51080 -10.43617 -10.43558
  Beta  occ. eigenvalues --   -1.38805  -1.06498  -0.99822  -0.85356  -0.82239
  Beta  occ. eigenvalues --   -0.79467  -0.70707  -0.69977  -0.66266  -0.65019
  Beta  occ. eigenvalues --   -0.63007  -0.53698
  Beta virt. eigenvalues --   -0.40356  -0.23426  -0.17421  -0.15392  -0.12578
  Beta virt. eigenvalues --   -0.12541  -0.11966  -0.10602  -0.10415  -0.10016
  Beta virt. eigenvalues --   -0.06047  -0.05508  -0.05245  -0.04730  -0.02012

 Mulliken charges and spin densities:
               1          2
     1  C    0.160230   0.500113
     2  C    0.160230   0.500113
     3  O   -0.476776  -0.066785
     4  C    0.057068   0.050386
     5  C    0.057068   0.050386
     6  H    0.273053  -0.012358
     7  H    0.273053  -0.012358
     8  H    0.248037  -0.004749
     9  H    0.248037  -0.004749
 Sum of Mulliken charges =   1.00000   1.00000

 Dipole moment (field-independent basis, Debye):
    X=             -0.0000    Y=             -0.0000    Z=             -1.1201  Tot=              1.1201
 Quadrupole moment (field-independent basis, Debye-Ang):
   XX=            -27.6079   YY=            -13.6685   ZZ=            -20.6311
   XY=              0.0000   XZ=             -0.0000   YZ=             -0.0000

  Exact polarizability:  25.932   0.000  53.576  -0.000  -0.000  43.778
 Approx polarizability:  38.552   0.000  86.895  -0.000  -0.000  69.986

                      1                      2                      3
                     A2                     B1                     B1
 Frequencies --    485.0707               499.9262               768.2119
 Red. masses --      2.1919                 2.3827                 1.2260
 Frc consts  --      0.3039                 0.3509                 0.4263
 IR Inten    --      0.0000                30.3706                57.0297

                      4                      5                      6
                     B2                     A2                     A1
 Frequencies --    788.2843               859.0311               883.5597
 Red. masses --      8.5446                 1.4791                 5.5116
 Frc consts  --      3.1283                 0.6431                 2.5351
 IR Inten    --     23.1500                 0.0000                23.8043

                      7                      8                      9
                     B1                     A2                     B2
 Frequencies --    910.5266               971.6368              1008.5636
 Red. masses --      1.5704                 1.3869                 3.5256
 Frc consts  --      0.7671                 0.7714                 2.1130
 IR Inten    --      1.4934                 0.0000                 3.5459

                     10                     11                     12
                     B2                     A1                     A1
 Frequencies --   1036.9873              1066.6918              1117.6214
 Red. masses --      2.1526                 1.4983                 1.4876
 Frc consts  --      1.3639                 1.0045                 1.0948
 IR Inten    --      6.6493                48.9820                14.1311

                     13                     14                     15
                     A1                     B2                     B2
 Frequencies --   1168.8654              1306.3819              1408.8482
 Red. masses --      3.6800                 1.2193                 2.1298
 Frc consts  --      2.9623                 1.2260                 2.4907
 IR Inten    --      1.6022                 0.5232               140.1492

                     16                     17                     18
                     A1                     A1                     B2
 Frequencies --   1447.1059              1517.2950              3239.4696
 Red. masses --      3.3950                 2.9818                 1.0922
 Frc consts  --      4.1888                 4.0445                 6.7529
 IR Inten    --     53.9939                 4.5287                 8.2744

                     19                     20                     21
                     A1                     B2                     A1
 Frequencies --   3247.5523              3250.8031              3262.1091
 Red. masses --      1.1000                 1.0982                 1.1103
 Frc consts  --      6.8351                 6.8375                 6.9612
 IR Inten    --     38.6423                54.1347                10.2577

 - Thermochemistry -
 -------------------
 Temperature   298.150 Kelvin.  Pressure   1.00000 Atm.
 Atom     1 has atomic number  6 and mass  12.00000

 Molecular mass:    68.02621 amu.
 Principal axes and moments of inertia in atomic units:
                           1         2         3
     Eigenvalues --   183.73471 202.55671 386.29142
           X            0.00000  -0.00000   1.00000
           Y            0.00000   1.00000  -0.00000
           Z            1.00000  -0.00000  -0.00000
 This molecule is an asymmetric top.
 Rotational symmetry number  2.
 Rotational temperatures (Kelvin)      0.47141     0.42760     0.22422
 Rotational constants (GHZ):           9.82254     8.90981     4.67197
 Zero-point vibrational energy     180902.5 (Joules/Mol)
                                   43.23674 (Kcal/Mol)
 Warning -- explicit consideration of   2 degrees of freedom as
           vibrations may cause significant error
 Vibrational temperatures:    697.91   719.28  1105.28  1134.16  1235.95
          (Kelvin)           1271.24  1310.04  1397.97  1451.10  1491.99
                             1534.73  1608.01  1681.73  1879.59  2027.02
                             2082.06  2183.05  4660.87  4672.50  4677.17
                             4693.44

 Zero-point correction=                           0.068902 (Hartree/Particle)
 Thermal correction to Energy=                    0.072745
 Thermal correction to Enthalpy=                  0.073689
 Thermal correction to Gibbs Free Energy=         0.042556
 Sum of electronic and zero-point Energies=           -229.715055
 Sum of electronic and thermal Energies=              -229.711212
 Sum of electronic and thermal Enthalpies=            -229.710268
 Sum of electronic and thermal Free Energies=         -229.741400

                     E (Thermal)             CV                S
                      KCal/Mol        Cal/Mol-Kelvin    Cal/Mol-Kelvin
 Total                   45.648             13.762             65.524
 Electronic               0.000              0.000              1.377
 Translational            0.889              2.981             38.570
 Rotational               0.889              2.981             22.801
 Vibrational             43.870              7.800              2.776
 Vibration     1          0.841              1.283              0.697
 Vibration     2          0.855              1.250              0.658

 Normal termination of Gaussian 09 at Fri Mar  1 08:14:13 2019.
