 Gaussian 09, Revision E.01,
 Gaussian 09:  EM64L-G09RevE.01 30-Nov-2015

 ------------------------------------------------------
 #p b3lyp/6-311++G(3df,2p) freq IOp(2/17=3) IOp(2/18=3)
 ------------------------------------------------------

 ---------
 b3lyp opt
 ---------
 Symbolic Z-matrix:
 Charge =  0 Multiplicity = 1

                         Standard orientation:
 ---------------------------------------------------------------------
 Center     Atomic      Atomic             Coordinates (Angstroms)
 Number     Number       Type             X           Y           Z
 ---------------------------------------------------------------------
      1          8           0        0.078298    1.808209    0.000000
      2          6           0        1.049554   -0.545661   -0.000000
      3          6           0       -0.000000    0.614774    0.000000
      4          6           0       -0.204928   -1.409211   -0.000000
      5          6           0       -1.091844   -0.399917    0.000000
      6          1           0        1.676972   -0.599302    0.891164
      7          1           0        1.676972   -0.599302   -0.891164
      8          1           0       -0.326462   -2.482733   -0.000000
      9          1           0       -2.170796   -0.344330    0.000000
 ---------------------------------------------------------------------

 SCF Done:  E(RB3LYP) =  -230.074801443     A.U. after   13 cycles

 The electronic state is 1-A'.
 Alpha  occ. eigenvalues --  -19.12653 -10.27132 -10.21955 -10.19754 -10.19465
 Alpha  occ. eigenvalues --   -1.05813  -0.88588  -0.69005  -0.62641  -0.54123
 Alpha  occ. eigenvalues --   -0.48857  -0.47159  -0.45480  -0.40487  -0.38457
 Alpha  occ. eigenvalues --   -0.38019  -0.29799  -0.26342
 Alpha virt. eigenvalues --   -0.06657  -0.00960   0.00970   0.01224   0.01379
 Alpha virt. eigenvalues --    0.03743   0.04910   0.06520   0.06723   0.07613
 Alpha virt. eigenvalues --    0.09001   0.09569   0.11004   0.11355   0.11466

 Mulliken charges:
               1
     1  O   -0.688613
     2  C   -0.314140
     3  C    0.352548
     4  C   -0.180435
     5  C    0.117099
     6  H    0.133868
     7  H    0.133868
     8  H    0.208955
     9  H    0.236850
 Sum of Mulliken charges =  -0.00000

 Dipole moment (field-independent basis, Debye):
    X=             -0.1911    Y=             -3.5341    Z=             -0.0000  Tot=              3.5393
 Quadrupole moment (field-independent basis, Debye-Ang):
   XX=            -26.8003   YY=            -33.2776   ZZ=            -29.2930
   XY=             -0.3960   XZ=             -0.0000   YZ=              0.0000

  Exact polarizability:  52.311  -1.258  60.384   0.000  -0.000  34.226
 Approx polarizability:  74.700  -6.054 100.043  -0.000  -0.000  50.754

                      1                      2                      3
                     A"                     A'                     A"
 Frequencies --    213.1349               455.7952               530.2817
 Red. masses --      2.9675                 4.2198                 1.5599
 Frc consts  --      0.0794                 0.5165                 0.2584
 IR Inten    --      1.6169                 1.9720                 4.5425

                      4                      5                      6
                     A'                     A"                     A'
 Frequencies --    697.8565               816.5653               858.8160
 Red. masses --      4.3949                 1.3944                 3.4542
 Frc consts  --      1.2610                 0.5478                 1.5011
 IR Inten    --      0.0984                50.2893                 2.8735

                      7                      8                      9
                     A"                     A'                     A"
 Frequencies --    968.1863               971.3813              1011.5632
 Red. masses --      1.3121                 2.0637                 1.9086
 Frc consts  --      0.7246                 1.1473                 1.1507
 IR Inten    --      0.8964                11.3607                 1.2753

                     10                     11                     12
                     A'                     A'                     A"
 Frequencies --   1030.9078              1090.8336              1106.9508
 Red. masses --      4.2565                 1.5008                 1.2198
 Frc consts  --      2.6653                 1.0522                 0.8806
 IR Inten    --     46.1185                 1.2729                 3.6622

                     13                     14                     15
                     A'                     A'                     A'
 Frequencies --   1210.0579              1310.9060              1468.3134
 Red. masses --      1.4987                 1.8522                 1.1259
 Frc consts  --      1.2930                 1.8753                 1.4302
 IR Inten    --     10.0293                19.4073                 3.4231

                     16                     17                     18
                     A'                     A'                     A'
 Frequencies --   1585.3807              1851.9216              3039.8813
 Red. masses --      5.2354                12.3329                 1.0563
 Frc consts  --      7.7530                24.9207                 5.7513
 IR Inten    --     11.9936               418.2417                20.3504

                     19                     20                     21
                     A"                     A'                     A'
 Frequencies --   3086.4172              3194.2918              3221.7448
 Red. masses --      1.1073                 1.0873                 1.1127
 Frc consts  --      6.2145                 6.5366                 6.8050
 IR Inten    --     11.1103                 3.6654                 3.8950

 - Thermochemistry -
 -------------------
 Temperature   298.150 Kelvin.  Pressure   1.00000 Atm.
 Atom     1 has atomic number  8 and mass  15.99491

 Molecular mass:    68.02621 amu.
 Principal axes and moments of inertia in atomic units:
                           1         2         3
     Eigenvalues --   142.81353 338.63682 470.01739
           X            0.06747   0.99772   0.00000
           Y            0.99772  -0.06747   0.00000
           Z           -0.00000   0.00000   1.00000
 This molecule is an asymmetric top.
 Rotational symmetry number  1.
 Rotational temperatures (Kelvin)      0.60648     0.25577     0.18428
 Rotational constants (GHZ):          12.63705     5.32943     3.83973
 Zero-point vibrational energy     177772.2 (Joules/Mol)
                                   42.48857 (Kcal/Mol)
 Warning -- explicit consideration of   3 degrees of freedom as
           vibrations may cause significant error
 Vibrational temperatures:    306.65   655.79   762.96  1004.06  1174.85
          (Kelvin)           1235.64  1393.00  1397.60  1455.41  1483.24
                             1569.46  1592.65  1741.00  1886.10  2112.57
                             2281.01  2664.50  4373.71  4440.66  4595.87
                             4635.37

 Zero-point correction=                           0.067710 (Hartree/Particle)
 Thermal correction to Energy=                    0.072033
 Thermal correction to Enthalpy=                  0.072977
 Thermal correction to Gibbs Free Energy=         0.040739
 Sum of electronic and zero-point Energies=           -230.007092
 Sum of electronic and thermal Energies=              -230.002769
 Sum of electronic and thermal Enthalpies=            -230.001825
 Sum of electronic and thermal Free Energies=         -230.034063

                     E (Thermal)             CV                S
                      KCal/Mol        Cal/Mol-Kelvin    Cal/Mol-Kelvin
 Total                   45.201             14.925             67.851
 Electronic               0.000              0.000              0.000
 Translational            0.889              2.981             38.570
 Rotational               0.889              2.981             24.634
 Vibrational             43.424              8.964              4.647
 Vibration     1          0.644              1.821              2.017
 Vibration     2          0.814              1.348              0.778
 Vibration     3          0.885              1.183              0.587

 Normal termination of Gaussian 09 at Fri Mar  1 07:29:48 2019.
