 Gaussian 09, Revision E.01,
 Gaussian 09:  EM64L-G09RevE.01 30-Nov-2015

 ------------------------------------------------------
 #p b3lyp/6-311++G(3df,2p) freq IOp(2/17=3) IOp(2/18=3)
 ------------------------------------------------------

 ---------
 b3lyp opt
 ---------
 Symbolic Z-matrix:
 Charge =  1 Multiplicity = 2

                         Standard orientation:
 ---------------------------------------------------------------------
 Center     Atomic      Atomic             Coordinates (Angstroms)
 Number     Number       Type             X           Y           Z
 ---------------------------------------------------------------------
      1          6           0       -1.098999    0.422626    0.000000
      2          6           0        0.536300   -1.055054    0.000000
      3          8           0       -0.689477   -1.019512    0.000000
      4          6           0        1.214601    0.257497    0.000000
      5          6           0        0.000000    1.153818    0.000000
      6          1           0       -2.167573    0.542501    0.000000
      7          1           0        1.866021    0.354204    0.877557
      8          1           0        1.866021    0.354204   -0.877557
      9          1           0        0.039931    2.231863    0.000000
 ---------------------------------------------------------------------

 SCF Done:  E(UB3LYP) =  -229.708009179     A.U. after   16 cycles

 The electronic state is 2-A'.
 Alpha  occ. eigenvalues --  -19.48830 -10.56881 -10.47633 -10.44916 -10.42761
 Alpha  occ. eigenvalues --   -1.41882  -1.07287  -1.00732  -0.87662  -0.81538
 Alpha  occ. eigenvalues --   -0.77531  -0.74878  -0.68852  -0.66977  -0.65898
 Alpha  occ. eigenvalues --   -0.64157  -0.54414  -0.51729
 Alpha virt. eigenvalues --   -0.32235  -0.22462  -0.16881  -0.14887  -0.12454
 Alpha virt. eigenvalues --   -0.12212  -0.11981  -0.11161  -0.08911  -0.08317
 Alpha virt. eigenvalues --   -0.06963  -0.05482  -0.04110  -0.03481  -0.02240

  Beta  occ. eigenvalues --  -19.48763 -10.55198 -10.47432 -10.44701 -10.42736
  Beta  occ. eigenvalues --   -1.41331  -1.06648  -0.99268  -0.87081  -0.80572
  Beta  occ. eigenvalues --   -0.75772  -0.74513  -0.67275  -0.66484  -0.66012
  Beta  occ. eigenvalues --   -0.63827  -0.51443
  Beta virt. eigenvalues --   -0.37963  -0.30089  -0.22273  -0.16412  -0.14171
  Beta virt. eigenvalues --   -0.12321  -0.12150  -0.11825  -0.11051  -0.08683
  Beta virt. eigenvalues --   -0.07888  -0.06918  -0.05333  -0.03671  -0.03250

 Mulliken charges and spin densities:
               1          2
     1  C    0.071419   0.111072
     2  C    0.488891   0.967643
     3  O   -0.429261  -0.062087
     4  C   -0.163632   0.001430
     5  C    0.105824  -0.013303
     6  H    0.278043   0.004232
     7  H    0.213401  -0.005721
     8  H    0.213401  -0.005721
     9  H    0.221914   0.002455
 Sum of Mulliken charges =   1.00000   1.00000

 Dipole moment (field-independent basis, Debye):
    X=              1.3324    Y=              1.1168    Z=              0.0000  Tot=              1.7386
 Quadrupole moment (field-independent basis, Debye-Ang):
   XX=            -16.4535   YY=            -21.1316   ZZ=            -26.1669
   XY=             -0.7315   XZ=             -0.0000   YZ=              0.0000

  Exact polarizability:  48.084   0.573  43.156   0.000  -0.000  28.935
 Approx polarizability:  78.874   5.866  68.280  -0.000  -0.000  43.315

                      1                      2                      3
                     A"                     A"                     A'
 Frequencies --    314.6958               489.0407               656.9680
 Red. masses --      1.6013                 3.1189                11.0943
 Frc consts  --      0.0934                 0.4395                 2.8212
 IR Inten    --      4.7334                16.1214                33.6039

                      4                      5                      6
                     A"                     A'                     A'
 Frequencies --    719.9034               793.0168               833.0339
 Red. masses --      1.4102                 8.2439                 6.2937
 Frc consts  --      0.4306                 3.0545                 2.5733
 IR Inten    --     44.8748                 6.5935                 3.5857

                      7                      8                      9
                     A"                     A"                     A'
 Frequencies --    841.6753               922.2980               934.9919
 Red. masses --      1.6643                 1.4402                 2.0684
 Frc consts  --      0.6947                 0.7218                 1.0654
 IR Inten    --      9.1527                 0.7982                 5.9818

                     10                     11                     12
                     A'                     A"                     A'
 Frequencies --    963.9234              1102.0273              1123.0430
 Red. masses --      3.7587                 1.1514                 1.1602
 Frc consts  --      2.0576                 0.8238                 0.8621
 IR Inten    --     13.6915                 1.6097                 4.3450

                     13                     14                     15
                     A'                     A'                     A'
 Frequencies --   1241.4466              1252.4952              1348.7517
 Red. masses --      1.7447                 1.3713                 1.0940
 Frc consts  --      1.5843                 1.2675                 1.1725
 IR Inten    --     25.4515                25.6214                66.5535

                     16                     17                     18
                     A'                     A'                     A'
 Frequencies --   1606.5912              1658.1130              3019.5901
 Red. masses --      6.7677                 6.8883                 1.0617
 Frc consts  --     10.2921                11.1580                 5.7034
 IR Inten    --     19.9940                50.9682                56.6952

                     19                     20                     21
                     A"                     A'                     A'
 Frequencies --   3043.2319              3238.0048              3295.1708
 Red. masses --      1.0982                 1.0950                 1.1118
 Frc consts  --      5.9921                 6.7645                 7.1124
 IR Inten    --     36.4199                37.2277                41.8208

 - Thermochemistry -
 -------------------
 Temperature   298.150 Kelvin.  Pressure   1.00000 Atm.
 Atom     1 has atomic number  6 and mass  12.00000

 Molecular mass:    68.02621 amu.
 Principal axes and moments of inertia in atomic units:
                           1         2         3
     Eigenvalues --   190.60019 210.66800 390.18171
           X            0.74854  -0.66309   0.00000
           Y            0.66309   0.74854   0.00000
           Z            0.00000   0.00000   1.00000
 This molecule is an asymmetric top.
 Rotational symmetry number  1.
 Rotational temperatures (Kelvin)      0.45443     0.41114     0.22198
 Rotational constants (GHZ):           9.46873     8.56676     4.62539
 Zero-point vibrational energy     175839.2 (Joules/Mol)
                                   42.02657 (Kcal/Mol)
 Warning -- explicit consideration of   2 degrees of freedom as
           vibrations may cause significant error
 Vibrational temperatures:    452.78   703.62   945.23  1035.78  1140.97
          (Kelvin)           1198.55  1210.98  1326.98  1345.24  1386.87
                             1585.57  1615.81  1786.16  1802.06  1940.55
                             2311.52  2385.65  4344.51  4378.53  4658.76
                             4741.01

 Zero-point correction=                           0.066974 (Hartree/Particle)
 Thermal correction to Energy=                    0.071123
 Thermal correction to Enthalpy=                  0.072067
 Thermal correction to Gibbs Free Energy=         0.039744
 Sum of electronic and zero-point Energies=           -229.641036
 Sum of electronic and thermal Energies=              -229.636886
 Sum of electronic and thermal Enthalpies=            -229.635942
 Sum of electronic and thermal Free Energies=         -229.668265

                     E (Thermal)             CV                S
                      KCal/Mol        Cal/Mol-Kelvin    Cal/Mol-Kelvin
 Total                   44.630             14.886             68.030
 Electronic               0.000              0.000              1.377
 Translational            0.889              2.981             38.570
 Rotational               0.889              2.981             24.264
 Vibrational             42.853              8.924              3.819
 Vibration     1          0.702              1.646              1.338
 Vibration     2          0.845              1.274              0.686

 Normal termination of Gaussian 09 at Fri Mar  1 08:19:32 2019.
