 Gaussian 09, Revision E.01,
 Gaussian 09:  EM64L-G09RevE.01 30-Nov-2015

 ------------------------------------------------------
 #p b3lyp/6-311++G(3df,2p) freq IOp(2/17=3) IOp(2/18=3)
 ------------------------------------------------------

 ---------
 b3lyp opt
 ---------
 Symbolic Z-matrix:
 Charge =  0 Multiplicity = 1

                         Standard orientation:
 ---------------------------------------------------------------------
 Center     Atomic      Atomic             Coordinates (Angstroms)
 Number     Number       Type             X           Y           Z
 ---------------------------------------------------------------------
      1          8           0        1.963025   -0.386726    0.000000
      2          6           0       -0.561088    0.018153   -0.000000
      3          6           0        0.867015    0.111436    0.000000
      4          6           0       -0.000000    1.239609   -0.000000
      5          6           0       -1.820656   -0.752527   -0.000000
      6          1           0       -0.207450    2.301352   -0.000000
      7          1           0       -1.856518   -1.402356   -0.875957
      8          1           0       -2.695337   -0.102853   -0.000000
      9          1           0       -1.856518   -1.402356    0.875957
 ---------------------------------------------------------------------

 SCF Done:  E(RB3LYP) =  -230.054479292     A.U. after   12 cycles

 The electronic state is 1-A'.
 Alpha  occ. eigenvalues --  -19.09949 -10.27109 -10.23409 -10.22115 -10.20573
 Alpha  occ. eigenvalues --   -1.03436  -0.91988  -0.76758  -0.59478  -0.53360
 Alpha  occ. eigenvalues --   -0.47699  -0.46547  -0.45031  -0.41647  -0.41382
 Alpha  occ. eigenvalues --   -0.37251  -0.29682  -0.24002
 Alpha virt. eigenvalues --   -0.03888  -0.01823   0.00452   0.02174   0.02300
 Alpha virt. eigenvalues --    0.02919   0.03996   0.05259   0.06984   0.07624
 Alpha virt. eigenvalues --    0.08559   0.09564   0.10023   0.10057   0.11592

 Mulliken charges:
               1
     1  O   -0.763669
     2  C   -0.026723
     3  C    0.448163
     4  C    0.061733
     5  C   -0.430848
     6  H    0.233650
     7  H    0.165795
     8  H    0.146104
     9  H    0.165795
 Sum of Mulliken charges =  -0.00000

 Dipole moment (field-independent basis, Debye):
    X=             -4.6621    Y=              1.1953    Z=             -0.0000  Tot=              4.8129
 Quadrupole moment (field-independent basis, Debye-Ang):
   XX=            -34.9085   YY=            -26.0772   ZZ=            -28.7956
   XY=              2.8782   XZ=              0.0000   YZ=              0.0000

  Exact polarizability:  61.956   0.684  52.050   0.000   0.000  33.570
 Approx polarizability:  88.401  -2.720  80.488  -0.000  -0.000  49.571

                      1                      2                      3
                     A"                     A'                     A"
 Frequencies --    103.4002               233.4199               274.8816
 Red. masses --      1.0760                 3.6385                 2.5680
 Frc consts  --      0.0068                 0.1168                 0.1143
 IR Inten    --      1.6447                 1.0639                 3.5102

                      4                      5                      6
                     A'                     A"                     A'
 Frequencies --    556.7146               619.7768               744.3062
 Red. masses --      2.8081                 4.5373                 5.8573
 Frc consts  --      0.5128                 1.0269                 1.9118
 IR Inten    --      0.5451                 2.0434                 8.8059

                      7                      8                      9
                     A"                     A'                     A'
 Frequencies --    847.6466               858.1233               972.2139
 Red. masses --      1.5130                 2.1105                 2.0564
 Frc consts  --      0.6405                 0.9157                 1.1452
 IR Inten    --     27.9713                10.0761                 0.4712

                     10                     11                     12
                     A"                     A'                     A'
 Frequencies --   1048.6296              1081.4653              1220.9486
 Red. masses --      1.5731                 2.3758                 3.0892
 Frc consts  --      1.0192                 1.6372                 2.7132
 IR Inten    --      2.8583                 6.6872                 3.3879

                     13                     14                     15
                     A'                     A'                     A"
 Frequencies --   1401.7643              1474.5811              1476.1880
 Red. masses --      1.2173                 1.0626                 1.0428
 Frc consts  --      1.4093                 1.3614                 1.3388
 IR Inten    --      2.8530                16.6196                 8.3103

                     16                     17                     18
                     A'                     A'                     A'
 Frequencies --   1664.9580              1917.2540              3028.1903
 Red. masses --      7.8545                11.1233                 1.0337
 Frc consts  --     12.8285                24.0905                 5.5847
 IR Inten    --     98.5652               692.5655                 9.6427

                     19                     20                     21
                     A"                     A'                     A'
 Frequencies --   3086.6238              3103.9551              3183.3608
 Red. masses --      1.0988                 1.1041                 1.1111
 Frc consts  --      6.1676                 6.2676                 6.6341
 IR Inten    --      2.7944                13.7458                 2.0433

 - Thermochemistry -
 -------------------
 Temperature   298.150 Kelvin.  Pressure   1.00000 Atm.
 Atom     1 has atomic number  8 and mass  15.99491

 Molecular mass:    68.02621 amu.
 Principal axes and moments of inertia in atomic units:
                           1         2         3
     Eigenvalues --   133.82536 466.37422 589.15349
           X            0.99376  -0.11156   0.00000
           Y            0.11156   0.99376   0.00000
           Z            0.00000  -0.00000   1.00000
 This molecule is an asymmetric top.
 Rotational symmetry number  1.
 Rotational temperatures (Kelvin)      0.64722     0.18572     0.14701
 Rotational constants (GHZ):          13.48579     3.86973     3.06328
 Zero-point vibrational energy     172850.8 (Joules/Mol)
                                   41.31234 (Kcal/Mol)
 Warning -- explicit consideration of   5 degrees of freedom as
           vibrations may cause significant error
 Vibrational temperatures:    148.77   335.84   395.49   800.99   891.72
          (Kelvin)           1070.89  1219.57  1234.65  1398.80  1508.74
                             1555.99  1756.67  2016.82  2121.59  2123.90
                             2395.50  2758.50  4356.88  4440.96  4465.89
                             4580.14

 Zero-point correction=                           0.065835 (Hartree/Particle)
 Thermal correction to Energy=                    0.071054
 Thermal correction to Enthalpy=                  0.071998
 Thermal correction to Gibbs Free Energy=         0.037614
 Sum of electronic and zero-point Energies=           -229.988644
 Sum of electronic and thermal Energies=              -229.983425
 Sum of electronic and thermal Enthalpies=            -229.982481
 Sum of electronic and thermal Free Energies=         -230.016866

                     E (Thermal)             CV                S
                      KCal/Mol        Cal/Mol-Kelvin    Cal/Mol-Kelvin
 Total                   44.587             16.965             72.368
 Electronic               0.000              0.000              0.000
 Translational            0.889              2.981             38.570
 Rotational               0.889              2.981             25.112
 Vibrational             42.810             11.003              8.687
 Vibration     1          0.605              1.946              3.389
 Vibration     2          0.654              1.790              1.852
 Vibration     3          0.677              1.720              1.565
 Vibration     4          0.912              1.125              0.530
 Vibration     5          0.980              0.990              0.417

 Normal termination of Gaussian 09 at Fri Mar  1 07:29:26 2019.
