 Gaussian 09, Revision E.01,
 Gaussian 09:  EM64L-G09RevE.01 30-Nov-2015

 ------------------------------------------------------
 #p b3lyp/6-311++G(3df,2p) freq IOp(2/17=3) IOp(2/18=3)
 ------------------------------------------------------

 ---------
 b3lyp opt
 ---------
 Symbolic Z-matrix:
 Charge =  0 Multiplicity = 1

                         Standard orientation:
 ---------------------------------------------------------------------
 Center     Atomic      Atomic             Coordinates (Angstroms)
 Number     Number       Type             X           Y           Z
 ---------------------------------------------------------------------
      1          6           0       -2.114870   -0.625694    0.000000
      2          6           0        1.354341    0.274152    0.000000
      3          8           0        1.536778   -0.908847    0.000000
      4          6           0        0.000000    0.968871    0.000000
      5          6           0       -1.159207    0.096231    0.000000
      6          1           0       -0.011579    1.636941    0.869851
      7          1           0        2.205283    0.986667    0.000000
      8          1           0       -0.011579    1.636941   -0.869851
      9          1           0       -2.957928   -1.271136    0.000000
 ---------------------------------------------------------------------

 SCF Done:  E(RB3LYP) =  -230.052878328     A.U. after   12 cycles

 The electronic state is 1-A'.
 Alpha  occ. eigenvalues --  -19.14170 -10.28057 -10.22293 -10.18510 -10.17361
 Alpha  occ. eigenvalues --   -1.07320  -0.81690  -0.73812  -0.61737  -0.53859
 Alpha  occ. eigenvalues --   -0.50721  -0.48186  -0.47925  -0.44394  -0.39494
 Alpha  occ. eigenvalues --   -0.29795  -0.28893  -0.27444
 Alpha virt. eigenvalues --   -0.04708  -0.01755   0.00599   0.00730   0.01996
 Alpha virt. eigenvalues --    0.02455   0.03573   0.04018   0.06872   0.08143
 Alpha virt. eigenvalues --    0.08377   0.08534   0.08643   0.10810   0.11293

 Mulliken charges:
               1
     1  C    0.337971
     2  C    0.109171
     3  O   -0.570299
     4  C   -0.246928
     5  C   -0.430991
     6  H    0.175505
     7  H    0.136749
     8  H    0.175505
     9  H    0.313318
 Sum of Mulliken charges =   0.00000

 Dipole moment (field-independent basis, Debye):
    X=             -0.4341    Y=              2.7299    Z=             -0.0000  Tot=              2.7642
 Quadrupole moment (field-independent basis, Debye-Ang):
   XX=            -28.4071   YY=            -28.8054   ZZ=            -29.3956
   XY=              6.2868   XZ=             -0.0000   YZ=             -0.0000

  Exact polarizability:  62.859   9.100  53.301  -0.000  -0.000  35.451
 Approx polarizability:  85.882  17.593  85.768   0.000  -0.000  50.964

                      1                      2                      3
                     A"                     A'                     A"
 Frequencies --    143.9580               149.1541               327.9957
 Red. masses --      2.0460                 5.3776                 2.4395
 Frc consts  --      0.0250                 0.0705                 0.1546
 IR Inten    --      5.0279                 5.9517                11.2887

                      4                      5                      6
                     A'                     A"                     A'
 Frequencies --    376.3910               686.0282               690.3386
 Red. masses --      6.8166                 1.2662                 1.2703
 Frc consts  --      0.5690                 0.3511                 0.3567
 IR Inten    --      4.6615                45.0870                43.4452

                      7                      8                      9
                     A"                     A'                     A'
 Frequencies --    711.7722               736.3232               828.2252
 Red. masses --      1.3895                 6.4273                 3.9718
 Frc consts  --      0.4148                 2.0531                 1.6052
 IR Inten    --      0.0442                33.0867                12.9285

                     10                     11                     12
                     A'                     A"                     A"
 Frequencies --   1015.9816              1047.4308              1235.1299
 Red. masses --      2.4234                 1.7263                 1.1691
 Frc consts  --      1.4739                 1.1159                 1.0508
 IR Inten    --     12.2731                 0.0450                 0.1660

                     13                     14                     15
                     A'                     A'                     A'
 Frequencies --   1322.9436              1414.7504              1437.2850
 Red. masses --      1.6760                 1.1423                 1.1389
 Frc consts  --      1.7282                 1.3471                 1.3862
 IR Inten    --     26.0287                12.7684                18.3392

                     16                     17                     18
                     A'                     A'                     A'
 Frequencies --   1826.9823              2229.7943              2873.6697
 Red. masses --     10.0521                 5.9104                 1.0832
 Frc consts  --     19.7686                17.3141                 5.2704
 IR Inten    --    165.3095                 1.9247               127.6543

                     19                     20                     21
                     A'                     A"                     A'
 Frequencies --   2997.4624              3017.8242              3463.0974
 Red. masses --      1.0602                 1.0977                 1.1633
 Frc consts  --      5.6123                 5.8901                 8.2197
 IR Inten    --     24.1940                 1.1187                64.6193

 - Thermochemistry -
 -------------------
 Temperature   298.150 Kelvin.  Pressure   1.00000 Atm.
 Atom     1 has atomic number  6 and mass  12.00000

 Molecular mass:    68.02621 amu.
 Principal axes and moments of inertia in atomic units:
                           1         2         3
     Eigenvalues --   141.15827 517.39342 647.65907
           X            0.99969  -0.02500   0.00000
           Y            0.02500   0.99969   0.00000
           Z            0.00000   0.00000   1.00000
 This molecule is an asymmetric top.
 Rotational symmetry number  1.
 Rotational temperatures (Kelvin)      0.61359     0.16740     0.13373
 Rotational constants (GHZ):          12.78523     3.48814     2.78656
 Zero-point vibrational energy     170662.5 (Joules/Mol)
                                   40.78931 (Kcal/Mol)
 Warning -- explicit consideration of   4 degrees of freedom as
           vibrations may cause significant error
 Vibrational temperatures:    207.12   214.60   471.91   541.54   987.04
          (Kelvin)            993.24  1024.08  1059.40  1191.63  1461.77
                             1507.02  1777.07  1903.42  2035.51  2067.93
                             2628.62  3208.17  4134.56  4312.67  4341.97
                             4982.62

 Zero-point correction=                           0.065002 (Hartree/Particle)
 Thermal correction to Energy=                    0.070470
 Thermal correction to Enthalpy=                  0.071414
 Thermal correction to Gibbs Free Energy=         0.036571
 Sum of electronic and zero-point Energies=           -229.987876
 Sum of electronic and thermal Energies=              -229.982408
 Sum of electronic and thermal Enthalpies=            -229.981464
 Sum of electronic and thermal Free Energies=         -230.016308

                     E (Thermal)             CV                S
                      KCal/Mol        Cal/Mol-Kelvin    Cal/Mol-Kelvin
 Total                   44.221             18.023             73.335
 Electronic               0.000              0.000              0.000
 Translational            0.889              2.981             38.570
 Rotational               0.889              2.981             25.362
 Vibrational             42.443             12.061              9.403
 Vibration     1          0.616              1.909              2.751
 Vibration     2          0.618              1.904              2.683
 Vibration     3          0.711              1.620              1.270
 Vibration     4          0.747              1.520              1.054

 Optimization completed.
    -- Stationary point found.
 Normal termination of Gaussian 09 at Fri Mar  1 07:48:40 2019.
