 Gaussian 09, Revision E.01,
 Gaussian 09:  EM64L-G09RevE.01 30-Nov-2015

 ------------------------------------------------------
 #p b3lyp/6-311++G(3df,2p) freq IOp(2/17=3) IOp(2/18=3)
 ------------------------------------------------------

 ---------
 b3lyp opt
 ---------
 Symbolic Z-matrix:
 Charge =  0 Multiplicity = 1

                         Standard orientation:
 ---------------------------------------------------------------------
 Center     Atomic      Atomic             Coordinates (Angstroms)
 Number     Number       Type             X           Y           Z
 ---------------------------------------------------------------------
      1          6           0        0.000000    1.155411    0.000000
      2          6           0       -0.855731   -0.963454    0.000000
      3          8           0       -1.156647    0.317527    0.000000
      4          6           0        0.653415   -1.010016    0.000000
      5          6           0        1.098306    0.423261    0.000000
      6          1           0       -0.203074    2.212020    0.000000
      7          1           0        0.984960   -1.586977    0.870477
      8          1           0        0.984960   -1.586977   -0.870477
      9          1           0        2.110398    0.790506    0.000000
 ---------------------------------------------------------------------

 SCF Done:  E(RB3LYP) =  -230.013158377     A.U. after   12 cycles

 The electronic state is 1-A'.
 Alpha  occ. eigenvalues --  -19.20924 -10.24246 -10.23206 -10.19782 -10.19332
 Alpha  occ. eigenvalues --   -1.12207  -0.82184  -0.75646  -0.62919  -0.56704
 Alpha  occ. eigenvalues --   -0.53916  -0.48520  -0.43879  -0.41521  -0.41454
 Alpha  occ. eigenvalues --   -0.38440  -0.28538  -0.22774
 Alpha virt. eigenvalues --   -0.05716  -0.01150  -0.00671   0.00891   0.01941
 Alpha virt. eigenvalues --    0.02254   0.04807   0.05760   0.06999   0.07236
 Alpha virt. eigenvalues --    0.09558   0.09967   0.10713   0.11223   0.11809

 Mulliken charges:
               1
     1  C    0.004906
     2  C   -0.216091
     3  O   -0.488638
     4  C    0.066325
     5  C   -0.043593
     6  H    0.193570
     7  H    0.144074
     8  H    0.144074
     9  H    0.195371
 Sum of Mulliken charges =  -0.00000

 Dipole moment (field-independent basis, Debye):
    X=              3.2688    Y=              1.6727    Z=             -0.0000  Tot=              3.6719
 Quadrupole moment (field-independent basis, Debye-Ang):
   XX=            -32.2094   YY=            -28.8051   ZZ=            -29.8169
   XY=             -4.0278   XZ=              0.0000   YZ=              0.0000

  Exact polarizability:  54.533   0.519  58.271  -0.000   0.000  38.111
 Approx polarizability:  84.374  -7.065  85.014   0.000   0.000  58.050

                      1                      2                      3
                     A"                     A"                     A"
 Frequencies --    295.6063               522.1885               714.9778
 Red. masses --      1.4812                 3.0653                 1.5882
 Frc consts  --      0.0763                 0.4925                 0.4783
 IR Inten    --     11.0688                 7.0716                 8.2316

                      4                      5                      6
                     A'                     A"                     A'
 Frequencies --    810.9553               813.5260               850.7731
 Red. masses --      5.5402                 1.8096                 7.8255
 Frc consts  --      2.1467                 0.7056                 3.3373
 IR Inten    --      6.6178                47.2049                 5.5648

                      7                      8                      9
                     A'                     A"                     A'
 Frequencies --    868.7571               906.6629               927.3590
 Red. masses --      4.1968                 1.2875                 3.6784
 Frc consts  --      1.8662                 0.6236                 1.8638
 IR Inten    --     12.5591                 1.0066                 6.2455

                     10                     11                     12
                     A'                     A"                     A'
 Frequencies --    954.5292              1102.3721              1120.8941
 Red. masses --      2.0309                 1.1617                 1.2262
 Frc consts  --      1.0902                 0.8318                 0.9077
 IR Inten    --      8.6998                 0.0094                 0.6157

                     13                     14                     15
                     A'                     A'                     A'
 Frequencies --   1188.1692              1250.4603              1336.2214
 Red. masses --      4.2793                 1.9521                 1.8277
 Frc consts  --      3.5594                 1.7985                 1.9227
 IR Inten    --     65.6880                38.4843                 1.9759

                     16                     17                     18
                     A'                     A'                     A'
 Frequencies --   1385.4239              1652.8591              3022.3569
 Red. masses --      1.1173                 5.7512                 1.0625
 Frc consts  --      1.2635                 9.2572                 5.7184
 IR Inten    --     15.1540                 6.7401                 2.4611

                     19                     20                     21
                     A"                     A'                     A'
 Frequencies --   3043.7039              3240.0155              3270.6117
 Red. masses --      1.0973                 1.0890                 1.1110
 Frc consts  --      5.9893                 6.7356                 7.0017
 IR Inten    --      0.1158                 0.3900                 1.2689

 - Thermochemistry -
 -------------------
 Temperature   298.150 Kelvin.  Pressure   1.00000 Atm.
 Atom     1 has atomic number  6 and mass  12.00000

 Molecular mass:    68.02621 amu.
 Principal axes and moments of inertia in atomic units:
                           1         2         3
     Eigenvalues --   197.49030 205.71046 392.29245
           X            0.99474   0.10243   0.00000
           Y           -0.10243   0.99474   0.00000
           Z           -0.00000   0.00000   1.00000
 This molecule is an asymmetric top.
 Rotational symmetry number  1.
 Rotational temperatures (Kelvin)      0.43857     0.42105     0.22079
 Rotational constants (GHZ):           9.13838     8.77321     4.60050
 Zero-point vibrational energy     175123.9 (Joules/Mol)
                                   41.85561 (Kcal/Mol)
 Warning -- explicit consideration of   2 degrees of freedom as
           vibrations may cause significant error
 Vibrational temperatures:    425.31   751.31  1028.69  1166.78  1170.48
          (Kelvin)           1224.07  1249.95  1304.48  1334.26  1373.35
                             1586.07  1612.71  1709.51  1799.13  1922.52
                             1993.31  2378.09  4348.49  4379.21  4661.65
                             4705.67

 Zero-point correction=                           0.066701 (Hartree/Particle)
 Thermal correction to Energy=                    0.070794
 Thermal correction to Enthalpy=                  0.071738
 Thermal correction to Gibbs Free Energy=         0.040129
 Sum of electronic and zero-point Energies=           -229.946457
 Sum of electronic and thermal Energies=              -229.942364
 Sum of electronic and thermal Enthalpies=            -229.941420
 Sum of electronic and thermal Free Energies=         -229.973029

                     E (Thermal)             CV                S
                      KCal/Mol        Cal/Mol-Kelvin    Cal/Mol-Kelvin
 Total                   44.424             14.620             66.527
 Electronic               0.000              0.000              0.000
 Translational            0.889              2.981             38.570
 Rotational               0.889              2.981             24.281
 Vibrational             42.647              8.658              3.677
 Vibration     1          0.690              1.682              1.442
 Vibration     2          0.877              1.201              0.605

 Optimization completed.
    -- Stationary point found.
 Normal termination of Gaussian 09 at Fri Mar  1 07:39:15 2019.
