 Gaussian 09, Revision E.01,
 Gaussian 09:  EM64L-G09RevE.01 30-Nov-2015

 ------------------------------------------------------
 #p b3lyp/6-311++G(3df,2p) freq IOp(2/17=3) IOp(2/18=3)
 ------------------------------------------------------

 ---------
 b3lyp opt
 ---------
 Symbolic Z-matrix:
 Charge =  0 Multiplicity = 1

                         Standard orientation:
 ---------------------------------------------------------------------
 Center     Atomic      Atomic             Coordinates (Angstroms)
 Number     Number       Type             X           Y           Z
 ---------------------------------------------------------------------
      1          8           0       -0.000000   -0.000000    2.289751
      2          6           0        0.000000    0.753215   -1.435118
      3          6           0       -0.000000   -0.753215   -1.435118
      4          6           0        0.000000    0.000000   -0.159831
      5          6           0       -0.000000   -0.000000    1.121501
      6          1           0       -0.913353    1.263742   -1.716651
      7          1           0        0.913353    1.263742   -1.716651
      8          1           0        0.913353   -1.263742   -1.716651
      9          1           0       -0.913353   -1.263742   -1.716651
 ---------------------------------------------------------------------

 SCF Done:  E(RB3LYP) =  -230.057894015     A.U. after   11 cycles

 The electronic state is 1-A1.
 Alpha  occ. eigenvalues --  -19.17342 -10.28254 -10.21139 -10.21114 -10.18909
 Alpha  occ. eigenvalues --   -1.10368  -0.88810  -0.72754  -0.63112  -0.53746
 Alpha  occ. eigenvalues --   -0.50608  -0.50297  -0.44859  -0.43905  -0.39430
 Alpha  occ. eigenvalues --   -0.35294  -0.33248  -0.23452
 Alpha virt. eigenvalues --   -0.04649  -0.00975   0.00813   0.01217   0.01928
 Alpha virt. eigenvalues --    0.05110   0.05752   0.06255   0.06365   0.06729
 Alpha virt. eigenvalues --    0.08404   0.10184   0.10552   0.12075   0.12609

 Mulliken charges:
               1
     1  O   -0.634384
     2  C   -0.299209
     3  C   -0.299209
     4  C    0.457479
     5  C    0.126788
     6  H    0.162134
     7  H    0.162134
     8  H    0.162134
     9  H    0.162134
 Sum of Mulliken charges =  -0.00000

 Dipole moment (field-independent basis, Debye):
    X=             -0.0000    Y=             -0.0000    Z=             -2.8045  Tot=              2.8045
 Quadrupole moment (field-independent basis, Debye-Ang):
   XX=            -28.6372   YY=            -27.6383   ZZ=            -33.4147
   XY=              0.0000   XZ=              0.0000   YZ=             -0.0000

  Exact polarizability:  36.798  -0.000  41.580  -0.000   0.000  75.898
 Approx polarizability:  51.830   0.000  58.368   0.000   0.000 127.721

                      1                      2                      3
                     B1                     B2                     B1
 Frequencies --     45.2714               170.1674               508.9972
 Red. masses --      3.8390                 4.9078                12.2200
 Frc consts  --      0.0046                 0.0837                 1.8653
 IR Inten    --      6.6130                 0.4319                12.4588

                      4                      5                      6
                     A1                     B2                     B1
 Frequencies --    646.5885               655.2518               807.4635
 Red. masses --      6.0524                 8.1388                 1.0230
 Frc consts  --      1.4909                 2.0589                 0.3930
 IR Inten    --     39.8978                 6.5801                 0.5767

                      7                      8                      9
                     B2                     A2                     A1
 Frequencies --    936.1072               936.9247              1030.4775
 Red. masses --      9.2347                 1.0846                 3.2997
 Frc consts  --      4.7679                 0.5610                 2.0644
 IR Inten    --      1.0560                 0.0000                11.5299

                     10                     11                     12
                     A1                     B1                     B2
 Frequencies --   1064.6666              1069.7825              1105.8117
 Red. masses --      1.3000                 1.2887                 1.3281
 Frc consts  --      0.8682                 0.8689                 0.9568
 IR Inten    --     25.9231                 1.7180                 7.5151

                     13                     14                     15
                     A2                     B2                     A1
 Frequencies --   1171.3634              1474.6437              1478.3395
 Red. masses --      1.2806                 1.0828                 1.2271
 Frc consts  --      1.0353                 1.3873                 1.5801
 IR Inten    --      0.0000                 0.7613                 9.5237

                     16                     17                     18
                     A1                     A1                     A1
 Frequencies --   1570.6010              2247.0161              3094.5400
 Red. masses --      6.3684                12.0541                 1.0550
 Frc consts  --      9.2558                35.8589                 5.9525
 IR Inten    --      5.4580              1217.1124                31.9656

                     19                     20                     21
                     B2                     A2                     B1
 Frequencies --   3095.4569              3167.7946              3180.8676
 Red. masses --      1.0475                 1.1193                 1.1176
 Frc consts  --      5.9137                 6.6175                 6.6623
 IR Inten    --     19.9443                 0.0000                15.0426

 - Thermochemistry -
 -------------------
 Temperature   298.150 Kelvin.  Pressure   1.00000 Atm.
 Atom     1 has atomic number  8 and mass  15.99491

 Molecular mass:    68.02621 amu.
 Principal axes and moments of inertia in atomic units:
                           1         2         3
     Eigenvalues --    83.62404 582.98607 642.59138
           X            0.00000  -0.00000   1.00000
           Y            0.00000   1.00000   0.00000
           Z            1.00000  -0.00000   0.00000
 This molecule is an asymmetric top.
 Rotational symmetry number  2.
 Rotational temperatures (Kelvin)      1.03575     0.14857     0.13479
 Rotational constants (GHZ):          21.58161     3.09568     2.80854
 Zero-point vibrational energy     176198.8 (Joules/Mol)
                                   42.11251 (Kcal/Mol)
 Warning -- explicit consideration of   3 degrees of freedom as
           vibrations may cause significant error
 Vibrational temperatures:     65.14   244.83   732.33   930.30   942.76
          (Kelvin)           1161.76  1346.85  1348.02  1482.63  1531.82
                             1539.18  1591.01  1685.33  2121.68  2127.00
                             2259.74  3232.95  4452.35  4453.67  4557.74
                             4576.55

 Zero-point correction=                           0.067111 (Hartree/Particle)
 Thermal correction to Energy=                    0.072200
 Thermal correction to Enthalpy=                  0.073144
 Thermal correction to Gibbs Free Energy=         0.039040
 Sum of electronic and zero-point Energies=           -229.990783
 Sum of electronic and thermal Energies=              -229.985694
 Sum of electronic and thermal Enthalpies=            -229.984750
 Sum of electronic and thermal Free Energies=         -230.018854

                     E (Thermal)             CV                S
                      KCal/Mol        Cal/Mol-Kelvin    Cal/Mol-Kelvin
 Total                   45.306             16.134             71.779
 Electronic               0.000              0.000              0.000
 Translational            0.889              2.981             38.570
 Rotational               0.889              2.981             23.575
 Vibrational             43.529             10.172              9.634
 Vibration     1          0.595              1.979              5.014
 Vibration     2          0.625              1.879              2.434
 Vibration     3          0.864              1.230              0.636

 Optimization completed.
    -- Stationary point found.
 Normal termination of Gaussian 09 at Fri Mar  1 07:45:56 2019.
