 Gaussian 09, Revision E.01,
 Gaussian 09:  EM64L-G09RevE.01 30-Nov-2015

 ------------------------------------------------------
 #p b3lyp/6-311++G(3df,2p) freq IOp(2/17=3) IOp(2/18=3)
 ------------------------------------------------------

 ---------
 b3lyp opt
 ---------
 Symbolic Z-matrix:
 Charge =  0 Multiplicity = 1

                         Standard orientation:
 ---------------------------------------------------------------------
 Center     Atomic      Atomic             Coordinates (Angstroms)
 Number     Number       Type             X           Y           Z
 ---------------------------------------------------------------------
      1          8           0       -0.558987   -0.017511   -0.000000
      2          6           0        0.472274   -0.952536    0.000000
      3          6           0        0.201793   -2.243720    0.000000
      4          6           0       -0.240717    1.242537   -0.000000
      5          6           0        0.000000    2.415229   -0.000000
      6          1           0        1.461404   -0.515977    0.000000
      7          1           0        1.013315   -2.954011    0.000000
      8          1           0       -0.813201   -2.613266    0.000000
      9          1           0        0.210274    3.454283   -0.000000
 ---------------------------------------------------------------------

 SCF Done:  E(RB3LYP) =  -230.014639119     A.U. after   13 cycles

 The electronic state is 1-A'.
 Alpha  occ. eigenvalues --  -19.21564 -10.25475 -10.23475 -10.18099 -10.16964
 Alpha  occ. eigenvalues --   -1.13152  -0.80860  -0.74998  -0.65165  -0.58567
 Alpha  occ. eigenvalues --   -0.52527  -0.49294  -0.47058  -0.44215  -0.40447
 Alpha  occ. eigenvalues --   -0.30791  -0.28658  -0.24970
 Alpha virt. eigenvalues --   -0.01625  -0.00613   0.00789   0.01740   0.02911
 Alpha virt. eigenvalues --    0.03268   0.04672   0.04918   0.05342   0.07472
 Alpha virt. eigenvalues --    0.08118   0.09505   0.09643   0.11172   0.12337

 Mulliken charges:
               1
     1  O   -0.578413
     2  C    0.140037
     3  C   -0.317612
     4  C   -0.133547
     5  C    0.080183
     6  H    0.172612
     7  H    0.157374
     8  H    0.162586
     9  H    0.316780
 Sum of Mulliken charges =  -0.00000

 Dipole moment (field-independent basis, Debye):
    X=              1.0668    Y=             -0.7972    Z=              0.0000  Tot=              1.3317
 Quadrupole moment (field-independent basis, Debye-Ang):
   XX=            -29.0620   YY=            -23.8674   ZZ=            -32.3245
   XY=              0.4935   XZ=             -0.0000   YZ=             -0.0000

  Exact polarizability:  41.286   1.414  88.861   0.000   0.000  37.530
 Approx polarizability:  58.463   8.271 126.981   0.000  -0.000  51.172

                      1                      2                      3
                     A"                     A'                     A"
 Frequencies --     75.1958               178.7215               434.5514
 Red. masses --      2.7762                 3.8466                11.3055
 Frc consts  --      0.0092                 0.0724                 1.2578
 IR Inten    --      0.0015                 0.6993                 6.0857

                      4                      5                      6
                     A'                     A"                     A'
 Frequencies --    436.5406               544.9523               578.7761
 Red. masses --      2.8490                 1.1615                 7.1648
 Frc consts  --      0.3199                 0.2032                 1.4141
 IR Inten    --      1.1161                56.7500                 2.3114

                      7                      8                      9
                     A'                     A"                     A'
 Frequencies --    654.1273               700.0562               857.5507
 Red. masses --      1.1859                 1.4651                 2.4244
 Frc consts  --      0.2990                 0.4230                 1.0504
 IR Inten    --     50.1645                 6.5024                21.1850

                     10                     11                     12
                     A"                     A"                     A'
 Frequencies --    900.2358               973.2335              1126.5316
 Red. masses --      1.3813                 1.1064                 2.5980
 Frc consts  --      0.6596                 0.6174                 1.9425
 IR Inten    --     50.7892                26.3657                11.5270

                     13                     14                     15
                     A'                     A'                     A'
 Frequencies --   1191.3757              1338.6207              1420.0278
 Red. masses --      7.2145                 1.1676                 1.1658
 Frc consts  --      6.0333                 1.2327                 1.3851
 IR Inten    --    356.9313                 4.3013                11.4413

                     16                     17                     18
                     A'                     A'                     A'
 Frequencies --   1705.2273              2268.4304              3164.5085
 Red. masses --      4.5493                 6.2459                 1.0579
 Frc consts  --      7.7940                18.9364                 6.2417
 IR Inten    --    195.9406               297.7957                 3.2228

                     19                     20                     21
                     A'                     A'                     A'
 Frequencies --   3194.6820              3259.1121              3477.0823
 Red. masses --      1.0994                 1.1171                 1.1599
 Frc consts  --      6.6106                 6.9911                 8.2623
 IR Inten    --      3.5502                 0.7131               132.9505

 - Thermochemistry -
 -------------------
 Temperature   298.150 Kelvin.  Pressure   1.00000 Atm.
 Atom     1 has atomic number  8 and mass  15.99491

 Molecular mass:    68.02621 amu.
 Principal axes and moments of inertia in atomic units:
                           1         2         3
     Eigenvalues --    40.75803 674.91139 715.66942
           X           -0.08532   0.99635   0.00000
           Y            0.99635   0.08532   0.00000
           Z            0.00000   0.00000   1.00000
 This molecule is an asymmetric top.
 Rotational symmetry number  1.
 Rotational temperatures (Kelvin)      2.12507     0.12833     0.12102
 Rotational constants (GHZ):          44.27940     2.67404     2.52175
 Zero-point vibrational energy     170345.5 (Joules/Mol)
                                   40.71355 (Kcal/Mol)
 Warning -- explicit consideration of   6 degrees of freedom as
           vibrations may cause significant error
 Vibrational temperatures:    108.19   257.14   625.22   628.08   784.06
          (Kelvin)            832.73   941.14  1007.22  1233.82  1295.24
                             1400.26  1620.83  1714.12  1925.97  2043.10
                             2453.44  3263.76  4553.02  4596.43  4689.13
                             5002.74

 Zero-point correction=                           0.064881 (Hartree/Particle)
 Thermal correction to Energy=                    0.070471
 Thermal correction to Enthalpy=                  0.071415
 Thermal correction to Gibbs Free Energy=         0.036558
 Sum of electronic and zero-point Energies=           -229.949758
 Sum of electronic and thermal Energies=              -229.944168
 Sum of electronic and thermal Enthalpies=            -229.943224
 Sum of electronic and thermal Free Energies=         -229.978081

                     E (Thermal)             CV                S
                      KCal/Mol        Cal/Mol-Kelvin    Cal/Mol-Kelvin
 Total                   44.221             18.764             73.363
 Electronic               0.000              0.000              0.000
 Translational            0.889              2.981             38.570
 Rotational               0.889              2.981             24.491
 Vibrational             42.444             12.802             10.302
 Vibration     1          0.599              1.966              4.013
 Vibration     2          0.629              1.868              2.342
 Vibration     3          0.795              1.395              0.844
 Vibration     4          0.797              1.391              0.838
 Vibration     5          0.900              1.151              0.555
 Vibration     6          0.935              1.077              0.488

 Normal termination of Gaussian 09 at Fri Mar  1 07:58:46 2019.
