 Gaussian 09, Revision E.01,
 Gaussian 09:  EM64L-G09RevE.01 30-Nov-2015

 ------------------------------------------------------
 #p b3lyp/6-311++G(3df,2p) freq IOp(2/17=3) IOp(2/18=3)
 ------------------------------------------------------

 ---------
 b3lyp opt
 ---------
 Symbolic Z-matrix:
 Charge =  0 Multiplicity = 1

                         Standard orientation:
 ---------------------------------------------------------------------
 Center     Atomic      Atomic             Coordinates (Angstroms)
 Number     Number       Type             X           Y           Z
 ---------------------------------------------------------------------
      1          6           0        0.000000    1.109027    0.000000
      2          6           0       -0.576809   -1.038664    0.000000
      3          8           0       -1.099554    0.424310    0.000000
      4          6           0        0.869589   -1.003076    0.000000
      5          6           0        1.173598    0.361730    0.000000
      6          1           0       -0.120309    2.186551    0.000000
      7          1           0       -1.019574   -1.480963    0.892314
      8          1           0       -1.019574   -1.480963   -0.892314
      9          1           0        2.157623    0.806783    0.000000
 ---------------------------------------------------------------------

 SCF Done:  E(RB3LYP) =  -230.012717904     A.U. after   13 cycles

 The electronic state is 1-A'.
 Alpha  occ. eigenvalues --  -19.19962 -10.28149 -10.23805 -10.18089 -10.17213
 Alpha  occ. eigenvalues --   -1.11649  -0.81490  -0.76198  -0.60976  -0.58271
 Alpha  occ. eigenvalues --   -0.52964  -0.50349  -0.46208  -0.40022  -0.38981
 Alpha  occ. eigenvalues --   -0.38682  -0.28956  -0.21923
 Alpha virt. eigenvalues --   -0.08746  -0.01050   0.00841   0.02258   0.02505
 Alpha virt. eigenvalues --    0.03237   0.03511   0.05898   0.06705   0.06940
 Alpha virt. eigenvalues --    0.09507   0.09812   0.10580   0.11661   0.12110

 Mulliken charges:
               1
     1  C    0.238205
     2  C    0.088361
     3  O   -0.642942
     4  C   -0.486927
     5  C    0.086167
     6  H    0.217502
     7  H    0.169276
     8  H    0.169276
     9  H    0.161084
 Sum of Mulliken charges =  -0.00000

 Dipole moment (field-independent basis, Debye):
    X=             -1.6547    Y=              2.3246    Z=              0.0000  Tot=              2.8534
 Quadrupole moment (field-independent basis, Debye-Ang):
   XX=            -32.8012   YY=            -28.8834   ZZ=            -29.5390
   XY=              6.5112   XZ=              0.0000   YZ=              0.0000

  Exact polarizability:  55.988  -1.803  63.723   0.000  -0.000  37.712
 Approx polarizability:  91.181  -9.454 100.463   0.000   0.000  56.633

                      1                      2                      3
                     A"                     A'                     A"
 Frequencies --    343.6805               431.2609               499.3045
 Red. masses --      1.6731                10.2992                 2.5532
 Frc consts  --      0.1164                 1.1286                 0.3750
 IR Inten    --     25.7727                48.9117                 0.9909

                      4                      5                      6
                     A"                     A'                     A'
 Frequencies --    785.3713               805.1110               879.4386
 Red. masses --      2.0433                 7.0495                 7.4581
 Frc consts  --      0.7426                 2.6923                 3.3985
 IR Inten    --      1.2721                 6.5537                33.6465

                      7                      8                      9
                     A"                     A"                     A'
 Frequencies --    897.5541              1014.1672              1015.5255
 Red. masses --      1.2570                 1.5703                 2.7983
 Frc consts  --      0.5966                 0.9516                 1.7003
 IR Inten    --     29.8433                 0.8105                14.5956

                     10                     11                     12
                     A'                     A'                     A"
 Frequencies --   1103.1051              1148.1865              1150.8821
 Red. masses --      1.5923                 1.7578                 1.0783
 Frc consts  --      1.1416                 1.3654                 0.8415
 IR Inten    --     13.3381                65.7384                 2.9447

                     13                     14                     15
                     A'                     A'                     A'
 Frequencies --   1249.6937              1297.4626              1392.6681
 Red. masses --      1.5077                 2.6072                 1.1463
 Frc consts  --      1.3873                 2.5859                 1.3099
 IR Inten    --      4.5215                52.2789                22.1504

                     16                     17                     18
                     A'                     A'                     A'
 Frequencies --   1415.0982              1508.5521              3074.4122
 Red. masses --      3.0254                 3.2723                 1.0579
 Frc consts  --      3.5695                 4.3875                 5.8916
 IR Inten    --    109.3630                45.9814                 0.1142

                     19                     20                     21
                     A"                     A'                     A'
 Frequencies --   3126.4326              3174.4505              3200.6351
 Red. masses --      1.1065                 1.0914                 1.0973
 Frc consts  --      6.3722                 6.4800                 6.6226
 IR Inten    --      0.3878                 4.2311                13.8229

 - Thermochemistry -
 -------------------
 Temperature   298.150 Kelvin.  Pressure   1.00000 Atm.
 Atom     1 has atomic number  6 and mass  12.00000

 Molecular mass:    68.02621 amu.
 Principal axes and moments of inertia in atomic units:
                           1         2         3
     Eigenvalues --   196.98149 206.79394 392.31295
           X            0.89052   0.45494   0.00000
           Y           -0.45494   0.89052   0.00000
           Z           -0.00000   0.00000   1.00000
 This molecule is an asymmetric top.
 Rotational symmetry number  1.
 Rotational temperatures (Kelvin)      0.43971     0.41884     0.22078
 Rotational constants (GHZ):           9.16198     8.72724     4.60026
 Zero-point vibrational energy     176526.9 (Joules/Mol)
                                   42.19094 (Kcal/Mol)
 Warning -- explicit consideration of   3 degrees of freedom as
           vibrations may cause significant error
 Vibrational temperatures:    494.48   620.49   718.39  1129.97  1158.37
          (Kelvin)           1265.31  1291.38  1459.16  1461.11  1587.12
                             1651.98  1655.86  1798.03  1866.76  2003.74
                             2036.01  2170.47  4423.39  4498.23  4567.32
                             4604.99

 Zero-point correction=                           0.067236 (Hartree/Particle)
 Thermal correction to Energy=                    0.071393
 Thermal correction to Enthalpy=                  0.072338
 Thermal correction to Gibbs Free Energy=         0.040634
 Sum of electronic and zero-point Energies=           -229.945482
 Sum of electronic and thermal Energies=              -229.941325
 Sum of electronic and thermal Enthalpies=            -229.940380
 Sum of electronic and thermal Free Energies=         -229.972084

                     E (Thermal)             CV                S
                      KCal/Mol        Cal/Mol-Kelvin    Cal/Mol-Kelvin
 Total                   44.800             14.639             66.726
 Electronic               0.000              0.000              0.000
 Translational            0.889              2.981             38.570
 Rotational               0.889              2.981             24.284
 Vibrational             43.023              8.678              3.872
 Vibration     1          0.722              1.588              1.195
 Vibration     2          0.792              1.402              0.855
 Vibration     3          0.855              1.252              0.660

 Normal termination of Gaussian 09 at Fri Mar  1 07:49:20 2019.
