 Gaussian 09, Revision E.01,
 Gaussian 09:  EM64L-G09RevE.01 30-Nov-2015

 ------------------------------------------------------
 #p b3lyp/6-311++G(3df,2p) freq IOp(2/17=3) IOp(2/18=3)
 ------------------------------------------------------

 ---------
 b3lyp opt
 ---------
 Symbolic Z-matrix:
 Charge =  1 Multiplicity = 2

                         Standard orientation:
 ---------------------------------------------------------------------
 Center     Atomic      Atomic             Coordinates (Angstroms)
 Number     Number       Type             X           Y           Z
 ---------------------------------------------------------------------
      1          6           0        0.739703   -0.810042   -0.000000
      2          6           0       -1.173648    0.346675    0.000000
      3          8           0       -0.537897   -0.977583    0.000000
      4          6           0       -0.000000    1.218787    0.000000
      5          6           0        1.163090    0.545772   -0.000000
      6          1           0        1.344450   -1.710360   -0.000000
      7          1           0       -1.798966    0.412728   -0.893393
      8          1           0       -1.798966    0.412728    0.893393
      9          1           0        2.181762    0.898481   -0.000000
 ---------------------------------------------------------------------

 SCF Done:  E(UB3LYP) =  -229.723605754     A.U. after   15 cycles

 The electronic state is 2-A'.
 Alpha  occ. eigenvalues --  -19.45222 -10.52973 -10.48872 -10.48255 -10.43147
 Alpha  occ. eigenvalues --   -1.37810  -1.07890  -1.01293  -0.84824  -0.83461
 Alpha  occ. eigenvalues --   -0.77867  -0.74473  -0.70210  -0.66476  -0.62353
 Alpha  occ. eigenvalues --   -0.62343  -0.54627  -0.53264
 Alpha virt. eigenvalues --   -0.33411  -0.20042  -0.16408  -0.14654  -0.12961
 Alpha virt. eigenvalues --   -0.11762  -0.11501  -0.10282  -0.09073  -0.07674
 Alpha virt. eigenvalues --   -0.06572  -0.05144  -0.03827  -0.03699  -0.01916

  Beta  occ. eigenvalues --  -19.45134 -10.52871 -10.48169 -10.47110 -10.43182
  Beta  occ. eigenvalues --   -1.37477  -1.06294  -1.00925  -0.84415  -0.82248
  Beta  occ. eigenvalues --   -0.76281  -0.74389  -0.69809  -0.65629  -0.62388
  Beta  occ. eigenvalues --   -0.61794  -0.53981
  Beta virt. eigenvalues --   -0.35629  -0.32168  -0.19449  -0.16321  -0.14237
  Beta virt. eigenvalues --   -0.12740  -0.11710  -0.11232  -0.09980  -0.08826
  Beta virt. eigenvalues --   -0.07687  -0.06234  -0.05079  -0.03634  -0.03418

 Mulliken charges and spin densities:
               1          2
     1  C    0.294832   0.018593
     2  C   -0.002985   0.038526
     3  O   -0.516105   0.023115
     4  C    0.216919   1.066210
     5  C    0.035758  -0.160506
     6  H    0.264164   0.004710
     7  H    0.231681  -0.002221
     8  H    0.231681  -0.002221
     9  H    0.244055   0.013793
 Sum of Mulliken charges =   1.00000   1.00000

 Dipole moment (field-independent basis, Debye):
    X=              0.6203    Y=              0.3602    Z=              0.0000  Tot=              0.7173
 Quadrupole moment (field-independent basis, Debye-Ang):
   XX=            -15.0596   YY=            -22.3534   ZZ=            -25.9042
   XY=             -3.1180   XZ=             -0.0000   YZ=              0.0000

  Exact polarizability:  49.162  -3.231  43.451   0.000   0.000  28.431
 Approx polarizability:  77.137  -7.755  77.014  -0.000   0.000  42.193

                      1                      2                      3
                     A"                     A"                     A'
 Frequencies --    370.9349               490.1450               798.4602
 Red. masses --      1.8727                 2.5516                 8.5862
 Frc consts  --      0.1518                 0.3612                 3.2252
 IR Inten    --     23.9766                 7.2108                 2.6042

                      4                      5                      6
                     A'                     A"                     A'
 Frequencies --    820.9599               832.8246               866.7029
 Red. masses --      6.6334                 1.4008                 6.2202
 Frc consts  --      2.6341                 0.5724                 2.7529
 IR Inten    --     11.8036                24.4392                28.2931

                      7                      8                      9
                     A"                     A'                     A"
 Frequencies --    916.9531               997.9376              1030.6311
 Red. masses --      1.5960                 2.1718                 1.5468
 Frc consts  --      0.7906                 1.2743                 0.9680
 IR Inten    --     13.5057                13.4675                 0.3035

                     10                     11                     12
                     A'                     A"                     A'
 Frequencies --   1072.1754              1174.5971              1240.6550
 Red. masses --      1.8250                 1.0898                 2.1327
 Frc consts  --      1.2361                 0.8858                 1.9341
 IR Inten    --     30.3212                 3.5607                36.6236

                     13                     14                     15
                     A'                     A'                     A'
 Frequencies --   1261.2752              1347.3220              1400.1476
 Red. masses --      1.4007                 2.0476                 1.2632
 Frc consts  --      1.3129                 2.1899                 1.4591
 IR Inten    --     17.3013                15.2703                90.9551

                     16                     17                     18
                     A'                     A'                     A'
 Frequencies --   1451.2204              1584.2902              3056.3879
 Red. masses --      2.4777                 5.5412                 1.0575
 Frc consts  --      3.0744                 8.1945                 5.8206
 IR Inten    --     75.9926                41.8982                56.2373

                     19                     20                     21
                     A"                     A'                     A'
 Frequencies --   3104.4273              3196.6709              3245.9076
 Red. masses --      1.1067                 1.0989                 1.1011
 Frc consts  --      6.2844                 6.6159                 6.8351
 IR Inten    --     29.5767                15.1416                41.7781

 - Thermochemistry -
 -------------------
 Temperature   298.150 Kelvin.  Pressure   1.00000 Atm.
 Atom     1 has atomic number  6 and mass  12.00000

 Molecular mass:    68.02621 amu.
 Principal axes and moments of inertia in atomic units:
                           1         2         3
     Eigenvalues --   182.56974 211.75864 382.83816
           X            0.96317  -0.26889   0.00000
           Y            0.26889   0.96317   0.00000
           Z            0.00000  -0.00000   1.00000
 This molecule is an asymmetric top.
 Rotational symmetry number  1.
 Rotational temperatures (Kelvin)      0.47441     0.40902     0.22624
 Rotational constants (GHZ):           9.88522     8.52263     4.71411
 Zero-point vibrational energy     180998.7 (Joules/Mol)
                                   43.25974 (Kcal/Mol)
 Warning -- explicit consideration of   2 degrees of freedom as
           vibrations may cause significant error
 Vibrational temperatures:    533.69   705.21  1148.80  1181.18  1198.25
          (Kelvin)           1246.99  1319.29  1435.81  1482.85  1542.62
                             1689.98  1785.02  1814.69  1938.49  2014.50
                             2087.98  2279.44  4397.45  4466.57  4599.29
                             4670.13

 Zero-point correction=                           0.068939 (Hartree/Particle)
 Thermal correction to Energy=                    0.072844
 Thermal correction to Enthalpy=                  0.073788
 Thermal correction to Gibbs Free Energy=         0.041855
 Sum of electronic and zero-point Energies=           -229.654667
 Sum of electronic and thermal Energies=              -229.650762
 Sum of electronic and thermal Enthalpies=            -229.649818
 Sum of electronic and thermal Free Energies=         -229.681750

                     E (Thermal)             CV                S
                      KCal/Mol        Cal/Mol-Kelvin    Cal/Mol-Kelvin
 Total                   45.710             13.634             67.208
 Electronic               0.000              0.000              1.377
 Translational            0.889              2.981             38.570
 Rotational               0.889              2.981             24.207
 Vibrational             43.933              7.672              3.054
 Vibration     1          0.743              1.532              1.076
 Vibration     2          0.846              1.272              0.683

 Normal termination of Gaussian 09 at Fri Mar  1 08:19:41 2019.
