 Gaussian 09, Revision E.01,
 Gaussian 09:  EM64L-G09RevE.01 30-Nov-2015

 ------------------------------------------------------
 #p b3lyp/6-311++G(3df,2p) freq IOp(2/17=3) IOp(2/18=3)
 ------------------------------------------------------

 ---------
 b3lyp opt
 ---------
 Symbolic Z-matrix:
 Charge =  1 Multiplicity = 2

                         Standard orientation:
 ---------------------------------------------------------------------
 Center     Atomic      Atomic             Coordinates (Angstroms)
 Number     Number       Type             X           Y           Z
 ---------------------------------------------------------------------
      1          6           0        1.425448    0.211190    0.248133
      2          6           0       -2.171375   -0.393464    0.091329
      3          8           0        1.646929   -0.873294   -0.179073
      4          6           0       -1.039870    0.238759   -0.063208
      5          6           0        0.091386    0.878623   -0.144340
      6          1           0        2.122202    0.802770    0.858155
      7          1           0       -2.777492   -0.667154   -0.769969
      8          1           0       -2.545394   -0.652930    1.079230
      9          1           0        0.191716    1.893015   -0.526321
 ---------------------------------------------------------------------

 SCF Done:  E(UB3LYP) =  -229.714196369     A.U. after   18 cycles

 The electronic state is 2-A.
 Alpha  occ. eigenvalues --  -19.41310 -10.52088 -10.47012 -10.46107 -10.44362
 Alpha  occ. eigenvalues --   -1.33769  -1.06928  -0.98714  -0.86784  -0.76983
 Alpha  occ. eigenvalues --   -0.75031  -0.72085  -0.70425  -0.68699  -0.65460
 Alpha  occ. eigenvalues --   -0.56333  -0.54344  -0.50708
 Alpha virt. eigenvalues --   -0.29769  -0.26714  -0.20473  -0.15682  -0.13165
 Alpha virt. eigenvalues --   -0.12180  -0.10166  -0.09949  -0.08699  -0.07355
 Alpha virt. eigenvalues --   -0.06785  -0.05206  -0.04664  -0.03883  -0.03088

  Beta  occ. eigenvalues --  -19.40326 -10.52142 -10.46908 -10.45653 -10.43964
  Beta  occ. eigenvalues --   -1.31979  -1.05712  -0.97291  -0.86008  -0.75898
  Beta  occ. eigenvalues --   -0.73251  -0.71327  -0.69425  -0.67928  -0.64416
  Beta  occ. eigenvalues --   -0.54230  -0.50849
  Beta virt. eigenvalues --   -0.41758  -0.28779  -0.25295  -0.19458  -0.15472
  Beta virt. eigenvalues --   -0.12966  -0.12006  -0.10065  -0.09629  -0.08607
  Beta virt. eigenvalues --   -0.07173  -0.06521  -0.05038  -0.04454  -0.03780

 Mulliken charges and spin densities:
               1          2
     1  C    0.342836  -0.045869
     2  C   -0.304159   0.258700
     3  O   -0.345707   0.354257
     4  C    0.636149   0.083504
     5  C   -0.268295   0.280767
     6  H    0.234761   0.039574
     7  H    0.244255   0.004272
     8  H    0.240340   0.003241
     9  H    0.219819   0.021553
 Sum of Mulliken charges =   1.00000   1.00000

 Dipole moment (field-independent basis, Debye):
    X=             -2.1537    Y=              2.1258    Z=              0.8777  Tot=              3.1508
 Quadrupole moment (field-independent basis, Debye-Ang):
   XX=             -8.5143   YY=            -23.2986   ZZ=            -24.3842
   XY=              6.6318   XZ=              1.8046   YZ=             -1.1042

  Exact polarizability: 115.615  -1.368  44.463   1.807  -0.132  31.380
 Approx polarizability: 206.745  -8.217  77.640  -2.546   1.540  45.663

                      1                      2                      3
                      A                      A                      A
 Frequencies --    111.6039               160.9892               304.1056
 Red. masses --      2.7123                 3.1973                 1.8383
 Frc consts  --      0.0199                 0.0488                 0.1002
 IR Inten    --      8.4582                11.0937                40.7539

                      4                      5                      6
                      A                      A                      A
 Frequencies --    353.7178               475.0996               612.1673
 Red. masses --      4.0333                 1.7873                 2.0732
 Frc consts  --      0.2973                 0.2377                 0.4578
 IR Inten    --     13.6925                66.4840                39.6225

                      7                      8                      9
                      A                      A                      A
 Frequencies --    729.1862               846.3926               921.0829
 Red. masses --      3.0989                 1.9104                 1.4542
 Frc consts  --      0.9708                 0.8063                 0.7269
 IR Inten    --     23.7653               126.4451                16.6151

                     10                     11                     12
                      A                      A                      A
 Frequencies --    961.0869               990.6722              1094.5372
 Red. masses --      1.4361                 1.8364                 1.5265
 Frc consts  --      0.7815                 1.0619                 1.0775
 IR Inten    --     21.7508                 6.4331                 1.1943

                     13                     14                     15
                      A                      A                      A
 Frequencies --   1192.3020              1295.2632              1409.3629
 Red. masses --      1.7582                 1.2097                 1.3254
 Frc consts  --      1.4726                 1.1958                 1.5511
 IR Inten    --     90.2374                97.4998                15.4261

                     16                     17                     18
                      A                      A                      A
 Frequencies --   1650.5191              1855.3157              3017.0513
 Red. masses --      8.4921                 9.5356                 1.0927
 Frc consts  --     13.6303                19.3391                 5.8600
 IR Inten    --     17.5225                24.4529                17.0110

                     19                     20                     21
                      A                      A                      A
 Frequencies --   3088.1072              3120.5162              3173.3920
 Red. masses --      1.0547                 1.0891                 1.1147
 Frc consts  --      5.9260                 6.2485                 6.6136
 IR Inten    --    113.7492                67.0878                49.5816

 - Thermochemistry -
 -------------------
 Temperature   298.150 Kelvin.  Pressure   1.00000 Atm.
 Atom     1 has atomic number  6 and mass  12.00000

 Molecular mass:    68.02621 amu.
 Principal axes and moments of inertia in atomic units:
                           1         2         3
     Eigenvalues --   120.85839 574.35976 663.64164
           X            0.99904   0.04326   0.00644
           Y           -0.04314   0.99891  -0.01767
           Z           -0.00720   0.01737   0.99982
 This molecule is an asymmetric top.
 Rotational symmetry number  1.
 Rotational temperatures (Kelvin)      0.71666     0.15080     0.13051
 Rotational constants (GHZ):          14.93269     3.14218     2.71945
 Zero-point vibrational energy     163663.9 (Joules/Mol)
                                   39.11662 (Kcal/Mol)
 Warning -- explicit consideration of   6 degrees of freedom as
           vibrations may cause significant error
 Vibrational temperatures:    160.57   231.63   437.54   508.92   683.56
          (Kelvin)            880.77  1049.14  1217.77  1325.23  1382.79
                             1425.35  1574.79  1715.45  1863.59  2027.76
                             2374.73  2669.38  4340.86  4443.09  4489.72
                             4565.80

 Zero-point correction=                           0.062336 (Hartree/Particle)
 Thermal correction to Energy=                    0.068038
 Thermal correction to Enthalpy=                  0.068982
 Thermal correction to Gibbs Free Energy=         0.033015
 Sum of electronic and zero-point Energies=           -229.651860
 Sum of electronic and thermal Energies=              -229.646158
 Sum of electronic and thermal Enthalpies=            -229.645214
 Sum of electronic and thermal Free Energies=         -229.681181

                     E (Thermal)             CV                S
                      KCal/Mol        Cal/Mol-Kelvin    Cal/Mol-Kelvin
 Total                   42.695             18.782             75.699
 Electronic               0.000              0.000              1.377
 Translational            0.889              2.981             38.570
 Rotational               0.889              2.981             25.336
 Vibrational             40.917             12.820             10.417
 Vibration     1          0.607              1.940              3.241
 Vibration     2          0.622              1.890              2.538
 Vibration     3          0.695              1.666              1.394
 Vibration     4          0.730              1.568              1.150
 Vibration     5          0.832              1.305              0.723
 Vibration     6          0.971              1.006              0.429

 Optimization completed.
    -- Stationary point found.
 Normal termination of Gaussian 09 at Fri Mar  1 08:04:42 2019.
