 Gaussian 09, Revision E.01,
 Gaussian 09:  EM64L-G09RevE.01 30-Nov-2015

 ------------------------------------------------------
 #p b3lyp/6-311++G(3df,2p) freq IOp(2/17=3) IOp(2/18=3)
 ------------------------------------------------------

 ---------
 b3lyp opt
 ---------
 Symbolic Z-matrix:
 Charge =  0 Multiplicity = 1

                         Standard orientation:
 ---------------------------------------------------------------------
 Center     Atomic      Atomic             Coordinates (Angstroms)
 Number     Number       Type             X           Y           Z
 ---------------------------------------------------------------------
      1          6           0       -0.244622   -1.018520    0.000000
      2          6           0       -0.244622    1.488955    0.639583
      3          8           0        0.315058   -2.086126    0.000000
      4          6           0       -0.244622    1.488955   -0.639583
      5          6           0        0.442785    0.294356   -0.000000
      6          1           0       -1.355727   -0.953265    0.000000
      7          1           0       -0.473202    1.946634   -1.583766
      8          1           0       -0.473202    1.946634    1.583766
      9          1           0        1.528152    0.226531   -0.000000
 ---------------------------------------------------------------------

 SCF Done:  E(RB3LYP) =  -230.030188537     A.U. after   12 cycles

 The electronic state is 1-A'.
 Alpha  occ. eigenvalues --  -19.12020 -10.25561 -10.22023 -10.21899 -10.21274
 Alpha  occ. eigenvalues --   -1.04954  -0.90998  -0.68380  -0.59849  -0.57933
 Alpha  occ. eigenvalues --   -0.54132  -0.46232  -0.45089  -0.40740  -0.38862
 Alpha  occ. eigenvalues --   -0.31735  -0.30921  -0.25657
 Alpha virt. eigenvalues --   -0.05413  -0.01659  -0.00575   0.01206   0.01292
 Alpha virt. eigenvalues --    0.01795   0.05092   0.06356   0.06795   0.07250
 Alpha virt. eigenvalues --    0.08521   0.09445   0.10853   0.10855   0.11114

 Mulliken charges:
               1
     1  C    0.158012
     2  C   -0.166112
     3  O   -0.610972
     4  C   -0.166112
     5  C    0.006279
     6  H    0.116861
     7  H    0.251557
     8  H    0.251557
     9  H    0.158931
 Sum of Mulliken charges =  -0.00000

 Dipole moment (field-independent basis, Debye):
    X=             -1.0451    Y=              3.7698    Z=              0.0000  Tot=              3.9120
 Quadrupole moment (field-independent basis, Debye-Ang):
   XX=            -29.4915   YY=            -34.9709   ZZ=            -26.0771
   XY=              1.3139   XZ=             -0.0000   YZ=             -0.0000

  Exact polarizability:  43.819  -5.735  61.212  -0.000   0.000  43.266
 Approx polarizability:  63.144 -11.681  85.738  -0.000   0.000  72.083

                      1                      2                      3
                     A"                     A'                     A"
 Frequencies --    134.3724               323.5642               345.8705
 Red. masses --      3.6771                 3.4992                 2.1357
 Frc consts  --      0.0391                 0.2158                 0.1505
 IR Inten    --      4.4649                 4.0556                 2.5870

                      4                      5                      6
                     A'                     A'                     A"
 Frequencies --    519.9627               639.0472               745.5039
 Red. masses --      6.0851                 1.2230                 3.4157
 Frc consts  --      0.9693                 0.2943                 1.1185
 IR Inten    --     10.0304               100.0783                 3.9399

                      7                      8                      9
                     A"                     A'                     A"
 Frequencies --    860.8871               929.6233              1010.2087
 Red. masses --      1.4377                 1.1596                 1.3999
 Frc consts  --      0.6278                 0.5904                 0.8417
 IR Inten    --      0.0622                 2.8960                43.1200

                     10                     11                     12
                     A"                     A"                     A'
 Frequencies --   1034.3774              1071.0746              1105.4872
 Red. masses --      1.5499                 1.4431                 4.2613
 Frc consts  --      0.9771                 0.9754                 3.0683
 IR Inten    --      0.2632                 6.5122                16.1880

                     13                     14                     15
                     A'                     A'                     A'
 Frequencies --   1113.0250              1318.2598              1413.7189
 Red. masses --      4.5895                 1.2063                 1.2243
 Frc consts  --      3.3498                 1.2351                 1.4417
 IR Inten    --     65.6142                 2.7429                 1.3833

                     16                     17                     18
                     A'                     A'                     A'
 Frequencies --   1741.8126              1798.8197              2845.3604
 Red. masses --      5.6297                 8.5858                 1.0824
 Frc consts  --     10.0632                16.3683                 5.1632
 IR Inten    --    129.3153               167.7460               101.6881

                     19                     20                     21
                     A'                     A"                     A'
 Frequencies --   3093.1318              3257.1527              3306.2575
 Red. masses --      1.0863                 1.0844                 1.1510
 Frc consts  --      6.1233                 6.7783                 7.4131
 IR Inten    --     25.8300                 5.6209                 1.9925

 - Thermochemistry -
 -------------------
 Temperature   298.150 Kelvin.  Pressure   1.00000 Atm.
 Atom     1 has atomic number  6 and mass  12.00000

 Molecular mass:    68.02621 amu.
 Principal axes and moments of inertia in atomic units:
                           1         2         3
     Eigenvalues --    85.65767 555.33396 575.90460
           X           -0.10897   0.00000   0.99405
           Y            0.99405   0.00000   0.10897
           Z            0.00000   1.00000   0.00000
 This molecule is an asymmetric top.
 Rotational symmetry number  1.
 Rotational temperatures (Kelvin)      1.01116     0.15597     0.15040
 Rotational constants (GHZ):          21.06923     3.24983     3.13375
 Zero-point vibrational energy     171111.0 (Joules/Mol)
                                   40.89650 (Kcal/Mol)
 Warning -- explicit consideration of   4 degrees of freedom as
           vibrations may cause significant error
 Vibrational temperatures:    193.33   465.54   497.63   748.11   919.45
          (Kelvin)           1072.61  1238.62  1337.52  1453.46  1488.24
                             1541.04  1590.55  1601.39  1896.68  2034.02
                             2506.08  2588.10  4093.83  4450.32  4686.31
                             4756.96

 Zero-point correction=                           0.065173 (Hartree/Particle)
 Thermal correction to Energy=                    0.070154
 Thermal correction to Enthalpy=                  0.071098
 Thermal correction to Gibbs Free Energy=         0.037506
 Sum of electronic and zero-point Energies=           -229.965016
 Sum of electronic and thermal Energies=              -229.960035
 Sum of electronic and thermal Enthalpies=            -229.959091
 Sum of electronic and thermal Free Energies=         -229.992683

                     E (Thermal)             CV                S
                      KCal/Mol        Cal/Mol-Kelvin    Cal/Mol-Kelvin
 Total                   44.022             16.865             70.700
 Electronic               0.000              0.000              0.000
 Translational            0.889              2.981             38.570
 Rotational               0.889              2.981             24.819
 Vibrational             42.245             10.903              7.312
 Vibration     1          0.613              1.919              2.882
 Vibration     2          0.708              1.628              1.292
 Vibration     3          0.724              1.584              1.185
 Vibration     4          0.875              1.206              0.610

 Optimization completed.
    -- Stationary point found.
 Normal termination of Gaussian 09 at Fri Mar  1 07:37:35 2019.
