 Gaussian 09, Revision E.01,
 Gaussian 09:  EM64L-G09RevE.01 30-Nov-2015

 ------------------------------------------------------
 #p b3lyp/6-311++G(3df,2p) freq IOp(2/17=3) IOp(2/18=3)
 ------------------------------------------------------

 ---------
 b3lyp opt
 ---------
 Symbolic Z-matrix:
 Charge =  1 Multiplicity = 2

                         Standard orientation:
 ---------------------------------------------------------------------
 Center     Atomic      Atomic             Coordinates (Angstroms)
 Number     Number       Type             X           Y           Z
 ---------------------------------------------------------------------
      1          8           0        2.315247    1.063407    0.000000
      2          6           0       -1.761762   -1.496653    0.000000
      3          6           0       -1.257963   -0.101546    0.000000
      4          6           0        0.000000    0.276535    0.000000
      5          6           0        1.232973    0.701592    0.000000
      6          1           0       -2.411313   -1.621965    0.873347
      7          1           0       -2.411313   -1.621965   -0.873347
      8          1           0       -0.974025   -2.241988    0.000000
      9          1           0       -2.004811    0.699083    0.000000
 ---------------------------------------------------------------------

 SCF Done:  E(UB3LYP) =  -229.749802078     A.U. after   17 cycles

 The electronic state is 2-A'.
 Alpha  occ. eigenvalues --  -19.46636 -10.56358 -10.48827 -10.48598 -10.39175
 Alpha  occ. eigenvalues --   -1.39548  -1.09212  -1.00474  -0.89995  -0.77396
 Alpha  occ. eigenvalues --   -0.75674  -0.73136  -0.71948  -0.66930  -0.64135
 Alpha  occ. eigenvalues --   -0.60655  -0.55174  -0.51902
 Alpha virt. eigenvalues --   -0.33628  -0.21064  -0.16575  -0.13847  -0.13147
 Alpha virt. eigenvalues --   -0.12882  -0.10826  -0.10601  -0.08487  -0.08346
 Alpha virt. eigenvalues --   -0.07627  -0.06027  -0.05273  -0.04289  -0.03664

  Beta  occ. eigenvalues --  -19.45775 -10.56369 -10.48738 -10.47807 -10.39066
  Beta  occ. eigenvalues --   -1.38128  -1.07304  -0.99084  -0.89555  -0.76245
  Beta  occ. eigenvalues --   -0.74501  -0.71248  -0.69531  -0.65656  -0.64118
  Beta  occ. eigenvalues --   -0.60398  -0.54336
  Beta virt. eigenvalues --   -0.40122  -0.33577  -0.17935  -0.15823  -0.13237
  Beta virt. eigenvalues --   -0.12695  -0.12504  -0.10833  -0.10067  -0.08416
  Beta virt. eigenvalues --   -0.08132  -0.07513  -0.05999  -0.05019  -0.04147

 Mulliken charges and spin densities:
               1          2
     1  O   -0.441693   0.296277
     2  C   -0.446718   0.050085
     3  C    0.203490  -0.050452
     4  C    1.020677   0.758346
     5  C   -0.187269  -0.099748
     6  H    0.214371   0.001316
     7  H    0.214371   0.001316
     8  H    0.196921  -0.000825
     9  H    0.225849   0.043685
 Sum of Mulliken charges =   1.00000   1.00000

 Dipole moment (field-independent basis, Debye):
    X=             -2.7733    Y=             -0.5570    Z=             -0.0000  Tot=              2.8286
 Quadrupole moment (field-independent basis, Debye-Ang):
   XX=            -13.5844   YY=            -20.4129   ZZ=            -26.1387
   XY=              4.9486   XZ=              0.0000   YZ=              0.0000

  Exact polarizability:  78.388  21.748  44.304  -0.000  -0.000  29.414
 Approx polarizability: 143.581  39.379  63.081   0.000   0.000  41.898

                      1                      2                      3
                     A'                     A"                     A"
 Frequencies --     90.7756               133.5350               205.4115
 Red. masses --      4.7236                 1.5927                 2.0931
 Frc consts  --      0.0229                 0.0167                 0.0520
 IR Inten    --      0.1109                 1.1824                 0.0808

                      4                      5                      6
                     A'                     A'                     A"
 Frequencies --    411.9679               465.7735               578.6574
 Red. masses --      5.1174                 8.3356                11.5685
 Frc consts  --      0.5117                 1.0655                 2.2823
 IR Inten    --      2.1096                11.8861                24.7718

                      7                      8                      9
                     A"                     A'                     A'
 Frequencies --    773.5012               776.4525              1008.2268
 Red. masses --      1.1417                 3.4513                 1.6704
 Frc consts  --      0.4025                 1.2259                 1.0004
 IR Inten    --     11.9202                 7.0766                40.1684

                     10                     11                     12
                     A"                     A'                     A'
 Frequencies --   1033.9765              1100.4758              1286.6140
 Red. masses --      1.6957                 2.7114                 1.3108
 Frc consts  --      1.0681                 1.9346                 1.2784
 IR Inten    --      0.6814                 4.6611                10.0911

                     13                     14                     15
                     A'                     A"                     A'
 Frequencies --   1363.6245              1444.8447              1467.7814
 Red. masses --      1.1603                 1.0456                 1.1078
 Frc consts  --      1.2712                 1.2860                 1.4061
 IR Inten    --     26.8394                15.3315                36.9848

                     16                     17                     18
                     A'                     A'                     A'
 Frequencies --   1775.7546              2238.9487              3006.9934
 Red. masses --     10.1980                12.5618                 1.0396
 Frc consts  --     18.9465                37.1014                 5.5384
 IR Inten    --     50.4496               800.6108                47.8512

                     19                     20                     21
                     A'                     A"                     A'
 Frequencies --   3049.7241              3050.5509              3165.0723
 Red. masses --      1.0826                 1.0956                 1.1016
 Frc consts  --      5.9326                 6.0070                 6.5017
 IR Inten    --     41.7926                10.6708                 8.5068

 - Thermochemistry -
 -------------------
 Temperature   298.150 Kelvin.  Pressure   1.00000 Atm.
 Atom     1 has atomic number  8 and mass  15.99491

 Molecular mass:    68.02621 amu.
 Principal axes and moments of inertia in atomic units:
                           1         2         3
     Eigenvalues --    48.06203 814.65649 851.73817
           X            0.87444  -0.48514   0.00000
           Y            0.48514   0.87444   0.00000
           Z            0.00000  -0.00000   1.00000
 This molecule is an asymmetric top.
 Rotational symmetry number  1.
 Rotational temperatures (Kelvin)      1.80213     0.10632     0.10169
 Rotational constants (GHZ):          37.55025     2.21534     2.11889
 Zero-point vibrational energy     170041.2 (Joules/Mol)
                                   40.64081 (Kcal/Mol)
 Warning -- explicit consideration of   6 degrees of freedom as
           vibrations may cause significant error
 Vibrational temperatures:    130.61   192.13   295.54   592.73   670.14
          (Kelvin)            832.56  1112.89  1117.14  1450.61  1487.66
                             1583.34  1851.15  1961.95  2078.81  2111.81
                             2554.91  3221.34  4326.39  4387.87  4389.06
                             4553.83

 Zero-point correction=                           0.064765 (Hartree/Particle)
 Thermal correction to Energy=                    0.070594
 Thermal correction to Enthalpy=                  0.071539
 Thermal correction to Gibbs Free Energy=         0.035184
 Sum of electronic and zero-point Energies=           -229.685037
 Sum of electronic and thermal Energies=              -229.679208
 Sum of electronic and thermal Enthalpies=            -229.678263
 Sum of electronic and thermal Free Energies=         -229.714618

                     E (Thermal)             CV                S
                      KCal/Mol        Cal/Mol-Kelvin    Cal/Mol-Kelvin
 Total                   44.299             18.374             76.514
 Electronic               0.000              0.000              1.377
 Translational            0.889              2.981             38.570
 Rotational               0.889              2.981             25.015
 Vibrational             42.521             12.413             11.553
 Vibration     1          0.602              1.956              3.643
 Vibration     2          0.613              1.920              2.894
 Vibration     3          0.640              1.832              2.084
 Vibration     4          0.776              1.444              0.920
 Vibration     5          0.823              1.326              0.749
 Vibration     6          0.935              1.077              0.488

 Normal termination of Gaussian 09 at Fri Mar  1 08:31:40 2019.
