 Gaussian 09, Revision E.01,
 Gaussian 09:  EM64L-G09RevE.01 30-Nov-2015

 ------------------------------------------------------
 #p b3lyp/6-311++G(3df,2p) freq IOp(2/17=3) IOp(2/18=3)
 ------------------------------------------------------

 ---------
 b3lyp opt
 ---------
 Symbolic Z-matrix:
 Charge =  1 Multiplicity = 2

                         Standard orientation:
 ---------------------------------------------------------------------
 Center     Atomic      Atomic             Coordinates (Angstroms)
 Number     Number       Type             X           Y           Z
 ---------------------------------------------------------------------
      1          6           0        1.521710   -0.866312   -0.000045
      2          6           0        0.422864    0.130045   -0.000031
      3          8           0        0.630629    1.348098   -0.000023
      4          6           0       -0.964501   -0.141714    0.000253
      5          6           0       -2.164619   -0.281272   -0.000121
      6          1           0        2.496416   -0.385767   -0.001314
      7          1           0        1.393395   -1.498480   -0.884679
      8          1           0        1.394925   -1.496829    0.886014
      9          1           0       -3.222495   -0.448196   -0.000174
 ---------------------------------------------------------------------

 SCF Done:  E(UB3LYP) =  -229.697085769     A.U. after   18 cycles

 The electronic state is 2-A.
 Alpha  occ. eigenvalues --  -19.49622 -10.56700 -10.46028 -10.44385 -10.41311
 Alpha  occ. eigenvalues --   -1.39323  -1.04814  -0.99995  -0.90933  -0.79233
 Alpha  occ. eigenvalues --   -0.76401  -0.73991  -0.72687  -0.63991  -0.63446
 Alpha  occ. eigenvalues --   -0.61881  -0.55465  -0.55030
 Alpha virt. eigenvalues --   -0.33488  -0.22056  -0.16269  -0.15922  -0.12695
 Alpha virt. eigenvalues --   -0.10850  -0.10758  -0.10344  -0.08886  -0.08146
 Alpha virt. eigenvalues --   -0.06797  -0.06139  -0.06010  -0.04390  -0.03104

  Beta  occ. eigenvalues --  -19.47403 -10.56792 -10.45810 -10.44164 -10.41200
  Beta  occ. eigenvalues --   -1.35025  -1.03703  -0.99185  -0.89362  -0.77389
  Beta  occ. eigenvalues --   -0.75222  -0.71620  -0.70942  -0.63562  -0.62715
  Beta  occ. eigenvalues --   -0.54951  -0.54085
  Beta virt. eigenvalues --   -0.44552  -0.33006  -0.20654  -0.16168  -0.15777
  Beta virt. eigenvalues --   -0.12603  -0.10746  -0.10713  -0.10193  -0.08769
  Beta virt. eigenvalues --   -0.07975  -0.06774  -0.06042  -0.06007  -0.04109

 Mulliken charges and spin densities:
               1          2
     1  C   -0.321493   0.061770
     2  C    0.310965  -0.055821
     3  O   -0.286916   0.801579
     4  C    0.223100   0.080714
     5  C    0.046418   0.111519
     6  H    0.205129  -0.003076
     7  H    0.230021   0.002823
     8  H    0.230073   0.002792
     9  H    0.362704  -0.002300
 Sum of Mulliken charges =   1.00000   1.00000

 Dipole moment (field-independent basis, Debye):
    X=             -0.9868    Y=             -2.0353    Z=             -0.0001  Tot=              2.2619
 Quadrupole moment (field-independent basis, Debye-Ang):
   XX=             -5.8406   YY=            -24.4989   ZZ=            -26.2129
   XY=             -0.6177   XZ=              0.0014   YZ=             -0.0002

  Exact polarizability:  85.840   7.424  43.687   0.008   0.001  29.566
 Approx polarizability: 155.177  30.471  77.437   0.013  -0.001  42.342

                      1                      2                      3
                      A                      A                      A
 Frequencies --    119.0490               124.6165               215.1027
 Red. masses --      1.0611                 4.5775                 4.1262
 Frc consts  --      0.0089                 0.0419                 0.1125
 IR Inten    --      0.0797                 3.6533                 8.0566

                      4                      5                      6
                      A                      A                      A
 Frequencies --    326.0587               473.7167               554.2532
 Red. masses --      4.0354                 4.9508                 2.7102
 Frc consts  --      0.2528                 0.6546                 0.4905
 IR Inten    --     19.6367                18.9745                 4.3416

                      7                      8                      9
                      A                      A                      A
 Frequencies --    749.2766               763.8074               798.9480
 Red. masses --      1.5791                 2.8827                 1.2944
 Frc consts  --      0.5223                 0.9909                 0.4868
 IR Inten    --     20.6340                11.7204                22.1092

                     10                     11                     12
                      A                      A                      A
 Frequencies --    984.3439              1005.7243              1133.0033
 Red. masses --      1.8054                 1.7461                 3.8742
 Frc consts  --      1.0307                 1.0406                 2.9302
 IR Inten    --      8.7866                13.0184                40.5530

                     13                     14                     15
                      A                      A                      A
 Frequencies --   1327.9878              1423.6757              1436.5595
 Red. masses --      1.2647                 1.1469                 1.0444
 Frc consts  --      1.3141                 1.3696                 1.2699
 IR Inten    --     39.8549                 4.0534                17.0003

                     16                     17                     18
                      A                      A                      A
 Frequencies --   1541.4002              2167.5659              3009.6376
 Red. masses --      4.3208                 5.9357                 1.0352
 Frc consts  --      6.0485                16.4312                 5.5248
 IR Inten    --     14.6407               484.1675                60.9951

                     19                     20                     21
                      A                      A                      A
 Frequencies --   3070.5838              3152.1727              3385.9579
 Red. masses --      1.0984                 1.1031                 1.1667
 Frc consts  --      6.1019                 6.4576                 7.8805
 IR Inten    --     19.2604                 7.3815                82.6984

 - Thermochemistry -
 -------------------
 Temperature   298.150 Kelvin.  Pressure   1.00000 Atm.
 Atom     1 has atomic number  6 and mass  12.00000

 Molecular mass:    68.02621 amu.
 Principal axes and moments of inertia in atomic units:
                           1         2         3
     Eigenvalues --   162.59933 450.11189 601.42702
           X            0.99890  -0.04695   0.00000
           Y            0.04695   0.99890   0.00000
           Z           -0.00000  -0.00000   1.00000
 This molecule is an asymmetric top.
 Rotational symmetry number  1.
 Rotational temperatures (Kelvin)      0.53268     0.19243     0.14401
 Rotational constants (GHZ):          11.09932     4.00954     3.00077
 Zero-point vibrational energy     166062.3 (Joules/Mol)
                                   39.68983 (Kcal/Mol)
 Warning -- explicit consideration of   6 degrees of freedom as
           vibrations may cause significant error
 Vibrational temperatures:    171.28   179.30   309.48   469.13   681.57
          (Kelvin)            797.45  1078.04  1098.95  1149.51  1416.25
                             1447.01  1630.14  1910.68  2048.35  2066.89
                             2217.73  3118.64  4330.19  4417.88  4535.27
                             4871.63

 Zero-point correction=                           0.063250 (Hartree/Particle)
 Thermal correction to Energy=                    0.069214
 Thermal correction to Enthalpy=                  0.070158
 Thermal correction to Gibbs Free Energy=         0.033604
 Sum of electronic and zero-point Energies=           -229.633836
 Sum of electronic and thermal Energies=              -229.627872
 Sum of electronic and thermal Enthalpies=            -229.626927
 Sum of electronic and thermal Free Energies=         -229.663482

                     E (Thermal)             CV                S
                      KCal/Mol        Cal/Mol-Kelvin    Cal/Mol-Kelvin
 Total                   43.433             19.222             76.935
 Electronic               0.000              0.000              1.377
 Translational            0.889              2.981             38.570
 Rotational               0.889              2.981             25.290
 Vibrational             41.655             13.261             11.697
 Vibration     1          0.609              1.933              3.116
 Vibration     2          0.610              1.928              3.028
 Vibration     3          0.645              1.818              2.000
 Vibration     4          0.710              1.623              1.280
 Vibration     5          0.831              1.308              0.727
 Vibration     6          0.910              1.130              0.535

 Normal termination of Gaussian 09 at Fri Mar  1 08:20:31 2019.
