 Gaussian 09, Revision E.01,
 Gaussian 09:  EM64L-G09RevE.01 30-Nov-2015

 ------------------------------------------------------
 #p b3lyp/6-311++G(3df,2p) freq IOp(2/17=3) IOp(2/18=3)
 ------------------------------------------------------

 ---------
 b3lyp opt
 ---------
 Symbolic Z-matrix:
 Charge =  0 Multiplicity = 1

                         Standard orientation:
 ---------------------------------------------------------------------
 Center     Atomic      Atomic             Coordinates (Angstroms)
 Number     Number       Type             X           Y           Z
 ---------------------------------------------------------------------
      1          6           0        0.000000    1.092662    0.345788
      2          6           0       -0.000000   -1.092662    0.345788
      3          8           0        0.000000    0.000000    1.156019
      4          6           0        0.000000   -0.715900   -0.955183
      5          6           0        0.000000    0.715900   -0.955183
      6          1           0        0.000000    2.045865    0.842054
      7          1           0       -0.000000   -2.045865    0.842054
      8          1           0        0.000000   -1.369869   -1.809752
      9          1           0        0.000000    1.369869   -1.809752
 ---------------------------------------------------------------------

 SCF Done:  E(RB3LYP) =  -230.105615373     A.U. after   10 cycles

 The electronic state is 1-A1.
 Alpha  occ. eigenvalues --  -19.19452 -10.22262 -10.22259 -10.17451 -10.17411
 Alpha  occ. eigenvalues --   -1.11702  -0.80632  -0.75161  -0.60533  -0.57547
 Alpha  occ. eigenvalues --   -0.54888  -0.45834  -0.45171  -0.41826  -0.40511
 Alpha  occ. eigenvalues --   -0.38072  -0.28923  -0.23967
 Alpha virt. eigenvalues --   -0.00548  -0.00238   0.01223   0.01803   0.03488
 Alpha virt. eigenvalues --    0.04722   0.05017   0.05784   0.07326   0.09016
 Alpha virt. eigenvalues --    0.09550   0.10396   0.10546   0.11962   0.12173

 Mulliken charges:
               1
     1  C    0.021025
     2  C    0.021025
     3  O   -0.577572
     4  C   -0.110809
     5  C   -0.110809
     6  H    0.198845
     7  H    0.198845
     8  H    0.179724
     9  H    0.179724
 Sum of Mulliken charges =  -0.00000

 Dipole moment (field-independent basis, Debye):
    X=             -0.0000    Y=             -0.0000    Z=             -0.6738  Tot=              0.6738
 Quadrupole moment (field-independent basis, Debye-Ang):
   XX=            -32.1910   YY=            -24.5694   ZZ=            -28.3780
   XY=              0.0000   XZ=             -0.0000   YZ=              0.0000

  Exact polarizability:  34.776  -0.000  57.391   0.000  -0.000  52.782
 Approx polarizability:  50.009   0.000  86.705  -0.000  -0.000  88.172

                      1                      2                      3
                     A2                     B1                     A2
 Frequencies --    614.8004               622.9545               734.9651
 Red. masses --      2.8784                 3.2490                 1.3088
 Frc consts  --      0.6410                 0.7429                 0.4165
 IR Inten    --      0.0000                23.6123                 0.0000

                      4                      5                      6
                     B1                     B1                     A2
 Frequencies --    758.9407               859.6269               886.5409
 Red. masses --      1.2556                 1.3074                 1.3379
 Frc consts  --      0.4261                 0.5692                 0.6195
 IR Inten    --    107.8287                 0.0593                 0.0000

                      7                      8                      9
                     A1                     B2                     A1
 Frequencies --    888.3005               892.9400              1014.8729
 Red. masses --      4.9154                 5.9834                 1.5014
 Frc consts  --      2.2852                 2.8109                 0.9111
 IR Inten    --     15.8083                 0.9377                42.3484

                     10                     11                     12
                     B2                     A1                     A1
 Frequencies --   1061.2011              1085.7748              1167.3806
 Red. masses --      1.7584                 3.0017                 1.7660
 Frc consts  --      1.1667                 2.0850                 1.4180
 IR Inten    --      0.9775                12.0742                 0.1181

                     13                     14                     15
                     B2                     B2                     A1
 Frequencies --   1198.3445              1295.8698              1414.4925
 Red. masses --      2.5774                 1.2412                 2.9078
 Frc consts  --      2.1807                 1.2281                 3.4279
 IR Inten    --     18.5620                 0.1333                 3.5640

                     16                     17                     18
                     A1                     B2                     B2
 Frequencies --   1510.8862              1592.0511              3240.6160
 Red. masses --      3.2921                 4.4542                 1.0896
 Frc consts  --      4.4278                 6.6518                 6.7417
 IR Inten    --     19.2519                 0.0116                 2.3410

                     19                     20                     21
                     A1                     B2                     A1
 Frequencies --   3251.2559              3274.8055              3281.2008
 Red. masses --      1.0945                 1.1003                 1.1083
 Frc consts  --      6.8164                 6.9524                 7.0304
 IR Inten    --      0.2086                 0.1434                 0.0392

 - Thermochemistry -
 -------------------
 Temperature   298.150 Kelvin.  Pressure   1.00000 Atm.
 Atom     1 has atomic number  6 and mass  12.00000

 Molecular mass:    68.02621 amu.
 Principal axes and moments of inertia in atomic units:
                           1         2         3
     Eigenvalues --   189.88507 193.26221 383.14728
           X            0.00000  -0.00000   1.00000
           Y            0.00000   1.00000  -0.00000
           Z            1.00000  -0.00000  -0.00000
 This molecule is an asymmetric top.
 Rotational symmetry number  2.
 Rotational temperatures (Kelvin)      0.45614     0.44817     0.22606
 Rotational constants (GHZ):           9.50439     9.33830     4.71031
 Zero-point vibrational energy     183314.7 (Joules/Mol)
                                   43.81326 (Kcal/Mol)
 Warning -- explicit consideration of   1 degrees of freedom as
           vibrations may cause significant error
 Vibrational temperatures:    884.56   896.29  1057.45  1091.95  1236.81
          (Kelvin)           1275.53  1278.06  1284.74  1460.17  1526.83
                             1562.19  1679.60  1724.15  1864.47  2035.14
                             2173.83  2290.60  4662.52  4677.83  4711.71
                             4720.91

 Zero-point correction=                           0.069821 (Hartree/Particle)
 Thermal correction to Energy=                    0.073528
 Thermal correction to Enthalpy=                  0.074472
 Thermal correction to Gibbs Free Energy=         0.044217
 Sum of electronic and zero-point Energies=           -230.035795
 Sum of electronic and thermal Energies=              -230.032088
 Sum of electronic and thermal Enthalpies=            -230.031143
 Sum of electronic and thermal Free Energies=         -230.061399

                     E (Thermal)             CV                S
                      KCal/Mol        Cal/Mol-Kelvin    Cal/Mol-Kelvin
 Total                   46.139             13.311             63.677
 Electronic               0.000              0.000              0.000
 Translational            0.889              2.981             38.570
 Rotational               0.889              2.981             22.779
 Vibrational             44.362              7.350              2.329
 Vibration     1          0.974              1.001              0.425

 Normal termination of Gaussian 09 at Fri Mar  1 07:46:11 2019.
