 Gaussian 09, Revision E.01,
 Gaussian 09:  EM64L-G09RevE.01 30-Nov-2015

 ------------------------------------------------------
 #p b3lyp/6-311++G(3df,2p) freq IOp(2/17=3) IOp(2/18=3)
 ------------------------------------------------------

 ---------
 b3lyp opt
 ---------
 Symbolic Z-matrix:
 Charge =  0 Multiplicity = 1

                         Standard orientation:
 ---------------------------------------------------------------------
 Center     Atomic      Atomic             Coordinates (Angstroms)
 Number     Number       Type             X           Y           Z
 ---------------------------------------------------------------------
      1          6           0        1.489024    0.735789    0.000000
      2          6           0        0.000000    0.495180    0.000000
      3          8           0       -0.817756    1.386874   -0.000000
      4          6           0       -0.414261   -0.901083   -0.000000
      5          6           0       -0.738661   -2.057131   -0.000000
      6          1           0        1.687604    1.804339    0.000000
      7          1           0        1.941586    0.268868   -0.876964
      8          1           0        1.941586    0.268868    0.876964
      9          1           0       -1.045277   -3.074708   -0.000000
 ---------------------------------------------------------------------

 SCF Done:  E(RB3LYP) =  -230.061995040     A.U. after   13 cycles

 The electronic state is 1-A'.
 Alpha  occ. eigenvalues --  -19.13376 -10.29396 -10.20330 -10.19815 -10.18781
 Alpha  occ. eigenvalues --   -1.06694  -0.80083  -0.75769  -0.64584  -0.54898
 Alpha  occ. eigenvalues --   -0.49965  -0.46489  -0.46028  -0.41850  -0.38846
 Alpha  occ. eigenvalues --   -0.31500  -0.31388  -0.28164
 Alpha virt. eigenvalues --   -0.07549  -0.01058   0.00310   0.00593   0.02786
 Alpha virt. eigenvalues --    0.03489   0.03987   0.04920   0.06939   0.07393
 Alpha virt. eigenvalues --    0.08575   0.08766   0.09203   0.10123   0.11413

 Mulliken charges:
               1
     1  C   -0.425656
     2  C    0.043508
     3  O   -0.665542
     4  C   -0.258430
     5  C    0.475657
     6  H    0.169384
     7  H    0.170636
     8  H    0.170636
     9  H    0.319807
 Sum of Mulliken charges =  -0.00000

 Dipole moment (field-independent basis, Debye):
    X=              2.1026    Y=             -2.2995    Z=             -0.0000  Tot=              3.1159
 Quadrupole moment (field-independent basis, Debye-Ang):
   XX=            -29.6009   YY=            -26.8600   ZZ=            -29.3823
   XY=              5.1326   XZ=             -0.0000   YZ=              0.0000

  Exact polarizability:  49.257   5.703  68.816  -0.000   0.000  35.370
 Approx polarizability:  66.805   3.121 113.777  -0.000   0.000  50.580

                      1                      2                      3
                     A"                     A'                     A"
 Frequencies --    112.5289               174.0535               231.9879
 Red. masses --      1.0459                 3.7040                 4.3265
 Frc consts  --      0.0078                 0.0661                 0.1372
 IR Inten    --      0.0200                 5.2930                 1.7457

                      4                      5                      6
                     A'                     A"                     A'
 Frequencies --    439.8900               595.4852               601.7528
 Red. masses --      3.3833                 2.5960                 6.4151
 Frc consts  --      0.3857                 0.5424                 1.3686
 IR Inten    --      2.5726                 5.2444                11.7078

                      7                      8                      9
                     A'                     A"                     A'
 Frequencies --    677.1813               738.2989               741.4758
 Red. masses --      1.2917                 1.2904                 4.3078
 Frc consts  --      0.3490                 0.4144                 1.3954
 IR Inten    --     41.6409                32.8121                14.0189

                     10                     11                     12
                     A'                     A"                     A'
 Frequencies --    978.6757              1043.7522              1206.3433
 Red. masses --      1.9285                 1.8159                 3.3937
 Frc consts  --      1.0883                 1.1655                 2.9099
 IR Inten    --     34.2270                 5.3398               145.5584

                     13                     14                     15
                     A'                     A'                     A"
 Frequencies --   1388.6233              1463.8247              1469.1215
 Red. masses --      1.2847                 1.0555                 1.0466
 Frc consts  --      1.4595                 1.3326                 1.3310
 IR Inten    --     34.2446                18.1142                 9.5576

                     16                     17                     18
                     A'                     A'                     A'
 Frequencies --   1753.5828              2192.7729              3030.2076
 Red. masses --     10.9337                 5.9056                 1.0358
 Frc consts  --     19.8094                16.7303                 5.6034
 IR Inten    --    212.9401                46.6041                 0.8095

                     19                     20                     21
                     A"                     A'                     A'
 Frequencies --   3086.7471              3138.2079              3454.4030
 Red. masses --      1.0987                 1.1030                 1.1618
 Frc consts  --      6.1679                 6.4000                 8.1683
 IR Inten    --      3.7890                 6.7486                52.4124

 - Thermochemistry -
 -------------------
 Temperature   298.150 Kelvin.  Pressure   1.00000 Atm.
 Atom     1 has atomic number  6 and mass  12.00000

 Molecular mass:    68.02621 amu.
 Principal axes and moments of inertia in atomic units:
                           1         2         3
     Eigenvalues --   175.60380 445.61764 610.14993
           X            0.35557   0.93465   0.00000
           Y            0.93465  -0.35557   0.00000
           Z           -0.00000  -0.00000   1.00000
 This molecule is an asymmetric top.
 Rotational symmetry number  1.
 Rotational temperatures (Kelvin)      0.49323     0.19437     0.14195
 Rotational constants (GHZ):          10.27735     4.04998     2.95787
 Zero-point vibrational energy     170581.0 (Joules/Mol)
                                   40.76984 (Kcal/Mol)
 Warning -- explicit consideration of   6 degrees of freedom as
           vibrations may cause significant error
 Vibrational temperatures:    161.90   250.42   333.78   632.90   856.77
          (Kelvin)            865.79   974.31  1062.25  1066.82  1408.09
                             1501.72  1735.66  1997.92  2106.11  2113.74
                             2523.01  3154.91  4359.79  4441.14  4515.18
                             4970.11

 Zero-point correction=                           0.064971 (Hartree/Particle)
 Thermal correction to Energy=                    0.070649
 Thermal correction to Enthalpy=                  0.071593
 Thermal correction to Gibbs Free Energy=         0.036300
 Sum of electronic and zero-point Energies=           -229.997024
 Sum of electronic and thermal Energies=              -229.991346
 Sum of electronic and thermal Enthalpies=            -229.990402
 Sum of electronic and thermal Free Energies=         -230.025695

                     E (Thermal)             CV                S
                      KCal/Mol        Cal/Mol-Kelvin    Cal/Mol-Kelvin
 Total                   44.333             18.651             74.281
 Electronic               0.000              0.000              0.000
 Translational            0.889              2.981             38.570
 Rotational               0.889              2.981             25.371
 Vibrational             42.555             12.690             10.341
 Vibration     1          0.607              1.939              3.225
 Vibration     2          0.627              1.874              2.391
 Vibration     3          0.653              1.792              1.864
 Vibration     4          0.800              1.383              0.827
 Vibration     5          0.953              1.041              0.457
 Vibration     6          0.960              1.028              0.447

 Optimization completed.
    -- Stationary point found.
 Normal termination of Gaussian 09 at Fri Mar  1 07:48:54 2019.
