 Gaussian 09, Revision E.01,
 Gaussian 09:  EM64L-G09RevE.01 30-Nov-2015

 ------------------------------------------------------
 #p b3lyp/6-311++G(3df,2p) freq IOp(2/17=3) IOp(2/18=3)
 ------------------------------------------------------

 ---------
 b3lyp opt
 ---------
 Symbolic Z-matrix:
 Charge =  0 Multiplicity = 1

                         Standard orientation:
 ---------------------------------------------------------------------
 Center     Atomic      Atomic             Coordinates (Angstroms)
 Number     Number       Type             X           Y           Z
 ---------------------------------------------------------------------
      1          6           0        1.269067    0.373046    0.000233
      2          6           0       -1.136308    0.245610   -0.000455
      3          8           0        1.473418   -0.955556   -0.000048
      4          6           0       -2.138532   -0.423249    0.000452
      5          6           0        0.071895    0.981091   -0.000131
      6          1           0        2.197261    0.926348    0.000793
      7          1           0        0.618919   -1.410908   -0.000788
      8          1           0       -3.035531   -0.991122   -0.000098
      9          1           0        0.035275    2.061150   -0.000118
 ---------------------------------------------------------------------

 SCF Done:  E(RB3LYP) =  -230.054642540     A.U. after   12 cycles

 The electronic state is 1-A.
 Alpha  occ. eigenvalues --  -19.17525 -10.25116 -10.19049 -10.18821 -10.17648
 Alpha  occ. eigenvalues --   -1.08629  -0.80992  -0.74426  -0.65453  -0.56464
 Alpha  occ. eigenvalues --   -0.52125  -0.51506  -0.43537  -0.42160  -0.39328
 Alpha  occ. eigenvalues --   -0.33215  -0.29666  -0.23685
 Alpha virt. eigenvalues --   -0.03139  -0.00922  -0.00047   0.01607   0.02391
 Alpha virt. eigenvalues --    0.02872   0.05183   0.06539   0.07063   0.08146
 Alpha virt. eigenvalues --    0.09230   0.10349   0.10500   0.11253   0.11809

 Mulliken charges:
               1
     1  C    0.044621
     2  C   -0.156860
     3  O   -0.590680
     4  C   -0.140775
     5  C   -0.047506
     6  H    0.185167
     7  H    0.279697
     8  H    0.284820
     9  H    0.141515
 Sum of Mulliken charges =  -0.00000

 Dipole moment (field-independent basis, Debye):
    X=             -0.2601    Y=              0.1192    Z=             -0.0011  Tot=              0.2861
 Quadrupole moment (field-independent basis, Debye-Ang):
   XX=            -27.6420   YY=            -26.6300   ZZ=            -32.4181
   XY=              4.8988   XZ=              0.0024   YZ=              0.0028

  Exact polarizability:  80.262   6.280  51.010  -0.008  -0.004  35.801
 Approx polarizability: 133.229  12.729  78.175  -0.029  -0.017  50.005

                      1                      2                      3
                      A                      A                      A
 Frequencies --    139.2979               284.3333               408.7337
 Red. masses --      4.6729                 2.4492                 4.9903
 Frc consts  --      0.0534                 0.1167                 0.4912
 IR Inten    --      0.4175                 0.7696                17.1158

                      4                      5                      6
                      A                      A                      A
 Frequencies --    517.4905               594.8361               619.1817
 Red. masses --      1.5968                 1.2289                 2.5049
 Frc consts  --      0.2519                 0.2562                 0.5658
 IR Inten    --     56.3415                60.3910                36.2333

                      7                      8                      9
                      A                      A                      A
 Frequencies --    703.2950               743.0308               746.4120
 Red. masses --      1.2521                 4.4235                 1.3080
 Frc consts  --      0.3649                 1.4389                 0.4293
 IR Inten    --     38.0157                 1.7668                35.7715

                     10                     11                     12
                      A                      A                      A
 Frequencies --    961.8921               963.2666              1104.8549
 Red. masses --      5.4164                 1.2939                 2.1191
 Frc consts  --      2.9527                 0.7073                 1.5241
 IR Inten    --      9.9472                 4.2903               108.3394

                     13                     14                     15
                      A                      A                      A
 Frequencies --   1236.2843              1362.8349              1424.1494
 Red. masses --      1.1569                 1.5767                 1.4718
 Frc consts  --      1.0418                 1.7254                 1.7587
 IR Inten    --    121.4308                 5.0185                 9.1897

                     16                     17                     18
                      A                      A                      A
 Frequencies --   1664.5967              2182.6398              3183.2354
 Red. masses --      5.0360                 6.1792                 1.0861
 Frc consts  --      8.2215                17.3438                 6.4843
 IR Inten    --    171.5286                28.1373                 1.9426

                     19                     20                     21
                      A                      A                      A
 Frequencies --   3209.1875              3460.2636              3731.3482
 Red. masses --      1.0963                 1.1553                 1.0649
 Frc consts  --      6.6524                 8.1504                 8.7354
 IR Inten    --      4.4918                88.0441                34.9629

 - Thermochemistry -
 -------------------
 Temperature   298.150 Kelvin.  Pressure   1.00000 Atm.
 Atom     1 has atomic number  6 and mass  12.00000

 Molecular mass:    68.02621 amu.
 Principal axes and moments of inertia in atomic units:
                           1         2         3
     Eigenvalues --   138.05970 497.09929 635.15895
           X            0.99912   0.04183   0.00001
           Y           -0.04183   0.99912   0.00004
           Z           -0.00001  -0.00005   1.00000
 This molecule is an asymmetric top.
 Rotational symmetry number  1.
 Rotational temperatures (Kelvin)      0.62736     0.17424     0.13637
 Rotational constants (GHZ):          13.07218     3.63054     2.84140
 Zero-point vibrational energy     174901.0 (Joules/Mol)
                                   41.80234 (Kcal/Mol)
 Warning -- explicit consideration of   6 degrees of freedom as
           vibrations may cause significant error
 Vibrational temperatures:    200.42   409.09   588.08   744.55   855.84
          (Kelvin)            890.86  1011.88  1069.05  1073.92  1383.95
                             1385.92  1589.64  1778.74  1960.81  2049.03
                             2394.98  3140.33  4579.96  4617.30  4978.54
                             5368.57

 Zero-point correction=                           0.066616 (Hartree/Particle)
 Thermal correction to Energy=                    0.071821
 Thermal correction to Enthalpy=                  0.072766
 Thermal correction to Gibbs Free Energy=         0.038666
 Sum of electronic and zero-point Energies=           -229.988026
 Sum of electronic and thermal Energies=              -229.982821
 Sum of electronic and thermal Enthalpies=            -229.981877
 Sum of electronic and thermal Free Energies=         -230.015977

                     E (Thermal)             CV                S
                      KCal/Mol        Cal/Mol-Kelvin    Cal/Mol-Kelvin
 Total                   45.069             18.154             71.769
 Electronic               0.000              0.000              0.000
 Translational            0.889              2.981             38.570
 Rotational               0.889              2.981             25.281
 Vibrational             43.291             12.192              7.919
 Vibration     1          0.615              1.914              2.814
 Vibration     2          0.683              1.703              1.507
 Vibration     3          0.773              1.451              0.931
 Vibration     4          0.873              1.211              0.616
 Vibration     5          0.953              1.043              0.459
 Vibration     6          0.979              0.991              0.418

 Optimization completed.
    -- Stationary point found.
 Normal termination of Gaussian 09 at Fri Mar  1 07:39:49 2019.
