 Gaussian 09, Revision E.01,
 Gaussian 09:  EM64L-G09RevE.01 30-Nov-2015

 ------------------------------------------------------
 #p b3lyp/6-311++G(3df,2p) freq IOp(2/17=3) IOp(2/18=3)
 ------------------------------------------------------

 ---------
 b3lyp opt
 ---------
 Symbolic Z-matrix:
 Charge =  1 Multiplicity = 2

                         Standard orientation:
 ---------------------------------------------------------------------
 Center     Atomic      Atomic             Coordinates (Angstroms)
 Number     Number       Type             X           Y           Z
 ---------------------------------------------------------------------
      1          8           0       -2.333071    0.188799    0.000000
      2          6           0       -0.000000    0.605259    0.000000
      3          6           0       -1.196812   -0.228396    0.000000
      4          6           0        1.185177    0.036118    0.000000
      5          6           0        2.367754   -0.487160    0.000000
      6          1           0       -0.157674    1.677642    0.000000
      7          1           0       -1.080442   -1.329146    0.000000
      8          1           0        2.882982   -0.706907    0.931214
      9          1           0        2.882982   -0.706907   -0.931214
 ---------------------------------------------------------------------

 SCF Done:  E(UB3LYP) =  -229.715128603     A.U. after   19 cycles

 The electronic state is 2-A'.
 Alpha  occ. eigenvalues --  -19.47946 -10.53980 -10.45337 -10.44231 -10.41762
 Alpha  occ. eigenvalues --   -1.38202  -1.06361  -0.98263  -0.87143  -0.81781
 Alpha  occ. eigenvalues --   -0.75027  -0.72490  -0.70191  -0.68990  -0.67215
 Alpha  occ. eigenvalues --   -0.60703  -0.52801  -0.51783
 Alpha virt. eigenvalues --   -0.31660  -0.22896  -0.19252  -0.15750  -0.13898
 Alpha virt. eigenvalues --   -0.12149  -0.10657  -0.09766  -0.08090  -0.07231
 Alpha virt. eigenvalues --   -0.07061  -0.04617  -0.04279  -0.03398  -0.03161

  Beta  occ. eigenvalues --  -19.45931 -10.54068 -10.45387 -10.44005 -10.41593
  Beta  occ. eigenvalues --   -1.34278  -1.05768  -0.97363  -0.85537  -0.79107
  Beta  occ. eigenvalues --   -0.73204  -0.71046  -0.68882  -0.67857  -0.66994
  Beta  occ. eigenvalues --   -0.52343  -0.51382
  Beta virt. eigenvalues --   -0.44092  -0.31309  -0.22259  -0.19157  -0.15555
  Beta virt. eigenvalues --   -0.13637  -0.11979  -0.10650  -0.09520  -0.07994
  Beta virt. eigenvalues --   -0.07232  -0.06849  -0.04606  -0.04118  -0.03146

 Mulliken charges and spin densities:
               1          2
     1  O   -0.254919   0.734994
     2  C   -0.545299   0.095585
     3  C    0.359614  -0.064524
     4  C    0.727156  -0.009050
     5  C   -0.260115   0.103347
     6  H    0.218907   0.014866
     7  H    0.283424   0.135679
     8  H    0.235615  -0.005448
     9  H    0.235615  -0.005448
 Sum of Mulliken charges =   1.00000   1.00000

 Dipole moment (field-independent basis, Debye):
    X=              1.8991    Y=             -1.3328    Z=              0.0000  Tot=              2.3201
 Quadrupole moment (field-independent basis, Debye-Ang):
   XX=            -10.0883   YY=            -22.0317   ZZ=            -25.8979
   XY=             -1.6924   XZ=              0.0000   YZ=             -0.0000

  Exact polarizability: 127.041 -10.107  37.742   0.000   0.000  29.648
 Approx polarizability: 273.356 -27.223  57.100  -0.000  -0.000  42.441

                      1                      2                      3
                     A"                     A'                     A"
 Frequencies --    141.1358               177.6166               328.6719
 Red. masses --      3.0788                 4.3782                 1.4178
 Frc consts  --      0.0361                 0.0814                 0.0902
 IR Inten    --      4.6010                 2.1283                 3.4174

                      4                      5                      6
                     A'                     A"                     A'
 Frequencies --    405.4486               432.0614               499.4840
 Red. masses --      6.1940                 1.6648                 7.8338
 Frc consts  --      0.5999                 0.1831                 1.1515
 IR Inten    --     38.6632                 4.1151                51.7211

                      7                      8                      9
                     A"                     A'                     A"
 Frequencies --    710.3135               772.3180               898.9519
 Red. masses --      1.1817                 6.3809                 1.7552
 Frc consts  --      0.3513                 2.2425                 0.8357
 IR Inten    --     53.2175               283.2163                 1.2184

                     10                     11                     12
                     A'                     A"                     A'
 Frequencies --    946.5815               951.6785              1105.8441
 Red. masses --      1.3259                 1.7381                 2.4423
 Frc consts  --      0.7000                 0.9275                 1.7597
 IR Inten    --     44.2037                 0.2113                 9.0442

                     13                     14                     15
                     A'                     A'                     A'
 Frequencies --   1178.5402              1267.5095              1379.1193
 Red. masses --      1.1369                 1.4374                 1.4434
 Frc consts  --      0.9304                 1.3606                 1.6175
 IR Inten    --    148.5047                23.6998                86.9665

                     16                     17                     18
                     A'                     A'                     A'
 Frequencies --   1467.1963              1898.7629              2904.5909
 Red. masses --      3.3369                10.1472                 1.0744
 Frc consts  --      4.2322                21.5545                 5.3407
 IR Inten    --     22.4022               162.7612                74.6906

                     19                     20                     21
                     A'                     A'                     A"
 Frequencies --   3103.8234              3163.6019              3185.0310
 Red. masses --      1.0580                 1.0904                 1.1145
 Frc consts  --      6.0055                 6.4297                 6.6615
 IR Inten    --     66.4195                43.1690                41.5456

 - Thermochemistry -
 -------------------
 Temperature   298.150 Kelvin.  Pressure   1.00000 Atm.
 Atom     1 has atomic number  8 and mass  15.99491

 Molecular mass:    68.02621 amu.
 Principal axes and moments of inertia in atomic units:
                           1         2         3
     Eigenvalues --    49.13786 749.35938 786.01358
           X            0.99476   0.10228   0.00000
           Y           -0.10228   0.99476   0.00000
           Z            0.00000  -0.00000   1.00000
 This molecule is an asymmetric top.
 Rotational symmetry number  1.
 Rotational temperatures (Kelvin)      1.76267     0.11558     0.11019
 Rotational constants (GHZ):          36.72812     2.40838     2.29607
 Zero-point vibrational energy     161007.1 (Joules/Mol)
                                   38.48161 (Kcal/Mol)
 Warning -- explicit consideration of   6 degrees of freedom as
           vibrations may cause significant error
 Vibrational temperatures:    203.06   255.55   472.88   583.35   621.64
          (Kelvin)            718.65  1021.98  1111.19  1293.39  1361.92
                             1369.25  1591.06  1695.65  1823.66  1984.24
                             2110.97  2731.89  4179.05  4465.70  4551.71
                             4582.54

 Zero-point correction=                           0.061324 (Hartree/Particle)
 Thermal correction to Energy=                    0.067015
 Thermal correction to Enthalpy=                  0.067959
 Thermal correction to Gibbs Free Energy=         0.032443
 Sum of electronic and zero-point Energies=           -229.653804
 Sum of electronic and thermal Energies=              -229.648113
 Sum of electronic and thermal Enthalpies=            -229.647169
 Sum of electronic and thermal Free Energies=         -229.682686

                     E (Thermal)             CV                S
                      KCal/Mol        Cal/Mol-Kelvin    Cal/Mol-Kelvin
 Total                   42.053             19.228             74.751
 Electronic               0.000              0.000              1.377
 Translational            0.889              2.981             38.570
 Rotational               0.889              2.981             24.874
 Vibrational             40.275             13.266              9.930
 Vibration     1          0.615              1.912              2.788
 Vibration     2          0.628              1.870              2.353
 Vibration     3          0.712              1.618              1.267
 Vibration     4          0.770              1.458              0.943
 Vibration     5          0.793              1.400              0.852
 Vibration     6          0.855              1.251              0.659

 Optimization completed.
    -- Stationary point found.
 Normal termination of Gaussian 09 at Fri Mar  1 08:18:42 2019.
