 Gaussian 09, Revision E.01,
 Gaussian 09:  EM64L-G09RevE.01 30-Nov-2015

 ------------------------------------------------------
 #p b3lyp/6-311++G(3df,2p) freq IOp(2/17=3) IOp(2/18=3)
 ------------------------------------------------------

 ---------
 b3lyp opt
 ---------
 Symbolic Z-matrix:
 Charge =  0 Multiplicity = 1

                         Standard orientation:
 ---------------------------------------------------------------------
 Center     Atomic      Atomic             Coordinates (Angstroms)
 Number     Number       Type             X           Y           Z
 ---------------------------------------------------------------------
      1          6           0       -0.046487   -0.665145   -0.000000
      2          1           0        0.860949    1.069601    0.000000
      3          1           0        0.439012   -1.074900    0.890789
      4          1           0       -1.088066   -0.979704   -0.000000
      5          1           0        0.439012   -1.074900   -0.890789
      6          8           0       -0.046487    0.756348    0.000000
 ---------------------------------------------------------------------

 SCF Done:  E(RB3LYP) =  -115.773108332     A.U. after    9 cycles

 The electronic state is 1-A'.
 Alpha  occ. eigenvalues --  -19.12763 -10.21251  -1.02485  -0.68892  -0.51484
 Alpha  occ. eigenvalues --   -0.44582  -0.43259  -0.34491  -0.28494
 Alpha virt. eigenvalues --   -0.01262   0.00988   0.03228   0.03707   0.06984
 Alpha virt. eigenvalues --    0.08234   0.09989   0.11783   0.15889   0.17648
 Alpha virt. eigenvalues --    0.17691   0.18831   0.20496   0.20509   0.24094

 Mulliken charges:
               1
     1  C   -0.058204
     2  H    0.225097
     3  H    0.128160
     4  H    0.131997
     5  H    0.128160
     6  O   -0.555211
 Sum of Mulliken charges =   0.00000

 Dipole moment (field-independent basis, Debye):
    X=              1.3764    Y=             -0.9755    Z=             -0.0000  Tot=              1.6870
 Quadrupole moment (field-independent basis, Debye-Ang):
   XX=            -11.9117   YY=            -13.5898   ZZ=            -13.9688
   XY=              2.1461   XZ=              0.0000   YZ=             -0.0000

  Exact polarizability:  19.993   0.615  22.836  -0.000   0.000  19.507
 Approx polarizability:  26.378   0.672  27.844   0.000  -0.000  24.512

                      1                      2                      3
                     A"                     A'                     A'
 Frequencies --    289.2798              1042.4768              1077.5003
 Red. masses --      1.0715                 3.5168                 1.3025
 Frc consts  --      0.0528                 2.2518                 0.8910
 IR Inten    --    110.5848               121.7561                 1.4323

                      4                      5                      6
                     A"                     A'                     A'
 Frequencies --   1173.2448              1365.8589              1480.8422
 Red. masses --      1.2658                 1.2929                 1.1339
 Frc consts  --      1.0266                 1.4211                 1.4650
 IR Inten    --      0.4436                24.5706                 3.2600

                      7                      8                      9
                     A"                     A'                     A'
 Frequencies --   1499.2431              1510.7547              2991.4252
 Red. masses --      1.0482                 1.0414                 1.0353
 Frc consts  --      1.3882                 1.4004                 5.4585
 IR Inten    --      2.9104                 5.1712                63.0765

                     10                     11                     12
                     A"                     A'                     A'
 Frequencies --   3037.6784              3106.8862              3853.2669
 Red. masses --      1.1054                 1.0974                 1.0667
 Frc consts  --      6.0095                 6.2409                 9.3313
 IR Inten    --     55.0125                25.0844                31.5020

 - Thermochemistry -
 -------------------
 Temperature   298.150 Kelvin.  Pressure   1.00000 Atm.
 Atom     1 has atomic number  6 and mass  12.00000

 Molecular mass:    32.02621 amu.
 Principal axes and moments of inertia in atomic units:
                           1         2         3
     Eigenvalues --    14.02087  72.94675  75.54428
           X            0.05468   0.99850   0.00000
           Y            0.99850  -0.05468   0.00000
           Z           -0.00000  -0.00000   1.00000
 This molecule is an asymmetric top.
 Rotational symmetry number  1.
 Rotational temperatures (Kelvin)      6.17749     1.18736     1.14653
 Rotational constants (GHZ):         128.71824    24.74053    23.88984
 Zero-point vibrational energy     134152.0 (Joules/Mol)
                                   32.06309 (Kcal/Mol)
 Warning -- explicit consideration of   1 degrees of freedom as
           vibrations may cause significant error
 Vibrational temperatures:    416.21  1499.89  1550.28  1688.04  1965.16
          (Kelvin)           2130.60  2157.07  2173.64  4303.99  4370.54
                             4470.11  5543.98

 Zero-point correction=                           0.051096 (Hartree/Particle)
 Thermal correction to Energy=                    0.054463
 Thermal correction to Enthalpy=                  0.055407
 Thermal correction to Gibbs Free Energy=         0.028306
 Sum of electronic and zero-point Energies=           -115.722013
 Sum of electronic and thermal Energies=              -115.718646
 Sum of electronic and thermal Enthalpies=            -115.717701
 Sum of electronic and thermal Free Energies=         -115.744802

                     E (Thermal)             CV                S
                      KCal/Mol        Cal/Mol-Kelvin    Cal/Mol-Kelvin
 Total                   34.176              8.858             57.038
 Electronic               0.000              0.000              0.000
 Translational            0.889              2.981             36.324
 Rotational               0.889              2.981             18.986
 Vibrational             32.398              2.896              1.728
 Vibration     1          0.686              1.694              1.478

 Optimization completed.
    -- Stationary point found.
 Normal termination of Gaussian 09 at Fri Mar  1 09:18:27 2019.
