 Gaussian 09, Revision E.01,
 Gaussian 09:  EM64L-G09RevE.01 30-Nov-2015

 ------------------------------------------------------
 #p b3lyp/6-311++G(3df,2p) freq IOp(2/17=3) IOp(2/18=3)
 ------------------------------------------------------

 ---------
 b3lyp opt
 ---------
 Symbolic Z-matrix:
 Charge =  1 Multiplicity = 2

                         Standard orientation:
 ---------------------------------------------------------------------
 Center     Atomic      Atomic             Coordinates (Angstroms)
 Number     Number       Type             X           Y           Z
 ---------------------------------------------------------------------
      1          6           0        0.025738   -0.636580    0.000000
      2          1           0        0.725321   -0.960177   -0.823404
      3          1           0        0.725321   -0.960177    0.823404
      4          1           0       -0.868585    1.127456   -0.000000
      5          1           0       -0.942506   -1.124364   -0.000000
      6          8           0        0.025738    0.717105    0.000000
 ---------------------------------------------------------------------

 SCF Done:  E(UB3LYP) =  -115.379699003     A.U. after   12 cycles

 The electronic state is 2-A".
 Alpha  occ. eigenvalues --  -19.54592 -10.53190  -1.42360  -1.02325  -0.85856
 Alpha  occ. eigenvalues --   -0.80002  -0.79042  -0.67642  -0.64094
 Alpha virt. eigenvalues --   -0.23310  -0.17901  -0.14882  -0.14654  -0.11785
 Alpha virt. eigenvalues --   -0.11005  -0.08895  -0.06397  -0.03520  -0.02802
 Alpha virt. eigenvalues --   -0.02433  -0.01939  -0.00602   0.00244   0.05802

  Beta  occ. eigenvalues --  -19.52778 -10.53014  -1.38475  -1.00320  -0.84553
  Beta  occ. eigenvalues --   -0.77298  -0.72281  -0.66326
  Beta virt. eigenvalues --   -0.49417  -0.22829  -0.17414  -0.14620  -0.13429
  Beta virt. eigenvalues --   -0.11181  -0.10789  -0.08607  -0.06208  -0.03154
  Beta virt. eigenvalues --   -0.02510  -0.01789  -0.01620   0.00349   0.00635

 Mulliken charges and spin densities:
               1          2
     1  C    0.088000   0.107707
     2  H    0.263387   0.142486
     3  H    0.263387   0.142486
     4  H    0.331879  -0.024830
     5  H    0.231264  -0.007550
     6  O   -0.177917   0.639702
 Sum of Mulliken charges =   1.00000   1.00000

 Dipole moment (field-independent basis, Debye):
    X=             -1.0622    Y=             -0.9666    Z=             -0.0000  Tot=              1.4362
 Quadrupole moment (field-independent basis, Debye-Ang):
   XX=             -7.9950   YY=             -6.4422   ZZ=            -10.1210
   XY=             -3.2043   XZ=             -0.0000   YZ=              0.0000

  Exact polarizability:  16.080  -2.995  23.941   0.000  -0.000  14.839
 Approx polarizability:  21.097  -4.711  34.890  -0.000   0.000  19.946

                      1                      2                      3
                     A"                     A'                     A"
 Frequencies --    299.1345               939.6584               975.0259
 Red. masses --      1.0816                 1.7843                 1.2945
 Frc consts  --      0.0570                 0.9282                 0.7251
 IR Inten    --    288.6973               111.5004                 4.6546

                      4                      5                      6
                     A'                     A"                     A'
 Frequencies --   1045.5715              1213.2831              1238.0248
 Red. masses --      1.1444                 1.0657                 1.9347
 Frc consts  --      0.7371                 0.9243                 1.7471
 IR Inten    --    164.4712                13.8369               114.9235

                      7                      8                      9
                     A'                     A'                     A"
 Frequencies --   1285.9684              1481.0390              2629.1291
 Red. masses --      1.2179                 1.1326                 1.0641
 Frc consts  --      1.1867                 1.4637                 4.3338
 IR Inten    --     22.4728                18.5804               114.7567

                     10                     11                     12
                     A'                     A'                     A'
 Frequencies --   2742.8516              3180.5617              3574.9051
 Red. masses --      1.0484                 1.1006                 1.0690
 Frc consts  --      4.6470                 6.5599                 8.0495
 IR Inten    --    220.8158                14.7144               314.2318

 - Thermochemistry -
 -------------------
 Temperature   298.150 Kelvin.  Pressure   1.00000 Atm.
 Atom     1 has atomic number  6 and mass  12.00000

 Molecular mass:    32.02621 amu.
 Principal axes and moments of inertia in atomic units:
                           1         2         3
     Eigenvalues --    14.25621  67.35238  71.84816
           X           -0.08405   0.99646   0.00000
           Y            0.99646   0.08405   0.00000
           Z           -0.00000   0.00000   1.00000
 This molecule is an asymmetric top.
 Rotational symmetry number  1.
 Rotational temperatures (Kelvin)      6.07551     1.28598     1.20551
 Rotational constants (GHZ):         126.59331    26.79551    25.11882
 Zero-point vibrational energy     123246.2 (Joules/Mol)
                                   29.45655 (Kcal/Mol)
 Warning -- explicit consideration of   1 degrees of freedom as
           vibrations may cause significant error
 Vibrational temperatures:    430.39  1351.96  1402.84  1504.34  1745.64
          (Kelvin)           1781.24  1850.22  2130.88  3782.73  3946.35
                             4576.11  5143.48

 Zero-point correction=                           0.046942 (Hartree/Particle)
 Thermal correction to Energy=                    0.050361
 Thermal correction to Enthalpy=                  0.051305
 Thermal correction to Gibbs Free Energy=         0.023551
 Sum of electronic and zero-point Energies=           -115.332757
 Sum of electronic and thermal Energies=              -115.329338
 Sum of electronic and thermal Enthalpies=            -115.328394
 Sum of electronic and thermal Free Energies=         -115.356148

                     E (Thermal)             CV                S
                      KCal/Mol        Cal/Mol-Kelvin    Cal/Mol-Kelvin
 Total                   31.602              9.435             58.413
 Electronic               0.000              0.000              1.377
 Translational            0.889              2.981             36.324
 Rotational               0.889              2.981             18.873
 Vibrational             29.825              3.473              1.839
 Vibration     1          0.692              1.675              1.422

 Normal termination of Gaussian 09 at Fri Mar  1 09:27:15 2019.
