 Gaussian 09, Revision E.01,
 Gaussian 09:  EM64L-G09RevE.01 30-Nov-2015

 ------------------------------------------------------
 #p b3lyp/6-311++G(3df,2p) freq IOp(2/17=3) IOp(2/18=3)
 ------------------------------------------------------

 ---------
 b3lyp opt
 ---------
 Symbolic Z-matrix:
 Charge =  0 Multiplicity = 4

                         Standard orientation:
 ---------------------------------------------------------------------
 Center     Atomic      Atomic             Coordinates (Angstroms)
 Number     Number       Type             X           Y           Z
 ---------------------------------------------------------------------
      1          6           0       -0.556219   -1.311381   -0.000000
      2          6           0        0.432577   -0.258297    0.000000
      3          1           0        0.741853    1.602192    0.000000
      4          8           0        0.000000    0.976985    0.000000
 ---------------------------------------------------------------------

 SCF Done:  E(UB3LYP) =  -151.801683729     A.U. after   14 cycles

 The electronic state is 4-A".
 Alpha  occ. eigenvalues --  -19.24667 -10.30940 -10.23773  -1.16029  -0.78948
 Alpha  occ. eigenvalues --   -0.63249  -0.54047  -0.48693  -0.37575  -0.31632
 Alpha  occ. eigenvalues --   -0.28699  -0.20818
 Alpha virt. eigenvalues --   -0.04235  -0.03220   0.04476   0.05223   0.05623
 Alpha virt. eigenvalues --    0.08108   0.08560   0.09879   0.10713   0.13663
 Alpha virt. eigenvalues --    0.16001   0.18092   0.18281   0.23245   0.26828

  Beta  occ. eigenvalues --  -19.23791 -10.29371 -10.21224  -1.13921  -0.73470
  Beta  occ. eigenvalues --   -0.58855  -0.50413  -0.44928  -0.29480
  Beta virt. eigenvalues --   -0.16214  -0.15468  -0.06085  -0.01435   0.02423
  Beta virt. eigenvalues --    0.04868   0.06113   0.06371   0.08713   0.09084
  Beta virt. eigenvalues --    0.11085   0.12045   0.14019   0.16393   0.18620

 Mulliken charges and spin densities:
               1          2
     1  C   -0.320434   1.721485
     2  C    0.324242   1.099775
     3  H    0.282765   0.023017
     4  O   -0.286573   0.155723
 Sum of Mulliken charges =  -0.00000   3.00000

 Dipole moment (field-independent basis, Debye):
    X=              2.2108    Y=              2.9679    Z=              0.0000  Tot=              3.7008
 Quadrupole moment (field-independent basis, Debye-Ang):
   XX=            -19.4723   YY=            -16.8436   ZZ=            -17.6275
   XY=              1.2158   XZ=             -0.0000   YZ=             -0.0000

  Exact polarizability:  39.570  13.359  47.215   0.000   0.000  23.205
 Approx polarizability:  57.993  25.540  72.192   0.000   0.000  31.206

                      1                      2                      3
                     A"                     A'                     A'
 Frequencies --    496.2198               504.6998               999.7164
 Red. masses --      1.1438                 7.3878                 2.1811
 Frc consts  --      0.1659                 1.1088                 1.2843
 IR Inten    --    123.4684                16.3277                83.1408

                      4                      5                      6
                     A'                     A'                     A'
 Frequencies --   1171.2511              1313.5265              3720.6056
 Red. masses --      2.7053                 4.9030                 1.0650
 Frc consts  --      2.1866                 4.9842                 8.6862
 IR Inten    --    324.2505               116.1990               193.1071

 - Thermochemistry -
 -------------------
 Temperature   298.150 Kelvin.  Pressure   1.00000 Atm.
 Atom     1 has atomic number  6 and mass  12.00000

 Molecular mass:    41.00274 amu.
 Principal axes and moments of inertia in atomic units:
                           1         2         3
     Eigenvalues --    15.66259 147.63839 163.30098
           X            0.23914   0.97099  -0.00000
           Y            0.97099  -0.23914  -0.00000
           Z            0.00000   0.00000   1.00000
 This molecule is an asymmetric top.
 Rotational symmetry number  1.
 Rotational temperatures (Kelvin)      5.52998     0.58666     0.53039
 Rotational constants (GHZ):         115.22620    12.22406    11.05162
 Zero-point vibrational energy      49082.9 (Joules/Mol)
                                   11.73109 (Kcal/Mol)
 Warning -- explicit consideration of   2 degrees of freedom as
           vibrations may cause significant error
 Vibrational temperatures:    713.95   726.15  1438.37  1685.17  1889.87
          (Kelvin)           5353.11

 Zero-point correction=                           0.018695 (Hartree/Particle)
 Thermal correction to Energy=                    0.022041
 Thermal correction to Enthalpy=                  0.022985
 Thermal correction to Gibbs Free Energy=        -0.006405
 Sum of electronic and zero-point Energies=           -151.782989
 Sum of electronic and thermal Energies=              -151.779643
 Sum of electronic and thermal Enthalpies=            -151.778698
 Sum of electronic and thermal Free Energies=         -151.808089

                     E (Thermal)             CV                S
                      KCal/Mol        Cal/Mol-Kelvin    Cal/Mol-Kelvin
 Total                   13.831              9.203             61.858
 Electronic               0.000              0.000              2.755
 Translational            0.889              2.981             37.061
 Rotational               0.889              2.981             20.562
 Vibrational             12.054              3.242              1.480
 Vibration     1          0.852              1.258              0.668
 Vibration     2          0.860              1.240              0.646

 Optimization completed.
    -- Stationary point found.
 Normal termination of Gaussian 09 at Fri Mar  1 09:27:27 2019.
