 Gaussian 09, Revision E.01,
 Gaussian 09:  EM64L-G09RevE.01 30-Nov-2015

 ------------------------------------------------------
 #p b3lyp/6-311++G(3df,2p) freq IOp(2/17=3) IOp(2/18=3)
 ------------------------------------------------------

 ---------
 b3lyp opt
 ---------
 Symbolic Z-matrix:
 Charge =  1 Multiplicity = 3

                         Standard orientation:
 ---------------------------------------------------------------------
 Center     Atomic      Atomic             Coordinates (Angstroms)
 Number     Number       Type             X           Y           Z
 ---------------------------------------------------------------------
      1          6           0       -0.330254   -0.061999   -0.000000
      2          6           0        0.000000    1.390842    0.000000
      3          1           0       -1.450953   -0.141438   -0.000000
      4          8           0        0.429060   -0.978952    0.000000
 ---------------------------------------------------------------------

 SCF Done:  E(UB3LYP) =  -151.487108590     A.U. after   17 cycles

 The electronic state is 3-A".
 Alpha  occ. eigenvalues --  -19.54803 -10.65853 -10.61411  -1.45640  -1.09366
 Alpha  occ. eigenvalues --   -0.89326  -0.83163  -0.78245  -0.73583  -0.63760
 Alpha  occ. eigenvalues --   -0.60600
 Alpha virt. eigenvalues --   -0.46486  -0.33098  -0.18886  -0.15665  -0.12276
 Alpha virt. eigenvalues --   -0.11935  -0.09064  -0.07604  -0.05705  -0.05179
 Alpha virt. eigenvalues --   -0.04004  -0.03159  -0.00196   0.00413   0.01778

  Beta  occ. eigenvalues --  -19.52544 -10.63961 -10.61535  -1.41582  -1.04560
  Beta  occ. eigenvalues --   -0.85687  -0.80086  -0.73982  -0.64979
  Beta virt. eigenvalues --   -0.49823  -0.45458  -0.44189  -0.28298  -0.18249
  Beta virt. eigenvalues --   -0.15049  -0.11579  -0.11551  -0.08366  -0.07290
  Beta virt. eigenvalues --   -0.05056  -0.05013  -0.03610  -0.00872   0.00795

 Mulliken charges and spin densities:
               1          2
     1  C    0.699660  -0.047659
     2  C    0.202470   1.132281
     3  H    0.285918   0.123252
     4  O   -0.188048   0.792126
 Sum of Mulliken charges =   1.00000   2.00000

 Dipole moment (field-independent basis, Debye):
    X=             -2.1347    Y=              1.6880    Z=             -0.0000  Tot=              2.7215
 Quadrupole moment (field-independent basis, Debye-Ang):
   XX=            -10.6353   YY=            -11.8294   ZZ=            -14.7716
   XY=              0.3885   XZ=             -0.0000   YZ=             -0.0000

  Exact polarizability:  20.330  -2.041  43.461  -0.000  -0.000  15.265
 Approx polarizability:  32.957  -7.947  92.589   0.000   0.000  19.981

                      1                      2                      3
                     A'                     A'                     A"
 Frequencies --    193.8101               716.2383               782.3718
 Red. masses --      7.1135                 7.3677                 1.7389
 Frc consts  --      0.1574                 2.2269                 0.6271
 IR Inten    --      6.4469                38.5909                 6.9411

                      4                      5                      6
                     A'                     A'                     A'
 Frequencies --   1049.0490              1615.1607              2758.1419
 Red. masses --      1.2138                10.2955                 1.0753
 Frc consts  --      0.7870                15.8244                 4.8198
 IR Inten    --    135.4280                25.3563               202.1866

 - Thermochemistry -
 -------------------
 Temperature   298.150 Kelvin.  Pressure   1.00000 Atm.
 Atom     1 has atomic number  6 and mass  12.00000

 Molecular mass:    41.00274 amu.
 Principal axes and moments of inertia in atomic units:
                           1         2         3
     Eigenvalues --    18.38881 142.06782 160.45664
           X           -0.18422   0.98289   0.00000
           Y            0.98289   0.18422   0.00000
           Z           -0.00000  -0.00000   1.00000
 This molecule is an asymmetric top.
 Rotational symmetry number  1.
 Rotational temperatures (Kelvin)      4.71014     0.60967     0.53980
 Rotational constants (GHZ):          98.14344    12.70338    11.24753
 Zero-point vibrational energy      42555.8 (Joules/Mol)
                                   10.17108 (Kcal/Mol)
 Warning -- explicit consideration of   1 degrees of freedom as
           vibrations may cause significant error
 Vibrational temperatures:    278.85  1030.51  1125.66  1509.35  2323.85
          (Kelvin)           3968.35

 Zero-point correction=                           0.016209 (Hartree/Particle)
 Thermal correction to Energy=                    0.019835
 Thermal correction to Enthalpy=                  0.020779
 Thermal correction to Gibbs Free Energy=        -0.009009
 Sum of electronic and zero-point Energies=           -151.470900
 Sum of electronic and thermal Energies=              -151.467273
 Sum of electronic and thermal Enthalpies=            -151.466329
 Sum of electronic and thermal Free Energies=         -151.496117

                     E (Thermal)             CV                S
                      KCal/Mol        Cal/Mol-Kelvin    Cal/Mol-Kelvin
 Total                   12.447              9.666             62.695
 Electronic               0.000              0.000              2.183
 Translational            0.889              2.981             37.061
 Rotational               0.889              2.981             20.666
 Vibrational             10.669              3.704              2.785
 Vibration     1          0.635              1.848              2.191

 Optimization completed.
    -- Stationary point found.
 Normal termination of Gaussian 09 at Fri Mar  1 09:29:03 2019.
