 Gaussian 09, Revision E.01,
 Gaussian 09:  EM64L-G09RevE.01 30-Nov-2015

 ------------------------------------------------------
 #p b3lyp/6-311++G(3df,2p) freq IOp(2/17=3) IOp(2/18=3)
 ------------------------------------------------------

 ---------
 b3lyp opt
 ---------
 Symbolic Z-matrix:
 Charge =  1 Multiplicity = 3

                         Standard orientation:
 ---------------------------------------------------------------------
 Center     Atomic      Atomic             Coordinates (Angstroms)
 Number     Number       Type             X           Y           Z
 ---------------------------------------------------------------------
      1          6           0        0.159189    0.156715   -0.000000
      2          6           0        0.000000    1.489228   -0.000000
      3          1           0       -0.897236   -1.482704    0.000000
      4          8           0       -0.007237   -1.049119    0.000000
 ---------------------------------------------------------------------

 SCF Done:  E(UB3LYP) =  -151.512704796     A.U. after   16 cycles

 The electronic state is 3-A".
 Alpha  occ. eigenvalues --  -19.56916 -10.63891 -10.58125  -1.49155  -1.11704
 Alpha  occ. eigenvalues --   -1.01182  -0.82663  -0.81076  -0.64323  -0.61126
 Alpha  occ. eigenvalues --   -0.60147
 Alpha virt. eigenvalues --   -0.33409  -0.29222  -0.23176  -0.16838  -0.11704
 Alpha virt. eigenvalues --   -0.11306  -0.08521  -0.07756  -0.06887  -0.04963
 Alpha virt. eigenvalues --   -0.03897  -0.01852  -0.00353   0.01271   0.03575

  Beta  occ. eigenvalues --  -19.56070 -10.62800 -10.56388  -1.47483  -1.05813
  Beta  occ. eigenvalues --   -0.99115  -0.79430  -0.77047  -0.59309
  Beta virt. eigenvalues --   -0.47527  -0.46305  -0.29314  -0.22320  -0.21014
  Beta virt. eigenvalues --   -0.15885  -0.11213  -0.11043  -0.07247  -0.07018
  Beta virt. eigenvalues --   -0.05693  -0.04365  -0.03367  -0.00995  -0.00061

 Mulliken charges and spin densities:
               1          2
     1  C    0.772037   0.705521
     2  C    0.105593   1.029944
     3  H    0.382404   0.015963
     4  O   -0.260034   0.248572
 Sum of Mulliken charges =   1.00000   2.00000

 Dipole moment (field-independent basis, Debye):
    X=             -1.2720    Y=             -1.6333    Z=              0.0000  Tot=              2.0702
 Quadrupole moment (field-independent basis, Debye-Ang):
   XX=            -12.3541   YY=             -9.1398   ZZ=            -14.5120
   XY=              4.2173   XZ=              0.0000   YZ=             -0.0000

  Exact polarizability:  16.711   1.790  44.459  -0.000  -0.000  16.104
 Approx polarizability:  23.540  -3.727  74.669  -0.000  -0.000  21.044

                      1                      2                      3
                     A'                     A"                     A'
 Frequencies --    336.9849               376.4895               936.7659
 Red. masses --      4.5563                 3.8409                 1.4668
 Frc consts  --      0.3048                 0.3208                 0.7584
 IR Inten    --    110.0797                94.8039               284.4403

                      4                      5                      6
                     A'                     A'                     A'
 Frequencies --    961.0464              1825.2457              3465.3076
 Red. masses --      5.9800                 9.3369                 1.0676
 Frc consts  --      3.2542                18.3272                 7.5535
 IR Inten    --     43.2169               493.8982               640.6182

 - Thermochemistry -
 -------------------
 Temperature   298.150 Kelvin.  Pressure   1.00000 Atm.
 Atom     1 has atomic number  6 and mass  12.00000

 Molecular mass:    41.00274 amu.
 Principal axes and moments of inertia in atomic units:
                           1         2         3
     Eigenvalues --     3.68320 166.91553 170.59873
           X            0.03786   0.99928   0.00000
           Y            0.99928  -0.03786   0.00000
           Z           -0.00000  -0.00000   1.00000
 This molecule is an asymmetric top.
 Rotational symmetry number  1.
 Rotational temperatures (Kelvin)     23.51590     0.51891     0.50770
 Rotational constants (GHZ):         489.99251    10.81230    10.57887
 Zero-point vibrational energy      47263.5 (Joules/Mol)
                                   11.29625 (Kcal/Mol)
 Warning -- explicit consideration of   2 degrees of freedom as
           vibrations may cause significant error
 Vibrational temperatures:    484.85   541.68  1347.80  1382.73  2626.12
          (Kelvin)           4985.80

 Zero-point correction=                           0.018002 (Hartree/Particle)
 Thermal correction to Energy=                    0.021634
 Thermal correction to Enthalpy=                  0.022578
 Thermal correction to Gibbs Free Energy=        -0.006427
 Sum of electronic and zero-point Energies=           -151.494703
 Sum of electronic and thermal Energies=              -151.491071
 Sum of electronic and thermal Enthalpies=            -151.490126
 Sum of electronic and thermal Free Energies=         -151.519131

                     E (Thermal)             CV                S
                      KCal/Mol        Cal/Mol-Kelvin    Cal/Mol-Kelvin
 Total                   13.576              9.980             61.046
 Electronic               0.000              0.000              2.183
 Translational            0.889              2.981             37.061
 Rotational               0.889              2.981             19.290
 Vibrational             11.798              4.019              2.513
 Vibration     1          0.718              1.602              1.226
 Vibration     2          0.747              1.520              1.053

 Optimization completed.
    -- Stationary point found.
 Normal termination of Gaussian 09 at Fri Mar  1 09:29:02 2019.
