 Gaussian 09, Revision E.01,
 Gaussian 09:  EM64L-G09RevE.01 30-Nov-2015

 ------------------------------------------------------
 #p b3lyp/6-311++G(3df,2p) freq IOp(2/17=3) IOp(2/18=3)
 ------------------------------------------------------

 ---------
 b3lyp opt
 ---------
 Symbolic Z-matrix:
 Charge =  1 Multiplicity = 1

                         Standard orientation:
 ---------------------------------------------------------------------
 Center     Atomic      Atomic             Coordinates (Angstroms)
 Number     Number       Type             X           Y           Z
 ---------------------------------------------------------------------
      1          6           0       -0.000000    0.956511   -0.000000
      2          6           0       -0.891946   -0.345044    0.000000
      3          1           0        1.328935   -0.911380   -0.000000
      4          8           0        0.502843   -0.344678   -0.000000
 ---------------------------------------------------------------------

 SCF Done:  E(RB3LYP) =  -151.426630039     A.U. after   10 cycles

 The electronic state is 1-A'.
 Alpha  occ. eigenvalues --  -19.63116 -10.61897 -10.61876  -1.54247  -1.14004
 Alpha  occ. eigenvalues --   -0.95723  -0.83941  -0.78157  -0.62524  -0.58221
 Alpha virt. eigenvalues --   -0.44305  -0.35416  -0.29163  -0.21872  -0.15169
 Alpha virt. eigenvalues --   -0.14669  -0.12815  -0.12278  -0.07764  -0.06303
 Alpha virt. eigenvalues --   -0.06037  -0.04411  -0.03454  -0.03151  -0.02037

 Mulliken charges:
               1
     1  C    0.228224
     2  C    0.227841
     3  H    0.498052
     4  O    0.045883
 Sum of Mulliken charges =   1.00000

 Dipole moment (field-independent basis, Debye):
    X=              2.3777    Y=             -1.6298    Z=             -0.0000  Tot=              2.8827
 Quadrupole moment (field-independent basis, Debye-Ang):
   XX=            -10.8756   YY=            -14.1702   ZZ=            -13.7291
   XY=             -4.2668   XZ=             -0.0000   YZ=              0.0000

  Exact polarizability:  22.872   0.082  22.939   0.000  -0.000  17.483
 Approx polarizability:  37.158  -1.765  35.803  -0.000  -0.000  28.486

                      1                      2                      3
                     A'                     A"                     A'
 Frequencies --    531.8407               598.1462               790.2608
 Red. masses --      2.1090                 1.2416                10.9227
 Frc consts  --      0.3515                 0.2617                 4.0190
 IR Inten    --      0.0348               122.5168                 6.0325

                      4                      5                      6
                     A'                     A'                     A'
 Frequencies --   1025.5457              1149.0268              3292.5717
 Red. masses --      2.0448                10.7563                 1.0646
 Frc consts  --      1.2671                 8.3670                 6.7998
 IR Inten    --    193.6016               127.7146               638.8042

 - Thermochemistry -
 -------------------
 Temperature   298.150 Kelvin.  Pressure   1.00000 Atm.
 Atom     1 has atomic number  6 and mass  12.00000

 Molecular mass:    41.00274 amu.
 Principal axes and moments of inertia in atomic units:
                           1         2         3
     Eigenvalues --    53.34338  55.40781 108.75119
           X            0.82220   0.56919   0.00000
           Y           -0.56919   0.82220   0.00000
           Z           -0.00000  -0.00000   1.00000
 This molecule is an asymmetric top.
 Rotational symmetry number  1.
 Rotational temperatures (Kelvin)      1.62370     1.56321     0.79644
 Rotational constants (GHZ):          33.83253    32.57196    16.59514
 Zero-point vibrational energy      44186.4 (Joules/Mol)
                                   10.56081 (Kcal/Mol)
 Warning -- explicit consideration of   2 degrees of freedom as
           vibrations may cause significant error
 Vibrational temperatures:    765.20   860.60  1137.01  1475.53  1653.19
          (Kelvin)           4737.27

 Zero-point correction=                           0.016830 (Hartree/Particle)
 Thermal correction to Energy=                    0.020160
 Thermal correction to Enthalpy=                  0.021104
 Thermal correction to Gibbs Free Energy=        -0.006857
 Sum of electronic and zero-point Energies=           -151.409800
 Sum of electronic and thermal Energies=              -151.406470
 Sum of electronic and thermal Enthalpies=            -151.405526
 Sum of electronic and thermal Free Energies=         -151.433487

                     E (Thermal)             CV                S
                      KCal/Mol        Cal/Mol-Kelvin    Cal/Mol-Kelvin
 Total                   12.651              9.435             58.850
 Electronic               0.000              0.000              0.000
 Translational            0.889              2.981             37.061
 Rotational               0.889              2.981             20.402
 Vibrational             10.873              3.473              1.387
 Vibration     1          0.887              1.180              0.583
 Vibration     2          0.956              1.036              0.453

 Optimization completed.
    -- Stationary point found.
 Normal termination of Gaussian 09 at Fri Mar  1 09:28:45 2019.
