 Gaussian 09, Revision E.01,
 Gaussian 09:  EM64L-G09RevE.01 30-Nov-2015

 ------------------------------------------------------
 #p b3lyp/6-311++G(3df,2p) freq IOp(2/17=3) IOp(2/18=3)
 ------------------------------------------------------

 ---------
 b3lyp opt
 ---------
 Symbolic Z-matrix:
 Charge =  0 Multiplicity = 4

                         Standard orientation:
 ---------------------------------------------------------------------
 Center     Atomic      Atomic             Coordinates (Angstroms)
 Number     Number       Type             X           Y           Z
 ---------------------------------------------------------------------
      1          6           0       -0.476323   -0.000859    0.000000
      2          6           0        0.255942   -1.220424   -0.000000
      3          1           0        1.322285   -1.440996   -0.000000
      4          8           0       -0.000000    1.096087   -0.000000
 ---------------------------------------------------------------------

 SCF Done:  E(UB3LYP) =  -151.892769795     A.U. after   13 cycles

 The electronic state is 4-A".
 Alpha  occ. eigenvalues --  -19.20179 -10.28390 -10.27332  -1.12184  -0.78518
 Alpha  occ. eigenvalues --   -0.57900  -0.51277  -0.47363  -0.46742  -0.31573
 Alpha  occ. eigenvalues --   -0.30646  -0.23618
 Alpha virt. eigenvalues --   -0.01960   0.00016   0.03168   0.05258   0.05529
 Alpha virt. eigenvalues --    0.08087   0.08639   0.10067   0.11796   0.13881
 Alpha virt. eigenvalues --    0.15879   0.20703   0.20996   0.23115   0.25054

  Beta  occ. eigenvalues --  -19.18390 -10.27371 -10.24373  -1.08782  -0.71200
  Beta  occ. eigenvalues --   -0.53971  -0.48482  -0.42412  -0.39783
  Beta virt. eigenvalues --   -0.15325  -0.13430  -0.08234   0.00662   0.02683
  Beta virt. eigenvalues --    0.03759   0.06427   0.06549   0.08758   0.09071
  Beta virt. eigenvalues --    0.11374   0.12357   0.14987   0.16987   0.21692

 Mulliken charges and spin densities:
               1          2
     1  C    0.399719   0.652120
     2  C   -0.160354   1.728272
     3  H    0.173139   0.071745
     4  O   -0.412505   0.547864
 Sum of Mulliken charges =  -0.00000   3.00000

 Dipole moment (field-independent basis, Debye):
    X=              1.0424    Y=             -1.6749    Z=             -0.0000  Tot=              1.9728
 Quadrupole moment (field-independent basis, Debye-Ang):
   XX=            -16.7457   YY=            -18.3482   ZZ=            -16.9288
   XY=             -1.6267   XZ=              0.0000   YZ=              0.0000

  Exact polarizability:  27.587  -2.845  36.877  -0.000  -0.000  19.891
 Approx polarizability:  35.416  -1.329  58.051  -0.000  -0.000  26.427

                      1                      2                      3
                     A'                     A"                     A'
 Frequencies --    480.7733               708.3692               929.2567
 Red. masses --      3.0270                 1.5431                 1.5141
 Frc consts  --      0.4122                 0.4562                 0.7703
 IR Inten    --     13.3931                18.0914                 0.7860

                      4                      5                      6
                     A'                     A'                     A'
 Frequencies --   1133.1176              1743.9767              3100.6113
 Red. masses --      9.6404                13.1652                 1.0875
 Frc consts  --      7.2928                23.5917                 6.1600
 IR Inten    --      3.7449                65.9012                 7.8737

 - Thermochemistry -
 -------------------
 Temperature   298.150 Kelvin.  Pressure   1.00000 Atm.
 Atom     1 has atomic number  6 and mass  12.00000

 Molecular mass:    41.00274 amu.
 Principal axes and moments of inertia in atomic units:
                           1         2         3
     Eigenvalues --    15.43452 142.98397 158.41849
           X           -0.15933   0.98723   0.00000
           Y            0.98723   0.15933   0.00000
           Z           -0.00000  -0.00000   1.00000
 This molecule is an asymmetric top.
 Rotational symmetry number  1.
 Rotational temperatures (Kelvin)      5.61169     0.60576     0.54674
 Rotational constants (GHZ):         116.92887    12.62198    11.39224
 Zero-point vibrational energy      48425.5 (Joules/Mol)
                                   11.57396 (Kcal/Mol)
 Warning -- explicit consideration of   1 degrees of freedom as
           vibrations may cause significant error
 Vibrational temperatures:    691.72  1019.18  1336.99  1630.30  2509.19
          (Kelvin)           4461.08

 Zero-point correction=                           0.018444 (Hartree/Particle)
 Thermal correction to Energy=                    0.021697
 Thermal correction to Enthalpy=                  0.022641
 Thermal correction to Gibbs Free Energy=        -0.006574
 Sum of electronic and zero-point Energies=           -151.874326
 Sum of electronic and thermal Energies=              -151.871073
 Sum of electronic and thermal Enthalpies=            -151.870129
 Sum of electronic and thermal Free Energies=         -151.899344

                     E (Thermal)             CV                S
                      KCal/Mol        Cal/Mol-Kelvin    Cal/Mol-Kelvin
 Total                   13.615              8.813             61.488
 Electronic               0.000              0.000              2.755
 Translational            0.889              2.981             37.061
 Rotational               0.889              2.981             20.486
 Vibrational             11.838              2.851              1.187
 Vibration     1          0.837              1.293              0.708

 Optimization completed.
    -- Stationary point found.
 Normal termination of Gaussian 09 at Fri Mar  1 09:27:24 2019.
