 Gaussian 09, Revision E.01,
 Gaussian 09:  EM64L-G09RevE.01 30-Nov-2015

 ------------------------------------------------------
 #p b3lyp/6-311++G(3df,2p) freq IOp(2/17=3) IOp(2/18=3)
 ------------------------------------------------------

 ---------
 b3lyp opt
 ---------
 Symbolic Z-matrix:
 Charge =  0 Multiplicity = 2

                         Standard orientation:
 ---------------------------------------------------------------------
 Center     Atomic      Atomic             Coordinates (Angstroms)
 Number     Number       Type             X           Y           Z
 ---------------------------------------------------------------------
      1          6           0        0.037710   -0.025375   -0.000000
      2          6           0        0.000000    1.261921    0.000000
      3          1           0        0.710376    2.062997   -0.000000
      4          8           0       -0.117080   -1.185284   -0.000000
 ---------------------------------------------------------------------

 SCF Done:  E(UB3LYP) =  -151.985348643     A.U. after   14 cycles

 The electronic state is 2-A".
 Alpha  occ. eigenvalues --  -19.21098 -10.30116 -10.22775  -1.13809  -0.80319
 Alpha  occ. eigenvalues --   -0.56312  -0.52254  -0.48951  -0.46605  -0.30305
 Alpha  occ. eigenvalues --   -0.28444
 Alpha virt. eigenvalues --   -0.01219  -0.00577   0.01855   0.03155   0.05717
 Alpha virt. eigenvalues --    0.05895   0.08715   0.10135   0.10395   0.11185
 Alpha virt. eigenvalues --    0.14308   0.16967   0.21489   0.24321   0.24354

  Beta  occ. eigenvalues --  -19.20292 -10.30142 -10.21756  -1.12418  -0.77281
  Beta  occ. eigenvalues --   -0.55196  -0.51390  -0.46145  -0.44868  -0.27084
  Beta virt. eigenvalues --   -0.17545  -0.01000  -0.00308   0.03188   0.04226
  Beta virt. eigenvalues --    0.05866   0.07267   0.08881   0.10212   0.11433
  Beta virt. eigenvalues --    0.11800   0.14522   0.17560   0.21762   0.24450

 Mulliken charges and spin densities:
               1          2
     1  C    0.646443  -0.008832
     2  C   -0.323055   0.740706
     3  H    0.218036  -0.016338
     4  O   -0.541424   0.284464
 Sum of Mulliken charges =  -0.00000   1.00000

 Dipole moment (field-independent basis, Debye):
    X=              1.1570    Y=              1.2344    Z=             -0.0000  Tot=              1.6919
 Quadrupole moment (field-independent basis, Debye-Ang):
   XX=            -17.3520   YY=            -17.3806   ZZ=            -16.4662
   XY=              2.1030   XZ=              0.0000   YZ=             -0.0000

  Exact polarizability:  20.763  -0.088  43.067  -0.000   0.000  20.531
 Approx polarizability:  27.012  -2.203  80.071  -0.000   0.000  24.990

                      1                      2                      3
                     A'                     A"                     A'
 Frequencies --    484.0819               505.0674               569.0102
 Red. masses --      1.1671                 4.3635                11.9579
 Frc consts  --      0.1611                 0.6558                 2.2811
 IR Inten    --    227.8023                 2.7445                13.7719

                      4                      5                      6
                     A'                     A'                     A'
 Frequencies --   1263.8430              2084.8332              3336.2229
 Red. masses --      7.7926                 9.8778                 1.1045
 Frc consts  --      7.3336                25.2961                 7.2434
 IR Inten    --      6.4376               341.2237                45.7994

 - Thermochemistry -
 -------------------
 Temperature   298.150 Kelvin.  Pressure   1.00000 Atm.
 Atom     1 has atomic number  6 and mass  12.00000

 Molecular mass:    41.00274 amu.
 Principal axes and moments of inertia in atomic units:
                           1         2         3
     Eigenvalues --     1.56747 164.51845 166.08592
           X            0.08025   0.99677   0.00000
           Y            0.99677  -0.08025   0.00000
           Z            0.00000   0.00000   1.00000
 This molecule is an asymmetric top.
 Rotational symmetry number  1.
 Rotational temperatures (Kelvin)     55.25717     0.52647     0.52150
 Rotational constants (GHZ):        1151.37389    10.96984    10.86631
 Zero-point vibrational energy      49304.4 (Joules/Mol)
                                   11.78404 (Kcal/Mol)
 Warning -- explicit consideration of   3 degrees of freedom as
           vibrations may cause significant error
 Vibrational temperatures:    696.49   726.68   818.68  1818.39  2999.61
          (Kelvin)           4800.07

 Zero-point correction=                           0.018779 (Hartree/Particle)
 Thermal correction to Energy=                    0.022259
 Thermal correction to Enthalpy=                  0.023204
 Thermal correction to Gibbs Free Energy=        -0.004697
 Sum of electronic and zero-point Energies=           -151.966570
 Sum of electronic and thermal Energies=              -151.963089
 Sum of electronic and thermal Enthalpies=            -151.962145
 Sum of electronic and thermal Free Energies=         -151.990045

                     E (Thermal)             CV                S
                      KCal/Mol        Cal/Mol-Kelvin    Cal/Mol-Kelvin
 Total                   13.968              9.759             58.721
 Electronic               0.000              0.000              1.377
 Translational            0.889              2.981             37.061
 Rotational               0.889              2.981             18.400
 Vibrational             12.191              3.798              1.884
 Vibration     1          0.840              1.285              0.699
 Vibration     2          0.860              1.239              0.646
 Vibration     3          0.925              1.098              0.506

 Optimization completed.
    -- Stationary point found.
 Normal termination of Gaussian 09 at Fri Mar  1 09:27:26 2019.
