 Gaussian 09, Revision E.01,
 Gaussian 09:  EM64L-G09RevE.01 30-Nov-2015

 ------------------------------------------------------
 #p b3lyp/6-311++G(3df,2p) freq IOp(2/17=3) IOp(2/18=3)
 ------------------------------------------------------

 ---------
 b3lyp opt
 ---------
 Symbolic Z-matrix:
 Charge =  0 Multiplicity = 4

                         Standard orientation:
 ---------------------------------------------------------------------
 Center     Atomic      Atomic             Coordinates (Angstroms)
 Number     Number       Type             X           Y           Z
 ---------------------------------------------------------------------
      1          6           0       -0.538458    0.042665   -0.000000
      2          6           0       -0.000000    1.379451    0.000000
      3          1           0        1.200027   -0.703905    0.000000
      4          8           0        0.253840   -0.978599    0.000000
 ---------------------------------------------------------------------

 SCF Done:  E(UB3LYP) =  -151.805865559     A.U. after   14 cycles

 The electronic state is 4-A".
 Alpha  occ. eigenvalues --  -19.25093 -10.31588 -10.24558  -1.16770  -0.77872
 Alpha  occ. eigenvalues --   -0.67897  -0.51169  -0.49454  -0.38940  -0.31889
 Alpha  occ. eigenvalues --   -0.29294  -0.22113
 Alpha virt. eigenvalues --   -0.04583  -0.01825   0.03635   0.05369   0.05672
 Alpha virt. eigenvalues --    0.08237   0.08717   0.09456   0.10679   0.10773
 Alpha virt. eigenvalues --    0.15798   0.17364   0.19888   0.24530   0.25100

  Beta  occ. eigenvalues --  -19.24200 -10.29996 -10.22054  -1.14611  -0.71885
  Beta  occ. eigenvalues --   -0.64099  -0.47806  -0.45582  -0.30708
  Beta virt. eigenvalues --   -0.16471  -0.16017  -0.07489   0.00338   0.01914
  Beta virt. eigenvalues --    0.04246   0.06233   0.06338   0.08543   0.09534
  Beta virt. eigenvalues --    0.10744   0.11575   0.11963   0.16269   0.18040

 Mulliken charges and spin densities:
               1          2
     1  C    0.443170   1.034926
     2  C   -0.383593   1.723779
     3  H    0.251704   0.125183
     4  O   -0.311282   0.116112
 Sum of Mulliken charges =  -0.00000   3.00000

 Dipole moment (field-independent basis, Debye):
    X=              1.0352    Y=             -1.7509    Z=              0.0000  Tot=              2.0340
 Quadrupole moment (field-independent basis, Debye-Ang):
   XX=            -16.6193   YY=            -21.9601   ZZ=            -17.6036
   XY=             -2.1717   XZ=             -0.0000   YZ=              0.0000

  Exact polarizability:  36.289   2.917  48.862  -0.000  -0.000  22.641
 Approx polarizability:  49.708   7.501  79.485   0.000   0.000  30.683

                      1                      2                      3
                     A'                     A"                     A'
 Frequencies --    496.8047               611.8802              1021.3786
 Red. masses --      4.1484                 1.3684                 3.5014
 Frc consts  --      0.6033                 0.3019                 2.1521
 IR Inten    --     35.0734                75.0790                46.2592

                      4                      5                      6
                     A'                     A'                     A'
 Frequencies --   1163.1633              1322.8450              3425.7081
 Red. masses --      1.7182                12.7025                 1.0601
 Frc consts  --      1.3696                13.0966                 7.3301
 IR Inten    --     95.3625               255.9939                 9.6373

 - Thermochemistry -
 -------------------
 Temperature   298.150 Kelvin.  Pressure   1.00000 Atm.
 Atom     1 has atomic number  6 and mass  12.00000

 Molecular mass:    41.00274 amu.
 Principal axes and moments of inertia in atomic units:
                           1         2         3
     Eigenvalues --    18.41382 140.81266 159.22647
           X           -0.14990   0.98870   0.00000
           Y            0.98870   0.14990   0.00000
           Z            0.00000   0.00000   1.00000
 This molecule is an asymmetric top.
 Rotational symmetry number  1.
 Rotational temperatures (Kelvin)      4.70374     0.61510     0.54397
 Rotational constants (GHZ):          98.01017    12.81661    11.33443
 Zero-point vibrational energy      48100.5 (Joules/Mol)
                                   11.49630 (Kcal/Mol)
 Warning -- explicit consideration of   2 degrees of freedom as
           vibrations may cause significant error
 Vibrational temperatures:    714.79   880.36  1469.53  1673.53  1903.28
          (Kelvin)           4928.82

 Zero-point correction=                           0.018321 (Hartree/Particle)
 Thermal correction to Energy=                    0.021597
 Thermal correction to Enthalpy=                  0.022541
 Thermal correction to Gibbs Free Energy=        -0.006785
 Sum of electronic and zero-point Energies=           -151.787545
 Sum of electronic and thermal Energies=              -151.784269
 Sum of electronic and thermal Enthalpies=            -151.783325
 Sum of electronic and thermal Free Energies=         -151.812650

                     E (Thermal)             CV                S
                      KCal/Mol        Cal/Mol-Kelvin    Cal/Mol-Kelvin
 Total                   13.552              8.947             61.721
 Electronic               0.000              0.000              2.755
 Translational            0.889              2.981             37.061
 Rotational               0.889              2.981             20.651
 Vibrational             11.775              2.986              1.255
 Vibration     1          0.852              1.257              0.666
 Vibration     2          0.971              1.007              0.430

 Optimization completed.
    -- Stationary point found.
 Normal termination of Gaussian 09 at Fri Mar  1 09:27:26 2019.
