 Gaussian 09, Revision E.01,
 Gaussian 09:  EM64L-G09RevE.01 30-Nov-2015

 ------------------------------------------------------
 #p b3lyp/6-311++G(3df,2p) freq IOp(2/17=3) IOp(2/18=3)
 ------------------------------------------------------

 ---------
 b3lyp opt
 ---------
 Symbolic Z-matrix:
 Charge =  0 Multiplicity = 4

                         Standard orientation:
 ---------------------------------------------------------------------
 Center     Atomic      Atomic             Coordinates (Angstroms)
 Number     Number       Type             X           Y           Z
 ---------------------------------------------------------------------
      1          6           0       -0.412275    0.786337    0.043998
      2          6           0        0.801864    0.020964   -0.148944
      3          1           0        1.593499   -0.257037    0.544322
      4          8           0       -0.491380   -0.573346    0.010669
 ---------------------------------------------------------------------

 SCF Done:  E(UB3LYP) =  -151.789406708     A.U. after   13 cycles

 The electronic state is 4-A.
 Alpha  occ. eigenvalues --  -19.23290 -10.29307 -10.27855  -1.16710  -0.71075
 Alpha  occ. eigenvalues --   -0.63554  -0.53308  -0.48814  -0.41452  -0.35237
 Alpha  occ. eigenvalues --   -0.27975  -0.19813
 Alpha virt. eigenvalues --    0.00024   0.01625   0.03683   0.05157   0.06040
 Alpha virt. eigenvalues --    0.08799   0.09609   0.10503   0.12025   0.15121
 Alpha virt. eigenvalues --    0.15651   0.16931   0.19329   0.20148   0.25018

  Beta  occ. eigenvalues --  -19.22023 -10.27525 -10.24941  -1.13979  -0.66499
  Beta  occ. eigenvalues --   -0.58976  -0.48641  -0.41962  -0.37398
  Beta virt. eigenvalues --   -0.17697  -0.11487  -0.02006   0.00363   0.02435
  Beta virt. eigenvalues --    0.04636   0.06273   0.07906   0.09063   0.11429
  Beta virt. eigenvalues --    0.12137   0.13334   0.15807   0.16700   0.18857

 Mulliken charges and spin densities:
               1          2
     1  C    0.028842   1.703024
     2  C    0.073116   0.946031
     3  H    0.169534   0.048259
     4  O   -0.271493   0.302687
 Sum of Mulliken charges =  -0.00000   3.00000

 Dipole moment (field-independent basis, Debye):
    X=              1.0645    Y=             -0.0277    Z=              0.5694  Tot=              1.2075
 Quadrupole moment (field-independent basis, Debye-Ang):
   XX=            -15.4974   YY=            -18.1704   ZZ=            -17.9635
   XY=             -0.7634   XZ=              1.0025   YZ=             -0.1309

  Exact polarizability:  29.455  -3.524  26.848  -0.255   0.256  21.523
 Approx polarizability:  41.332  -2.813  40.042  -1.127   0.288  26.389

                      1                      2                      3
                      A                      A                      A
 Frequencies --    744.1753               925.2600              1008.5868
 Red. masses --     12.1072                 1.3718                 1.9474
 Frc consts  --      3.9504                 0.6920                 1.1672
 IR Inten    --     18.8243                27.0976                30.5090

                      4                      5                      6
                      A                      A                      A
 Frequencies --   1056.2184              1365.4423              3085.9112
 Red. masses --      1.9303                10.2907                 1.0893
 Frc consts  --      1.2687                11.3042                 6.1116
 IR Inten    --     61.7068                23.9216                20.6401

 - Thermochemistry -
 -------------------
 Temperature   298.150 Kelvin.  Pressure   1.00000 Atm.
 Atom     1 has atomic number  6 and mass  12.00000

 Molecular mass:    41.00274 amu.
 Principal axes and moments of inertia in atomic units:
                           1         2         3
     Eigenvalues --    47.25721  59.79389 103.26105
           X            0.99168  -0.11554   0.05682
           Y            0.11648   0.99310  -0.01355
           Z           -0.05486   0.02006   0.99829
 This molecule is an asymmetric top.
 Rotational symmetry number  1.
 Rotational temperatures (Kelvin)      1.83282     1.44854     0.83878
 Rotational constants (GHZ):          38.18975    30.18270    17.47746
 Zero-point vibrational energy      48960.7 (Joules/Mol)
                                   11.70189 (Kcal/Mol)
 Vibrational temperatures:   1070.70  1331.24  1451.13  1519.66  1964.56
          (Kelvin)           4439.93

 Zero-point correction=                           0.018648 (Hartree/Particle)
 Thermal correction to Energy=                    0.021700
 Thermal correction to Enthalpy=                  0.022644
 Thermal correction to Gibbs Free Energy=        -0.006193
 Sum of electronic and zero-point Energies=           -151.770759
 Sum of electronic and thermal Energies=              -151.767707
 Sum of electronic and thermal Enthalpies=            -151.766763
 Sum of electronic and thermal Free Energies=         -151.795599

                     E (Thermal)             CV                S
                      KCal/Mol        Cal/Mol-Kelvin    Cal/Mol-Kelvin
 Total                   13.617              7.982             60.691
 Electronic               0.000              0.000              2.755
 Translational            0.889              2.981             37.061
 Rotational               0.889              2.981             20.306
 Vibrational             11.839              2.020              0.570

 Optimization completed.
    -- Stationary point found.
 Normal termination of Gaussian 09 at Fri Mar  1 09:27:38 2019.
