 Gaussian 09, Revision E.01,
 Gaussian 09:  EM64L-G09RevE.01 30-Nov-2015

 ------------------------------------------------------
 #p b3lyp/6-311++G(3df,2p) freq IOp(2/17=3) IOp(2/18=3)
 ------------------------------------------------------

 ---------
 b3lyp opt
 ---------
 Symbolic Z-matrix:
 Charge =  1 Multiplicity = 3

                         Standard orientation:
 ---------------------------------------------------------------------
 Center     Atomic      Atomic             Coordinates (Angstroms)
 Number     Number       Type             X           Y           Z
 ---------------------------------------------------------------------
      1          6           0       -0.000000    1.195154    0.000000
      2          6           0       -0.177607   -1.306122   -0.000000
      3          1           0        0.899167    1.811931    0.000000
      4          8           0        0.020810   -0.143265    0.000000
 ---------------------------------------------------------------------

 SCF Done:  E(UB3LYP) =  -151.497828718     A.U. after   15 cycles

 The electronic state is 3-A".
 Alpha  occ. eigenvalues --  -19.61626 -10.64121 -10.61261  -1.53953  -1.18615
 Alpha  occ. eigenvalues --   -0.88087  -0.85301  -0.84908  -0.67932  -0.61602
 Alpha  occ. eigenvalues --   -0.55780
 Alpha virt. eigenvalues --   -0.35514  -0.34419  -0.19496  -0.17900  -0.12055
 Alpha virt. eigenvalues --   -0.10994  -0.10708  -0.08057  -0.06623  -0.06072
 Alpha virt. eigenvalues --   -0.03273  -0.02644  -0.01188   0.02295   0.02738

  Beta  occ. eigenvalues --  -19.61858 -10.63458 -10.58147  -1.53442  -1.15676
  Beta  occ. eigenvalues --   -0.85818  -0.84242  -0.81397  -0.66433
  Beta virt. eigenvalues --   -0.42804  -0.39762  -0.32217  -0.28865  -0.17458
  Beta virt. eigenvalues --   -0.16676  -0.10947  -0.09784  -0.09591  -0.06890
  Beta virt. eigenvalues --   -0.05919  -0.05372  -0.02543  -0.02047  -0.00175

 Mulliken charges and spin densities:
               1          2
     1  C    0.316116   1.740254
     2  C    0.301565   0.350492
     3  H    0.291256   0.035190
     4  O    0.091063  -0.125936
 Sum of Mulliken charges =   1.00000   2.00000

 Dipole moment (field-independent basis, Debye):
    X=              0.7185    Y=              1.5838    Z=              0.0000  Tot=              1.7392
 Quadrupole moment (field-independent basis, Debye-Ang):
   XX=            -13.0734   YY=             -8.1457   ZZ=            -14.6354
   XY=              2.1011   XZ=              0.0000   YZ=              0.0000

  Exact polarizability:  16.731   2.961  38.869  -0.000  -0.000  15.704
 Approx polarizability:  22.909   4.003  65.973   0.000   0.000  21.375

                      1                      2                      3
                     A'                     A"                     A'
 Frequencies --    258.4294               314.9501               828.5941
 Red. masses --      6.6864                 4.6315                 6.7365
 Frc consts  --      0.2631                 0.2707                 2.7250
 IR Inten    --      5.7948                10.7930                 8.7431

                      4                      5                      6
                     A'                     A'                     A'
 Frequencies --   1036.3009              1670.0766              3128.0648
 Red. masses --      1.2967                11.7551                 1.0900
 Frc consts  --      0.8205                19.3175                 6.2842
 IR Inten    --     23.9602                39.0402               158.6031

 - Thermochemistry -
 -------------------
 Temperature   298.150 Kelvin.  Pressure   1.00000 Atm.
 Atom     1 has atomic number  6 and mass  12.00000

 Molecular mass:    41.00274 amu.
 Principal axes and moments of inertia in atomic units:
                           1         2         3
     Eigenvalues --     2.55514 148.68427 151.23941
           X            0.10664   0.99430   0.00000
           Y            0.99430  -0.10664   0.00000
           Z           -0.00000  -0.00000   1.00000
 This molecule is an asymmetric top.
 Rotational symmetry number  1.
 Rotational temperatures (Kelvin)     33.89792     0.58254     0.57269
 Rotational constants (GHZ):         706.31891    12.13808    11.93301
 Zero-point vibrational energy      43283.4 (Joules/Mol)
                                   10.34498 (Kcal/Mol)
 Warning -- explicit consideration of   2 degrees of freedom as
           vibrations may cause significant error
 Vibrational temperatures:    371.82   453.14  1192.16  1491.00  2402.86
          (Kelvin)           4500.58

 Zero-point correction=                           0.016486 (Hartree/Particle)
 Thermal correction to Energy=                    0.020300
 Thermal correction to Enthalpy=                  0.021244
 Thermal correction to Gibbs Free Energy=        -0.007842
 Sum of electronic and zero-point Energies=           -151.481343
 Sum of electronic and thermal Energies=              -151.477529
 Sum of electronic and thermal Enthalpies=            -151.476585
 Sum of electronic and thermal Free Energies=         -151.505670

                     E (Thermal)             CV                S
                      KCal/Mol        Cal/Mol-Kelvin    Cal/Mol-Kelvin
 Total                   12.738             10.340             61.216
 Electronic               0.000              0.000              2.183
 Translational            0.889              2.981             37.061
 Rotational               0.889              2.981             18.692
 Vibrational             10.961              4.378              3.280
 Vibration     1          0.667              1.749              1.672
 Vibration     2          0.702              1.645              1.336

 Optimization completed.
    -- Stationary point found.
 Normal termination of Gaussian 09 at Fri Mar  1 09:29:01 2019.
