 Gaussian 09, Revision E.01,
 Gaussian 09:  EM64L-G09RevE.01 30-Nov-2015

 ------------------------------------------------------
 #p b3lyp/6-311++G(3df,2p) freq IOp(2/17=3) IOp(2/18=3)
 ------------------------------------------------------

 ---------
 b3lyp opt
 ---------
 Symbolic Z-matrix:
 Charge =  1 Multiplicity = 1

                         Standard orientation:
 ---------------------------------------------------------------------
 Center     Atomic      Atomic             Coordinates (Angstroms)
 Number     Number       Type             X           Y           Z
 ---------------------------------------------------------------------
      1          6           0        0.060540   -0.070900    0.000000
      2          6           0       -0.000000    1.319253    0.000000
      3          1           0        0.906549    1.933720    0.000000
      4          8           0       -0.158724   -1.177979   -0.000000
 ---------------------------------------------------------------------

 SCF Done:  E(RB3LYP) =  -151.576977176     A.U. after   10 cycles

 The electronic state is 1-A'.
 Alpha  occ. eigenvalues --  -19.55361 -10.64030 -10.61184  -1.47656  -1.10572
 Alpha  occ. eigenvalues --   -0.86182  -0.82330  -0.79003  -0.77932  -0.59448
 Alpha virt. eigenvalues --   -0.51057  -0.31952  -0.27069  -0.21406  -0.14073
 Alpha virt. eigenvalues --   -0.11704  -0.11609  -0.10289  -0.07111  -0.06551
 Alpha virt. eigenvalues --   -0.05837  -0.04712  -0.01738   0.01018   0.01283

 Mulliken charges:
               1
     1  C    0.866662
     2  C    0.106342
     3  H    0.294091
     4  O   -0.267096
 Sum of Mulliken charges =   1.00000

 Dipole moment (field-independent basis, Debye):
    X=              1.6463    Y=              2.8196    Z=              0.0000  Tot=              3.2650
 Quadrupole moment (field-independent basis, Debye-Ang):
   XX=            -14.0842   YY=             -8.2891   ZZ=            -12.8318
   XY=              3.2925   XZ=             -0.0000   YZ=              0.0000

  Exact polarizability:  15.456   0.696  33.978  -0.000  -0.000  15.135
 Approx polarizability:  20.771   0.143  67.848   0.000   0.000  21.288

                      1                      2                      3
                     A"                     A'                     A'
 Frequencies --    372.9928               485.0409               653.5839
 Red. masses --      3.6953                 3.4854                 2.0707
 Frc consts  --      0.3029                 0.4831                 0.5212
 IR Inten    --      2.9851                39.3139               104.2577

                      4                      5                      6
                     A'                     A'                     A'
 Frequencies --   1058.6849              2203.1545              3115.9244
 Red. masses --      3.2475                11.3980                 1.0908
 Frc consts  --      2.1445                32.5964                 6.2399
 IR Inten    --     60.0775                63.2147               111.0894

 - Thermochemistry -
 -------------------
 Temperature   298.150 Kelvin.  Pressure   1.00000 Atm.
 Atom     1 has atomic number  6 and mass  12.00000

 Molecular mass:    41.00274 amu.
 Principal axes and moments of inertia in atomic units:
                           1         2         3
     Eigenvalues --     2.79620 168.88413 171.68034
           X            0.10079   0.99491  -0.00000
           Y            0.99491  -0.10079  -0.00000
           Z            0.00000   0.00000   1.00000
 This molecule is an asymmetric top.
 Rotational symmetry number  1.
 Rotational temperatures (Kelvin)     30.97552     0.51286     0.50451
 Rotational constants (GHZ):         645.42587    10.68627    10.51222
 Zero-point vibrational energy      47189.0 (Joules/Mol)
                                   11.27844 (Kcal/Mol)
 Warning -- explicit consideration of   2 degrees of freedom as
           vibrations may cause significant error
 Vibrational temperatures:    536.65   697.86   940.36  1523.21  3169.84
          (Kelvin)           4483.11

 Zero-point correction=                           0.017973 (Hartree/Particle)
 Thermal correction to Energy=                    0.021540
 Thermal correction to Enthalpy=                  0.022484
 Thermal correction to Gibbs Free Energy=        -0.005215
 Sum of electronic and zero-point Energies=           -151.559004
 Sum of electronic and thermal Energies=              -151.555437
 Sum of electronic and thermal Enthalpies=            -151.554493
 Sum of electronic and thermal Free Energies=         -151.582192

                     E (Thermal)             CV                S
                      KCal/Mol        Cal/Mol-Kelvin    Cal/Mol-Kelvin
 Total                   13.517             10.016             58.299
 Electronic               0.000              0.000              0.000
 Translational            0.889              2.981             37.061
 Rotational               0.889              2.981             19.034
 Vibrational             11.739              4.054              2.205
 Vibration     1          0.744              1.528              1.067
 Vibration     2          0.841              1.283              0.697

 Optimization completed.
    -- Stationary point found.
 Normal termination of Gaussian 09 at Fri Mar  1 09:28:42 2019.
