 Gaussian 09, Revision E.01,
 Gaussian 09:  EM64L-G09RevE.01 30-Nov-2015

 ------------------------------------------------------
 #p b3lyp/6-311++G(3df,2p) freq IOp(2/17=3) IOp(2/18=3)
 ------------------------------------------------------

 ---------
 b3lyp opt
 ---------
 Symbolic Z-matrix:
 Charge =  1 Multiplicity = 1

                         Standard orientation:
 ---------------------------------------------------------------------
 Center     Atomic      Atomic             Coordinates (Angstroms)
 Number     Number       Type             X           Y           Z
 ---------------------------------------------------------------------
      1          6           0       -1.338802   -0.075638    0.000324
      2          6           0        1.314566   -0.228353    0.000079
      3          1           0        1.691694    0.820202    0.000804
      4          8           0       -0.193285    0.125468   -0.000403
 ---------------------------------------------------------------------

 SCF Done:  E(RB3LYP) =  -151.497407638     A.U. after   10 cycles

 The electronic state is 1-A.
 Alpha  occ. eigenvalues --  -19.58266 -10.64555 -10.63257  -1.50421  -1.10515
 Alpha  occ. eigenvalues --   -0.85348  -0.82128  -0.81548  -0.66526  -0.59524
 Alpha virt. eigenvalues --   -0.45294  -0.35469  -0.32309  -0.26006  -0.19016
 Alpha virt. eigenvalues --   -0.12346  -0.10745  -0.10304  -0.08055  -0.06917
 Alpha virt. eigenvalues --   -0.05762  -0.04892  -0.03012  -0.01557   0.01617

 Mulliken charges:
               1
     1  C    0.314929
     2  C    0.375859
     3  H    0.259317
     4  O    0.049895
 Sum of Mulliken charges =   1.00000

 Dipole moment (field-independent basis, Debye):
    X=              1.6126    Y=              1.1979    Z=              0.0012  Tot=              2.0089
 Quadrupole moment (field-independent basis, Debye-Ang):
   XX=             -7.9029   YY=            -14.9796   ZZ=            -13.5688
   XY=              2.2154   XZ=              0.0023   YZ=             -0.0002

  Exact polarizability:  35.513   0.062  18.066  -0.001   0.000  17.344
 Approx polarizability:  55.942  -0.177  24.851  -0.005  -0.002  27.014

                      1                      2                      3
                      A                      A                      A
 Frequencies --    188.8111               247.5910               394.4362
 Red. masses --      2.3050                 8.6637                12.1586
 Frc consts  --      0.0484                 0.3129                 1.1145
 IR Inten    --     39.5536                12.0123               158.2178

                      4                      5                      6
                      A                      A                      A
 Frequencies --   1271.2817              1887.0972              2943.4288
 Red. masses --      1.1210                12.0272                 1.0870
 Frc consts  --      1.0674                25.2349                 5.5484
 IR Inten    --     27.4457               431.7039                 5.4993

 - Thermochemistry -
 -------------------
 Temperature   298.150 Kelvin.  Pressure   1.00000 Atm.
 Atom     1 has atomic number  6 and mass  12.00000

 Molecular mass:    41.00274 amu.
 Principal axes and moments of inertia in atomic units:
                           1         2         3
     Eigenvalues --     5.58134 163.21162 168.79293
           X            0.99949   0.03196   0.00004
           Y           -0.03196   0.99949   0.00046
           Z           -0.00003  -0.00046   1.00000
 This molecule is an asymmetric top.
 Rotational symmetry number  1.
 Rotational temperatures (Kelvin)     15.51847     0.53068     0.51314
 Rotational constants (GHZ):         323.35283    11.05768    10.69204
 Zero-point vibrational energy      41466.4 (Joules/Mol)
                                    9.91071 (Kcal/Mol)
 Warning -- explicit consideration of   3 degrees of freedom as
           vibrations may cause significant error
 Vibrational temperatures:    271.66   356.23   567.51  1829.09  2715.11
          (Kelvin)           4234.93

 Zero-point correction=                           0.015794 (Hartree/Particle)
 Thermal correction to Energy=                    0.020023
 Thermal correction to Enthalpy=                  0.020967
 Thermal correction to Gibbs Free Energy=        -0.008365
 Sum of electronic and zero-point Energies=           -151.481614
 Sum of electronic and thermal Energies=              -151.477385
 Sum of electronic and thermal Enthalpies=            -151.476440
 Sum of electronic and thermal Free Energies=         -151.505772

                     E (Thermal)             CV                S
                      KCal/Mol        Cal/Mol-Kelvin    Cal/Mol-Kelvin
 Total                   12.565             11.247             61.734
 Electronic               0.000              0.000              0.000
 Translational            0.889              2.981             37.061
 Rotational               0.889              2.981             19.670
 Vibrational             10.787              5.285              5.003
 Vibration     1          0.633              1.855              2.239
 Vibration     2          0.661              1.767              1.748
 Vibration     3          0.761              1.482              0.983

 Normal termination of Gaussian 09 at Fri Mar  1 09:28:51 2019.
