 Gaussian 09, Revision E.01,
 Gaussian 09:  EM64L-G09RevE.01 30-Nov-2015

 ------------------------------------------------------
 #p b3lyp/6-311++G(3df,2p) freq IOp(2/17=3) IOp(2/18=3)
 ------------------------------------------------------

 ---------
 b3lyp opt
 ---------
 Symbolic Z-matrix:
 Charge =  1 Multiplicity = 1

                         Standard orientation:
 ---------------------------------------------------------------------
 Center     Atomic      Atomic             Coordinates (Angstroms)
 Number     Number       Type             X           Y           Z
 ---------------------------------------------------------------------
      1          6           0       -0.162491   -1.511622   -0.000000
      2          6           0        0.016350   -0.156275    0.000000
      3          1           0        0.876847    1.531479    0.000000
      4          8           0        0.000000    1.059488   -0.000000
 ---------------------------------------------------------------------

 SCF Done:  E(RB3LYP) =  -151.491351650     A.U. after   11 cycles

 The electronic state is 1-A'.
 Alpha  occ. eigenvalues --  -19.58971 -10.62571 -10.58199  -1.49860  -1.08591
 Alpha  occ. eigenvalues --   -0.99772  -0.83003  -0.80187  -0.60777  -0.58137
 Alpha virt. eigenvalues --   -0.50175  -0.29230  -0.26376  -0.26319  -0.16020
 Alpha virt. eigenvalues --   -0.12001  -0.11391  -0.09067  -0.07068  -0.06851
 Alpha virt. eigenvalues --   -0.04925  -0.03482  -0.01572  -0.00095   0.02796

 Mulliken charges:
               1
     1  C    0.050587
     2  C    0.789523
     3  H    0.384858
     4  O   -0.224968
 Sum of Mulliken charges =   1.00000

 Dipole moment (field-independent basis, Debye):
    X=              1.7734    Y=              2.1902    Z=              0.0000  Tot=              2.8182
 Quadrupole moment (field-independent basis, Debye-Ang):
   XX=            -13.8685   YY=            -10.0276   ZZ=            -13.1525
   XY=              3.5786   XZ=              0.0000   YZ=             -0.0000

  Exact polarizability:  17.526   3.313  35.159   0.000   0.000  16.101
 Approx polarizability:  24.308   6.140  63.324   0.000   0.000  24.435

                      1                      2                      3
                     A"                     A'                     A'
 Frequencies --    110.4563               297.2806              1044.4663
 Red. masses --      5.9274                 6.1202                 7.9393
 Frc consts  --      0.0426                 0.3187                 5.1029
 IR Inten    --     14.9351                10.6797                67.1816

                      4                      5                      6
                     A'                     A'                     A'
 Frequencies --   1177.9896              1966.5542              3380.3855
 Red. masses --      1.2637                10.7126                 1.0666
 Frc consts  --      1.0332                24.4094                 7.1811
 IR Inten    --    238.9452                 2.8914               407.5463

 - Thermochemistry -
 -------------------
 Temperature   298.150 Kelvin.  Pressure   1.00000 Atm.
 Atom     1 has atomic number  6 and mass  12.00000

 Molecular mass:    41.00274 amu.
 Principal axes and moments of inertia in atomic units:
                           1         2         3
     Eigenvalues --     2.48759 172.67714 175.16473
           X            0.08928   0.99601   0.00000
           Y            0.99601  -0.08928   0.00000
           Z           -0.00000  -0.00000   1.00000
 This molecule is an asymmetric top.
 Rotational symmetry number  1.
 Rotational temperatures (Kelvin)     34.81831     0.50159     0.49447
 Rotational constants (GHZ):         725.49673    10.45154    10.30311
 Zero-point vibrational energy      47713.8 (Joules/Mol)
                                   11.40388 (Kcal/Mol)
 Warning -- explicit consideration of   2 degrees of freedom as
           vibrations may cause significant error
 Vibrational temperatures:    158.92   427.72  1502.75  1694.86  2829.43
          (Kelvin)           4863.61

 Zero-point correction=                           0.018173 (Hartree/Particle)
 Thermal correction to Energy=                    0.022194
 Thermal correction to Enthalpy=                  0.023138
 Thermal correction to Gibbs Free Energy=        -0.005768
 Sum of electronic and zero-point Energies=           -151.473178
 Sum of electronic and thermal Energies=              -151.469158
 Sum of electronic and thermal Enthalpies=            -151.468213
 Sum of electronic and thermal Free Energies=         -151.497120

                     E (Thermal)             CV                S
                      KCal/Mol        Cal/Mol-Kelvin    Cal/Mol-Kelvin
 Total                   13.927             10.146             60.838
 Electronic               0.000              0.000              0.000
 Translational            0.889              2.981             37.061
 Rotational               0.889              2.981             18.960
 Vibrational             12.150              4.184              4.818
 Vibration     1          0.606              1.941              3.261
 Vibration     2          0.691              1.679              1.432

 Optimization completed.
    -- Stationary point found.
 Normal termination of Gaussian 09 at Fri Mar  1 09:28:43 2019.
