 Gaussian 09, Revision E.01,
 Gaussian 09:  EM64L-G09RevE.01 30-Nov-2015

 ------------------------------------------------------
 #p b3lyp/6-311++G(3df,2p) freq IOp(2/17=3) IOp(2/18=3)
 ------------------------------------------------------

 ---------
 b3lyp opt
 ---------
 Symbolic Z-matrix:
 Charge =  0 Multiplicity = 4

                         Standard orientation:
 ---------------------------------------------------------------------
 Center     Atomic      Atomic             Coordinates (Angstroms)
 Number     Number       Type             X           Y           Z
 ---------------------------------------------------------------------
      1          6           0        0.000000    1.255314    0.000000
      2          6           0       -0.313898   -1.090026   -0.000000
      3          1           0       -1.399819   -1.144346   -0.000000
      4          8           0        0.410401    0.019078    0.000000
 ---------------------------------------------------------------------

 SCF Done:  E(UB3LYP) =  -151.788867844     A.U. after   13 cycles

 The electronic state is 4-A".
 Alpha  occ. eigenvalues --  -19.27289 -10.30402 -10.27049  -1.18516  -0.80629
 Alpha  occ. eigenvalues --   -0.63302  -0.51934  -0.51562  -0.40217  -0.32207
 Alpha  occ. eigenvalues --   -0.25985  -0.21146
 Alpha virt. eigenvalues --   -0.08039  -0.00109   0.02875   0.05000   0.05715
 Alpha virt. eigenvalues --    0.06712   0.08380   0.09774   0.10696   0.12571
 Alpha virt. eigenvalues --    0.14107   0.17654   0.20127   0.23450   0.26915

  Beta  occ. eigenvalues --  -19.27002 -10.27371 -10.25177  -1.16970  -0.75886
  Beta  occ. eigenvalues --   -0.58928  -0.49484  -0.47975  -0.34476
  Beta virt. eigenvalues --   -0.14069  -0.10406  -0.05148  -0.03879   0.00613
  Beta virt. eigenvalues --    0.03322   0.06233   0.07655   0.07794   0.09527
  Beta virt. eigenvalues --    0.10467   0.11224   0.13506   0.15400   0.19660

 Mulliken charges and spin densities:
               1          2
     1  C   -0.136332   1.220980
     2  C    0.044252   1.776413
     3  H    0.202026   0.079210
     4  O   -0.109946  -0.076603
 Sum of Mulliken charges =  -0.00000   3.00000

 Dipole moment (field-independent basis, Debye):
    X=             -0.8612    Y=             -2.1399    Z=             -0.0000  Tot=              2.3067
 Quadrupole moment (field-independent basis, Debye-Ang):
   XX=            -16.9441   YY=            -21.0798   ZZ=            -17.3872
   XY=              1.4525   XZ=             -0.0000   YZ=             -0.0000

  Exact polarizability:  27.537   4.676  46.720  -0.000   0.000  22.176
 Approx polarizability:  34.400   5.034  66.162   0.000   0.000  30.292

                      1                      2                      3
                     A"                     A'                     A'
 Frequencies --    413.7827               463.6713              1010.4169
 Red. masses --      1.5613                 4.3251                 3.2042
 Frc consts  --      0.1575                 0.5479                 1.9274
 IR Inten    --     15.6267                 8.9634                11.3811

                      4                      5                      6
                     A'                     A'                     A'
 Frequencies --   1108.2310              1156.5183              3115.8423
 Red. masses --      1.8729                11.2658                 1.0851
 Frc consts  --      1.3553                 8.8780                 6.2068
 IR Inten    --      3.5265                72.7094                 2.4656

 - Thermochemistry -
 -------------------
 Temperature   298.150 Kelvin.  Pressure   1.00000 Atm.
 Atom     1 has atomic number  6 and mass  12.00000

 Molecular mass:    41.00274 amu.
 Principal axes and moments of inertia in atomic units:
                           1         2         3
     Eigenvalues --    16.68499 127.10789 143.79288
           X            0.19134   0.98152  -0.00000
           Y            0.98152  -0.19134  -0.00000
           Z            0.00000   0.00000   1.00000
 This molecule is an asymmetric top.
 Rotational symmetry number  1.
 Rotational temperatures (Kelvin)      5.19112     0.68142     0.60235
 Rotational constants (GHZ):         108.16556    14.19850    12.55098
 Zero-point vibrational energy      43475.1 (Joules/Mol)
                                   10.39079 (Kcal/Mol)
 Warning -- explicit consideration of   2 degrees of freedom as
           vibrations may cause significant error
 Vibrational temperatures:    595.34   667.12  1453.76  1594.50  1663.97
          (Kelvin)           4483.00

 Zero-point correction=                           0.016559 (Hartree/Particle)
 Thermal correction to Energy=                    0.020019
 Thermal correction to Enthalpy=                  0.020964
 Thermal correction to Gibbs Free Energy=        -0.008511
 Sum of electronic and zero-point Energies=           -151.772309
 Sum of electronic and thermal Energies=              -151.768848
 Sum of electronic and thermal Enthalpies=            -151.767904
 Sum of electronic and thermal Free Energies=         -151.797379

                     E (Thermal)             CV                S
                      KCal/Mol        Cal/Mol-Kelvin    Cal/Mol-Kelvin
 Total                   12.562              9.607             62.034
 Electronic               0.000              0.000              2.755
 Translational            0.889              2.981             37.061
 Rotational               0.889              2.981             20.350
 Vibrational             10.785              3.645              1.868
 Vibration     1          0.777              1.440              0.913
 Vibration     2          0.821              1.331              0.755

 Optimization completed.
    -- Stationary point found.
 Normal termination of Gaussian 09 at Fri Mar  1 09:27:23 2019.
