 Gaussian 09, Revision E.01,
 Gaussian 09:  EM64L-G09RevE.01 30-Nov-2015

 ------------------------------------------------------
 #p b3lyp/6-311++G(3df,2p) freq IOp(2/17=3) IOp(2/18=3)
 ------------------------------------------------------

 ---------
 b3lyp opt
 ---------
 Symbolic Z-matrix:
 Charge =  0 Multiplicity = 2

                         Standard orientation:
 ---------------------------------------------------------------------
 Center     Atomic      Atomic             Coordinates (Angstroms)
 Number     Number       Type             X           Y           Z
 ---------------------------------------------------------------------
      1          6           0       -0.528573   -0.363575    0.000000
      2          6           0        0.789781   -0.636173    0.000000
      3          1           0       -1.567251   -0.657190    0.000000
      4          8           0        0.000000    0.831959   -0.000000
 ---------------------------------------------------------------------

 SCF Done:  E(UB3LYP) =  -151.896145122     A.U. after   14 cycles

 The electronic state is 2-A".
 Alpha  occ. eigenvalues --  -19.22760 -10.28530 -10.26551  -1.14452  -0.73970
 Alpha  occ. eigenvalues --   -0.63050  -0.50236  -0.49525  -0.38198  -0.32080
 Alpha  occ. eigenvalues --   -0.26669
 Alpha virt. eigenvalues --   -0.05341  -0.02993  -0.00703   0.03890   0.04987
 Alpha virt. eigenvalues --    0.05054   0.08585   0.09876   0.11092   0.11241
 Alpha virt. eigenvalues --    0.15450   0.15889   0.17708   0.19378   0.20204

  Beta  occ. eigenvalues --  -19.21334 -10.28282 -10.25965  -1.12091  -0.71222
  Beta  occ. eigenvalues --   -0.62420  -0.48977  -0.43324  -0.36948  -0.30995
  Beta virt. eigenvalues --   -0.13939  -0.02228  -0.02077  -0.00676   0.04098
  Beta virt. eigenvalues --    0.05219   0.05392   0.08677   0.09943   0.11178
  Beta virt. eigenvalues --    0.11917   0.15583   0.15996   0.18224   0.20271

 Mulliken charges and spin densities:
               1          2
     1  C    0.393428   0.199511
     2  C   -0.258615   0.372297
     3  H    0.225991  -0.008801
     4  O   -0.360804   0.436993
 Sum of Mulliken charges =  -0.00000   1.00000

 Dipole moment (field-independent basis, Debye):
    X=             -2.9089    Y=             -0.7489    Z=              0.0000  Tot=              3.0037
 Quadrupole moment (field-independent basis, Debye-Ang):
   XX=            -17.1675   YY=            -18.2382   ZZ=            -17.0358
   XY=              2.1193   XZ=             -0.0000   YZ=              0.0000

  Exact polarizability:  30.652  -2.163  27.972   0.000  -0.000  20.202
 Approx polarizability:  45.692  -5.789  50.584   0.000  -0.000  27.823

                      1                      2                      3
                     A'                     A"                     A'
 Frequencies --    309.8681               814.4538              1035.5776
 Red. masses --     11.5518                 1.3534                 1.4821
 Frc consts  --      0.6535                 0.5290                 0.9365
 IR Inten    --     23.2348                11.9540                19.0959

                      4                      5                      6
                     A'                     A'                     A'
 Frequencies --   1295.0913              1558.8187              3229.6333
 Red. masses --      3.8624                 6.1776                 1.1105
 Frc consts  --      3.8169                 8.8442                 6.8245
 IR Inten    --      5.4569                26.7324                 6.8011

 - Thermochemistry -
 -------------------
 Temperature   298.150 Kelvin.  Pressure   1.00000 Atm.
 Atom     1 has atomic number  6 and mass  12.00000

 Molecular mass:    41.00274 amu.
 Principal axes and moments of inertia in atomic units:
                           1         2         3
     Eigenvalues --    42.90577  68.48683 111.39259
           X           -0.41596   0.90939   0.00000
           Y            0.90939   0.41596   0.00000
           Z           -0.00000  -0.00000   1.00000
 This molecule is an asymmetric top.
 Rotational symmetry number  1.
 Rotational temperatures (Kelvin)      2.01870     1.26468     0.77755
 Rotational constants (GHZ):          42.06291    26.35165    16.20163
 Zero-point vibrational energy      49306.7 (Joules/Mol)
                                   11.78459 (Kcal/Mol)
 Warning -- explicit consideration of   1 degrees of freedom as
           vibrations may cause significant error
 Vibrational temperatures:    445.83  1171.82  1489.96  1863.35  2242.79
          (Kelvin)           4646.72

 Zero-point correction=                           0.018780 (Hartree/Particle)
 Thermal correction to Energy=                    0.022142
 Thermal correction to Enthalpy=                  0.023086
 Thermal correction to Gibbs Free Energy=        -0.005676
 Sum of electronic and zero-point Energies=           -151.877365
 Sum of electronic and thermal Energies=              -151.874003
 Sum of electronic and thermal Enthalpies=            -151.873059
 Sum of electronic and thermal Free Energies=         -151.901821

                     E (Thermal)             CV                S
                      KCal/Mol        Cal/Mol-Kelvin    Cal/Mol-Kelvin
 Total                   13.894              8.795             60.535
 Electronic               0.000              0.000              1.377
 Translational            0.889              2.981             37.061
 Rotational               0.889              2.981             20.420
 Vibrational             12.117              2.833              1.677
 Vibration     1          0.699              1.655              1.363

 Optimization completed.
    -- Stationary point found.
 Normal termination of Gaussian 09 at Fri Mar  1 09:27:26 2019.
