 Gaussian 09, Revision E.01,
 Gaussian 09:  EM64L-G09RevE.01 30-Nov-2015

 ------------------------------------------------------
 #p b3lyp/6-311++G(3df,2p) freq IOp(2/17=3) IOp(2/18=3)
 ------------------------------------------------------

 ---------
 b3lyp opt
 ---------
 Symbolic Z-matrix:
 Charge =  1 Multiplicity = 1

                         Standard orientation:
 ---------------------------------------------------------------------
 Center     Atomic      Atomic             Coordinates (Angstroms)
 Number     Number       Type             X           Y           Z
 ---------------------------------------------------------------------
      1          6           0       -0.864605   -0.435447   -0.000000
      2          6           0        0.589870   -0.402101    0.000000
      3          1           0        1.648412   -0.666776    0.000000
      4          8           0        0.000000    0.711508   -0.000000
 ---------------------------------------------------------------------

 SCF Done:  E(RB3LYP) =  -151.539002794     A.U. after   10 cycles

 The electronic state is 1-A'.
 Alpha  occ. eigenvalues --  -19.60580 -10.65121 -10.62632  -1.55517  -1.01374
 Alpha  occ. eigenvalues --   -0.98281  -0.84895  -0.83327  -0.70923  -0.61309
 Alpha virt. eigenvalues --   -0.45013  -0.36871  -0.23499  -0.20297  -0.17734
 Alpha virt. eigenvalues --   -0.15775  -0.12486  -0.08690  -0.06327  -0.05719
 Alpha virt. eigenvalues --   -0.05114  -0.04458  -0.02559  -0.00384  -0.00303

 Mulliken charges:
               1
     1  C    0.129499
     2  C    0.554415
     3  H    0.358095
     4  O   -0.042008
 Sum of Mulliken charges =   1.00000

 Dipole moment (field-independent basis, Debye):
    X=              2.7909    Y=             -1.3799    Z=              0.0000  Tot=              3.1134
 Quadrupole moment (field-independent basis, Debye-Ang):
   XX=            -10.6785   YY=            -13.7517   ZZ=            -13.1882
   XY=             -2.0475   XZ=              0.0000   YZ=             -0.0000

  Exact polarizability:  22.341  -0.449  18.043  -0.000   0.000  14.322
 Approx polarizability:  33.301  -1.144  32.854   0.000  -0.000  22.679

                      1                      2                      3
                     A'                     A"                     A'
 Frequencies --    682.9081               932.3180               979.5001
 Red. masses --      4.7094                 1.3076                 1.8975
 Frc consts  --      1.2940                 0.6697                 1.0726
 IR Inten    --     78.2249                 3.4309                71.3284

                      4                      5                      6
                     A'                     A'                     A'
 Frequencies --   1241.1629              1576.1246              3158.1899
 Red. masses --      3.1957                 8.7428                 1.1147
 Frc consts  --      2.9005                12.7962                 6.5508
 IR Inten    --     19.8157                35.1316               145.0361

 - Thermochemistry -
 -------------------
 Temperature   298.150 Kelvin.  Pressure   1.00000 Atm.
 Atom     1 has atomic number  6 and mass  12.00000

 Molecular mass:    41.00274 amu.
 Principal axes and moments of inertia in atomic units:
                           1         2         3
     Eigenvalues --    45.14128  56.88248 102.02376
           X            0.98319  -0.18256   0.00000
           Y            0.18256   0.98319   0.00000
           Z            0.00000  -0.00000   1.00000
 This molecule is an asymmetric top.
 Rotational symmetry number  1.
 Rotational temperatures (Kelvin)      1.91873     1.52268     0.84896
 Rotational constants (GHZ):          39.97984    31.72754    17.68942
 Zero-point vibrational energy      51261.2 (Joules/Mol)
                                   12.25172 (Kcal/Mol)
 Vibrational temperatures:    982.55  1341.40  1409.28  1785.75  2267.69
          (Kelvin)           4543.93

 Zero-point correction=                           0.019524 (Hartree/Particle)
 Thermal correction to Energy=                    0.022582
 Thermal correction to Enthalpy=                  0.023526
 Thermal correction to Gibbs Free Energy=        -0.003962
 Sum of electronic and zero-point Energies=           -151.519478
 Sum of electronic and thermal Energies=              -151.516421
 Sum of electronic and thermal Enthalpies=            -151.515477
 Sum of electronic and thermal Free Energies=         -151.542965

                     E (Thermal)             CV                S
                      KCal/Mol        Cal/Mol-Kelvin    Cal/Mol-Kelvin
 Total                   14.170              7.918             57.854
 Electronic               0.000              0.000              0.000
 Translational            0.889              2.981             37.061
 Rotational               0.889              2.981             20.199
 Vibrational             12.393              1.957              0.595

 Normal termination of Gaussian 09 at Fri Mar  1 09:28:45 2019.
