 Gaussian 09, Revision E.01,
 Gaussian 09:  EM64L-G09RevE.01 30-Nov-2015

 ------------------------------------------------------
 #p b3lyp/6-311++G(3df,2p) freq IOp(2/17=3) IOp(2/18=3)
 ------------------------------------------------------

 ---------
 b3lyp opt
 ---------
 Symbolic Z-matrix:
 Charge =  1 Multiplicity = 3

                         Standard orientation:
 ---------------------------------------------------------------------
 Center     Atomic      Atomic             Coordinates (Angstroms)
 Number     Number       Type             X           Y           Z
 ---------------------------------------------------------------------
      1          6           0       -0.269064   -0.436949   -0.000000
      2          6           0        0.026731    0.838136   -0.000000
      3          6           0        0.000000    2.076057   -0.000000
      4          1           0        1.015283   -1.854140    0.000000
      5          8           0        0.054839   -1.626166    0.000000
 ---------------------------------------------------------------------

 SCF Done:  E(UB3LYP) =  -189.611684333     A.U. after   17 cycles

 The electronic state is 3-A'.
 Alpha  occ. eigenvalues --  -19.50829 -10.59072 -10.55826 -10.47861  -1.42754
 Alpha  occ. eigenvalues --   -1.08991  -0.99438  -0.93041  -0.76339  -0.73840
 Alpha  occ. eigenvalues --   -0.67970  -0.62264  -0.60011  -0.50947
 Alpha virt. eigenvalues --   -0.38592  -0.25446  -0.17070  -0.15402  -0.13607
 Alpha virt. eigenvalues --   -0.11447  -0.10368  -0.08492  -0.06891  -0.05728
 Alpha virt. eigenvalues --   -0.05220  -0.04137  -0.02627  -0.01584  -0.00893

  Beta  occ. eigenvalues --  -19.50795 -10.57848 -10.52684 -10.47981  -1.42417
  Beta  occ. eigenvalues --   -1.07229  -0.96494  -0.91313  -0.74502  -0.73985
  Beta  occ. eigenvalues --   -0.58746  -0.58565
  Beta virt. eigenvalues --   -0.44160  -0.36327  -0.35293  -0.22805  -0.15123
  Beta virt. eigenvalues --   -0.13365  -0.12521  -0.10762  -0.10158  -0.07974
  Beta virt. eigenvalues --   -0.05672  -0.05290  -0.04840  -0.03556  -0.02106

 Mulliken charges and spin densities:
               1          2
     1  C    0.262498   0.599704
     2  C    0.795036  -0.231416
     3  C   -0.039780   1.612637
     4  H    0.343479   0.056318
     5  O   -0.361233  -0.037243
 Sum of Mulliken charges =   1.00000   2.00000

 Dipole moment (field-independent basis, Debye):
    X=              1.7817    Y=              0.2911    Z=              0.0000  Tot=              1.8053
 Quadrupole moment (field-independent basis, Debye-Ang):
   XX=            -17.8346   YY=             -4.3371   ZZ=            -19.6146
   XY=             -3.8139   XZ=             -0.0000   YZ=             -0.0000

  Exact polarizability:  22.247  -1.065  58.695  -0.000  -0.000  19.977
 Approx polarizability:  30.304   2.622 127.028   0.000  -0.000  26.402

                      1                      2                      3
                     A"                     A'                     A'
 Frequencies --    215.0570               215.3548               366.9427
 Red. masses --     10.7271                 5.7265                 9.9047
 Frc consts  --      0.2923                 0.1565                 0.7858
 IR Inten    --      1.5242                12.8420                 3.0854

                      4                      5                      6
                     A"                     A'                     A'
 Frequencies --    642.7661               938.6301              1129.0687
 Red. masses --      2.2396                12.6531                 1.1986
 Frc consts  --      0.5452                 6.5680                 0.9003
 IR Inten    --    128.6219                 6.9132               247.8229

                      7                      8                      9
                     A'                     A'                     A'
 Frequencies --   1776.8053              1999.2409              3463.4222
 Red. masses --     11.0918                11.1736                 1.0653
 Frc consts  --     20.6315                26.3133                 7.5288
 IR Inten    --    104.1496               522.9799               275.2300

 - Thermochemistry -
 -------------------
 Temperature   298.150 Kelvin.  Pressure   1.00000 Atm.
 Atom     1 has atomic number  6 and mass  12.00000

 Molecular mass:    53.00274 amu.
 Principal axes and moments of inertia in atomic units:
                           1         2         3
     Eigenvalues --     6.85918 386.25626 393.11544
           X           -0.01514   0.99989   0.00000
           Y            0.99989   0.01514   0.00000
           Z            0.00000   0.00000   1.00000
 This molecule is an asymmetric top.
 Rotational symmetry number  1.
 Rotational temperatures (Kelvin)     12.62743     0.22424     0.22033
 Rotational constants (GHZ):         263.11333     4.67239     4.59087
 Zero-point vibrational energy      64283.1 (Joules/Mol)
                                   15.36402 (Kcal/Mol)
 Warning -- explicit consideration of   3 degrees of freedom as
           vibrations may cause significant error
 Vibrational temperatures:    309.42   309.85   527.95   924.80  1350.48
          (Kelvin)           1624.48  2556.42  2876.46  4983.09

 Zero-point correction=                           0.024484 (Hartree/Particle)
 Thermal correction to Energy=                    0.028943
 Thermal correction to Enthalpy=                  0.029887
 Thermal correction to Gibbs Free Energy=        -0.002057
 Sum of electronic and zero-point Energies=           -189.587200
 Sum of electronic and thermal Energies=              -189.582741
 Sum of electronic and thermal Enthalpies=            -189.581797
 Sum of electronic and thermal Free Energies=         -189.613741

                     E (Thermal)             CV                S
                      KCal/Mol        Cal/Mol-Kelvin    Cal/Mol-Kelvin
 Total                   18.162             12.825             67.232
 Electronic               0.000              0.000              2.183
 Translational            0.889              2.981             37.826
 Rotational               0.889              2.981             21.570
 Vibrational             16.385              6.864              5.652
 Vibration     1          0.645              1.818              2.000
 Vibration     2          0.645              1.818              1.998
 Vibration     3          0.740              1.540              1.093

 Optimization completed.
    -- Stationary point found.
 Normal termination of Gaussian 09 at Fri Mar  1 09:32:36 2019.
