 Gaussian 09, Revision E.01,
 Gaussian 09:  EM64L-G09RevE.01 30-Nov-2015

 ------------------------------------------------------
 #p b3lyp/6-311++G(3df,2p) freq IOp(2/17=3) IOp(2/18=3)
 ------------------------------------------------------

 ---------
 b3lyp opt
 ---------
 Symbolic Z-matrix:
 Charge =  1 Multiplicity = 1

                         Standard orientation:
 ---------------------------------------------------------------------
 Center     Atomic      Atomic             Coordinates (Angstroms)
 Number     Number       Type             X           Y           Z
 ---------------------------------------------------------------------
      1          6           0       -1.263858    1.324441    0.000000
      2          6           0        0.337226   -0.445086   -0.000000
      3          6           0        0.000000    0.887091   -0.000000
      4          1           0        0.781921    1.662317   -0.000000
      5          8           0        0.597233   -1.532625    0.000000
 ---------------------------------------------------------------------

 SCF Done:  E(RB3LYP) =  -189.709046020     A.U. after   11 cycles

 The electronic state is 1-A'.
 Alpha  occ. eigenvalues --  -19.52928 -10.63812 -10.57507 -10.50427  -1.46500
 Alpha  occ. eigenvalues --   -1.13773  -0.94956  -0.83148  -0.81197  -0.77996
 Alpha  occ. eigenvalues --   -0.75078  -0.60743  -0.58909
 Alpha virt. eigenvalues --   -0.40367  -0.36807  -0.33228  -0.20676  -0.19878
 Alpha virt. eigenvalues --   -0.14629  -0.11553  -0.11320  -0.09655  -0.06913
 Alpha virt. eigenvalues --   -0.06512  -0.06114  -0.05296  -0.04146  -0.02158

 Mulliken charges:
               1
     1  C   -0.039964
     2  C    0.759154
     3  C    0.401768
     4  H    0.222228
     5  O   -0.343186
 Sum of Mulliken charges =   1.00000

 Dipole moment (field-independent basis, Debye):
    X=              1.1115    Y=              1.8374    Z=             -0.0000  Tot=              2.1475
 Quadrupole moment (field-independent basis, Debye-Ang):
   XX=            -18.1585   YY=            -13.3371   ZZ=            -20.0629
   XY=              1.0190   XZ=              0.0000   YZ=             -0.0000

  Exact polarizability:  31.264  -9.645  41.206   0.000   0.000  20.163
 Approx polarizability:  56.305 -22.714  76.231  -0.000  -0.000  28.534

                      1                      2                      3
                     A'                     A"                     A'
 Frequencies --    217.4445               438.0965               532.6865
 Red. masses --     10.7122                 2.0541                 4.6140
 Frc consts  --      0.2984                 0.2323                 0.7714
 IR Inten    --     15.8703                 1.3226                 0.3220

                      4                      5                      6
                     A"                     A'                     A'
 Frequencies --    639.1012               972.5478              1022.8344
 Red. masses --      3.4426                 2.6495                 1.9259
 Frc consts  --      0.8285                 1.4765                 1.1871
 IR Inten    --     46.9610                 2.0415                 0.9102

                      7                      8                      9
                     A'                     A'                     A'
 Frequencies --   1614.6372              2363.5778              3006.2412
 Red. masses --      9.2518                13.0323                 1.0839
 Frc consts  --     14.2110                42.8954                 5.7714
 IR Inten    --    334.9992               479.5264               217.0884

 - Thermochemistry -
 -------------------
 Temperature   298.150 Kelvin.  Pressure   1.00000 Atm.
 Atom     1 has atomic number  6 and mass  12.00000

 Molecular mass:    53.00274 amu.
 Principal axes and moments of inertia in atomic units:
                           1         2         3
     Eigenvalues --    27.97528 329.19526 357.17054
           X           -0.47472   0.88014   0.00000
           Y            0.88014   0.47472   0.00000
           Z           -0.00000  -0.00000   1.00000
 This molecule is an asymmetric top.
 Rotational symmetry number  1.
 Rotational temperatures (Kelvin)      3.09608     0.26311     0.24250
 Rotational constants (GHZ):          64.51199     5.48228     5.05288
 Zero-point vibrational energy      64641.2 (Joules/Mol)
                                   15.44962 (Kcal/Mol)
 Warning -- explicit consideration of   3 degrees of freedom as
           vibrations may cause significant error
 Vibrational temperatures:    312.85   630.32   766.42   919.52  1399.28
          (Kelvin)           1471.63  2323.10  3400.66  4325.31

 Zero-point correction=                           0.024621 (Hartree/Particle)
 Thermal correction to Energy=                    0.028680
 Thermal correction to Enthalpy=                  0.029624
 Thermal correction to Gibbs Free Energy=        -0.001030
 Sum of electronic and zero-point Energies=           -189.684425
 Sum of electronic and thermal Energies=              -189.680366
 Sum of electronic and thermal Enthalpies=            -189.679422
 Sum of electronic and thermal Free Energies=         -189.710076

                     E (Thermal)             CV                S
                      KCal/Mol        Cal/Mol-Kelvin    Cal/Mol-Kelvin
 Total                   17.997             12.105             64.517
 Electronic               0.000              0.000              0.000
 Translational            0.889              2.981             37.826
 Rotational               0.889              2.981             22.713
 Vibrational             16.219              6.144              3.978
 Vibration     1          0.646              1.814              1.980
 Vibration     2          0.798              1.387              0.833
 Vibration     3          0.888              1.178              0.581

 Normal termination of Gaussian 09 at Fri Mar  1 09:31:37 2019.
