 Gaussian 09, Revision E.01,
 Gaussian 09:  EM64L-G09RevE.01 30-Nov-2015

 ------------------------------------------------------
 #p b3lyp/6-311++G(3df,2p) freq IOp(2/17=3) IOp(2/18=3)
 ------------------------------------------------------

 ---------
 b3lyp opt
 ---------
 Symbolic Z-matrix:
 Charge =  0 Multiplicity = 4

                         Standard orientation:
 ---------------------------------------------------------------------
 Center     Atomic      Atomic             Coordinates (Angstroms)
 Number     Number       Type             X           Y           Z
 ---------------------------------------------------------------------
      1          6           0       -0.000000    0.813381   -0.000000
      2          6           0       -1.100140    1.548653   -0.000000
      3          6           0       -0.099767   -0.649922    0.000000
      4          1           0        0.990234    1.284033   -0.000000
      5          8           0        0.776150   -1.444588    0.000000
 ---------------------------------------------------------------------

 SCF Done:  E(UB3LYP) =  -189.926277655     A.U. after   15 cycles

 The electronic state is 4-A'.
 Alpha  occ. eigenvalues --  -19.18397 -10.29330 -10.28336 -10.24980  -1.10926
 Alpha  occ. eigenvalues --   -0.84679  -0.65472  -0.55633  -0.50566  -0.45759
 Alpha  occ. eigenvalues --   -0.44683  -0.41474  -0.34469  -0.27749  -0.21873
 Alpha virt. eigenvalues --   -0.10317   0.00247   0.01478   0.03148   0.03501
 Alpha virt. eigenvalues --    0.05330   0.07659   0.08392   0.08965   0.09223
 Alpha virt. eigenvalues --    0.11708   0.11879   0.12329   0.13949   0.15561

  Beta  occ. eigenvalues --  -19.17596 -10.27081 -10.25946 -10.24629  -1.09325
  Beta  occ. eigenvalues --   -0.80967  -0.60250  -0.52013  -0.48453  -0.44133
  Beta  occ. eigenvalues --   -0.38633  -0.32691
  Beta virt. eigenvalues --   -0.21648  -0.08934  -0.08251  -0.06955   0.00816
  Beta virt. eigenvalues --    0.02778   0.03899   0.04539   0.05644   0.08285
  Beta virt. eigenvalues --    0.09079   0.09392   0.09696   0.12329   0.12403

 Mulliken charges and spin densities:
               1          2
     1  C    0.161824  -0.333929
     2  C   -0.125526   2.150599
     3  C    0.265998   0.840941
     4  H    0.152800   0.122990
     5  O   -0.455097   0.219400
 Sum of Mulliken charges =  -0.00000   3.00000

 Dipole moment (field-independent basis, Debye):
    X=             -0.3774    Y=              2.3471    Z=             -0.0000  Tot=              2.3772
 Quadrupole moment (field-independent basis, Debye-Ang):
   XX=            -22.6919   YY=            -24.0496   ZZ=            -22.7638
   XY=              0.8537   XZ=             -0.0000   YZ=             -0.0000

  Exact polarizability:  42.796 -10.396  48.879  -0.000  -0.000  29.247
 Approx polarizability:  69.688 -26.019  73.328   0.000  -0.000  37.239

                      1                      2                      3
                     A"                     A'                     A'
 Frequencies --    130.7934               355.0063               566.4086
 Red. masses --      9.9999                 6.9898                 9.2058
 Frc consts  --      0.1008                 0.5190                 1.7401
 IR Inten    --      0.0457                 4.4719                 4.2600

                      4                      5                      6
                     A"                     A'                     A'
 Frequencies --    605.6382              1016.1291              1209.4194
 Red. masses --      1.5842                 8.8249                 1.1576
 Frc consts  --      0.3424                 5.3686                 0.9976
 IR Inten    --      0.0103                32.4500                 3.7210

                      7                      8                      9
                     A'                     A'                     A'
 Frequencies --   1541.7628              1894.4878              2980.6701
 Red. masses --     10.8623                13.1106                 1.0817
 Frc consts  --     15.2127                27.7241                 5.6621
 IR Inten    --      2.2834               179.7401                 6.4707

 - Thermochemistry -
 -------------------
 Temperature   298.150 Kelvin.  Pressure   1.00000 Atm.
 Atom     1 has atomic number  6 and mass  12.00000

 Molecular mass:    53.00274 amu.
 Principal axes and moments of inertia in atomic units:
                           1         2         3
     Eigenvalues --    23.09935 341.31483 364.41418
           X           -0.45908   0.88840  -0.00000
           Y            0.88840   0.45908   0.00000
           Z           -0.00000   0.00000   1.00000
 This molecule is an asymmetric top.
 Rotational symmetry number  1.
 Rotational temperatures (Kelvin)      3.74962     0.25377     0.23768
 Rotational constants (GHZ):          78.12953     5.28761     4.95245
 Zero-point vibrational energy      61609.6 (Joules/Mol)
                                   14.72504 (Kcal/Mol)
 Warning -- explicit consideration of   4 degrees of freedom as
           vibrations may cause significant error
 Vibrational temperatures:    188.18   510.77   814.93   871.38  1461.98
          (Kelvin)           1740.08  2218.25  2725.74  4288.51

 Zero-point correction=                           0.023466 (Hartree/Particle)
 Thermal correction to Energy=                    0.027724
 Thermal correction to Enthalpy=                  0.028668
 Thermal correction to Gibbs Free Energy=        -0.003797
 Sum of electronic and zero-point Energies=           -189.902812
 Sum of electronic and thermal Energies=              -189.898554
 Sum of electronic and thermal Enthalpies=            -189.897610
 Sum of electronic and thermal Free Energies=         -189.930075

                     E (Thermal)             CV                S
                      KCal/Mol        Cal/Mol-Kelvin    Cal/Mol-Kelvin
 Total                   17.397             12.214             68.328
 Electronic               0.000              0.000              2.755
 Translational            0.889              2.981             37.826
 Rotational               0.889              2.981             22.579
 Vibrational             15.619              6.253              5.169
 Vibration     1          0.612              1.923              2.934
 Vibration     2          0.731              1.565              1.144
 Vibration     3          0.922              1.104              0.511
 Vibration     4          0.964              1.020              0.440

 Optimization completed.
    -- Stationary point found.
 Normal termination of Gaussian 09 at Fri Mar  1 09:32:25 2019.
