 Gaussian 09, Revision E.01,
 Gaussian 09:  EM64L-G09RevE.01 30-Nov-2015

 ------------------------------------------------------
 #p b3lyp/6-311++G(3df,2p) freq IOp(2/17=3) IOp(2/18=3)
 ------------------------------------------------------

 ---------
 b3lyp opt
 ---------
 Symbolic Z-matrix:
 Charge =  0 Multiplicity = 2

                         Standard orientation:
 ---------------------------------------------------------------------
 Center     Atomic      Atomic             Coordinates (Angstroms)
 Number     Number       Type             X           Y           Z
 ---------------------------------------------------------------------
      1          6           0       -0.542258    0.488992    0.000000
      2          6           0        0.575818   -1.915072    0.000000
      3          6           0        0.239143   -0.724983    0.000000
      4          1           0       -1.636213    0.373518    0.000000
      5          8           0        0.000000    1.566607   -0.000000
 ---------------------------------------------------------------------

 SCF Done:  E(UB3LYP) =  -189.998186655     A.U. after   22 cycles

 The electronic state is 2-A'.
 Alpha  occ. eigenvalues --  -19.17823 -10.31972 -10.26724 -10.23735  -1.10541
 Alpha  occ. eigenvalues --   -0.82831  -0.70296  -0.57095  -0.49851  -0.45375
 Alpha  occ. eigenvalues --   -0.40042  -0.34208  -0.33864  -0.32257
 Alpha virt. eigenvalues --   -0.10934  -0.04089   0.00660   0.03233   0.03297
 Alpha virt. eigenvalues --    0.03988   0.06153   0.06405   0.07723   0.09005
 Alpha virt. eigenvalues --    0.10518   0.12709   0.14029   0.14446   0.14970

  Beta  occ. eigenvalues --  -19.17583 -10.31967 -10.25306 -10.23383  -1.10076
  Beta  occ. eigenvalues --   -0.80702  -0.69032  -0.56465  -0.49369  -0.45374
  Beta  occ. eigenvalues --   -0.32902  -0.32862  -0.31335
  Beta virt. eigenvalues --   -0.22681  -0.10156  -0.02282   0.01443   0.03564
  Beta virt. eigenvalues --    0.03628   0.04151   0.06421   0.06914   0.08037
  Beta virt. eigenvalues --    0.09254   0.10558   0.12842   0.14374   0.14694

 Mulliken charges and spin densities:
               1          2
     1  C    0.248300  -0.001129
     2  C   -0.551068   0.729589
     3  C    0.666931   0.196117
     4  H    0.163458  -0.003637
     5  O   -0.527620   0.079060
 Sum of Mulliken charges =  -0.00000   1.00000

 Dipole moment (field-independent basis, Debye):
    X=             -1.2454    Y=             -0.6688    Z=              0.0000  Tot=              1.4136
 Quadrupole moment (field-independent basis, Debye-Ang):
   XX=            -20.3142   YY=            -28.1658   ZZ=            -22.4842
   XY=             -1.5043   XZ=              0.0000   YZ=              0.0000

  Exact polarizability:  35.115 -15.419  95.525  -0.000   0.000  27.926
 Approx polarizability:  47.610 -24.776 181.536   0.000  -0.000  35.325

                      1                      2                      3
                     A"                     A'                     A'
 Frequencies --    212.0988               223.7844               514.2856
 Red. masses --      9.1226                 8.4461                11.6025
 Frc consts  --      0.2418                 0.2492                 1.8081
 IR Inten    --      0.5950                25.4912               203.0168

                      4                      5                      6
                     A'                     A"                     A'
 Frequencies --    885.0985               978.9075              1385.3081
 Red. masses --      6.2541                 1.6368                 1.1840
 Frc consts  --      2.8867                 0.9241                 1.3387
 IR Inten    --    512.8592                 5.2727                 4.4595

                      7                      8                      9
                     A'                     A'                     A'
 Frequencies --   1497.0683              1762.3078              2983.3214
 Red. masses --     10.9332                10.1454                 1.0864
 Frc consts  --     14.4371                18.5645                 5.6970
 IR Inten    --    476.3842               318.6406                53.0008

 - Thermochemistry -
 -------------------
 Temperature   298.150 Kelvin.  Pressure   1.00000 Atm.
 Atom     1 has atomic number  6 and mass  12.00000

 Molecular mass:    53.00274 amu.
 Principal axes and moments of inertia in atomic units:
                           1         2         3
     Eigenvalues --    23.56651 345.76071 369.32722
           X           -0.21685   0.97620   0.00000
           Y            0.97620   0.21685   0.00000
           Z           -0.00000  -0.00000   1.00000
 This molecule is an asymmetric top.
 Rotational symmetry number  1.
 Rotational temperatures (Kelvin)      3.67529     0.25050     0.23452
 Rotational constants (GHZ):          76.58076     5.21962     4.88656
 Zero-point vibrational energy      62458.1 (Joules/Mol)
                                   14.92785 (Kcal/Mol)
 Warning -- explicit consideration of   3 degrees of freedom as
           vibrations may cause significant error
 Vibrational temperatures:    305.16   321.98   739.94  1273.46  1408.43
          (Kelvin)           1993.15  2153.94  2535.56  4292.33

 Zero-point correction=                           0.023789 (Hartree/Particle)
 Thermal correction to Energy=                    0.028013
 Thermal correction to Enthalpy=                  0.028958
 Thermal correction to Gibbs Free Energy=        -0.002729
 Sum of electronic and zero-point Energies=           -189.974398
 Sum of electronic and thermal Energies=              -189.970173
 Sum of electronic and thermal Enthalpies=            -189.969229
 Sum of electronic and thermal Free Energies=         -190.000916

                     E (Thermal)             CV                S
                      KCal/Mol        Cal/Mol-Kelvin    Cal/Mol-Kelvin
 Total                   17.579             11.945             66.690
 Electronic               0.000              0.000              1.377
 Translational            0.889              2.981             37.826
 Rotational               0.889              2.981             22.625
 Vibrational             15.801              5.984              4.862
 Vibration     1          0.643              1.822              2.026
 Vibration     2          0.649              1.805              1.928
 Vibration     3          0.869              1.218              0.623

 Optimization completed.
    -- Stationary point found.
 Normal termination of Gaussian 09 at Fri Mar  1 09:32:46 2019.
