 Gaussian 09, Revision E.01,
 Gaussian 09:  EM64L-G09RevE.01 30-Nov-2015

 ------------------------------------------------------
 #p b3lyp/6-311++G(3df,2p) freq IOp(2/17=3) IOp(2/18=3)
 ------------------------------------------------------

 ---------
 b3lyp opt
 ---------
 Symbolic Z-matrix:
 Charge =  1 Multiplicity = 1

                         Standard orientation:
 ---------------------------------------------------------------------
 Center     Atomic      Atomic             Coordinates (Angstroms)
 Number     Number       Type             X           Y           Z
 ---------------------------------------------------------------------
      1          6           0       -0.000000    0.825413   -0.000000
      2          6           0       -0.000850   -0.417766    0.000000
      3          6           0       -0.034302    2.138179   -0.000000
      4          1           0       -0.677735   -2.221416    0.000000
      5          8           0        0.111081   -1.631692    0.000000
 ---------------------------------------------------------------------

 SCF Done:  E(RB3LYP) =  -189.671392805     A.U. after   13 cycles

 The electronic state is 1-A'.
 Alpha  occ. eigenvalues --  -19.53808 -10.62434 -10.54246 -10.46481  -1.46283
 Alpha  occ. eigenvalues --   -1.09947  -1.00211  -0.94902  -0.79639  -0.77353
 Alpha  occ. eigenvalues --   -0.60770  -0.59341  -0.56222
 Alpha virt. eigenvalues --   -0.39689  -0.38055  -0.24052  -0.17005  -0.13967
 Alpha virt. eigenvalues --   -0.13842  -0.11955  -0.11217  -0.09458  -0.06635
 Alpha virt. eigenvalues --   -0.05422  -0.05118  -0.03597  -0.02726  -0.01240

 Mulliken charges:
               1
     1  C    1.464052
     2  C   -0.246214
     3  C   -0.186548
     4  H    0.378301
     5  O   -0.409591
 Sum of Mulliken charges =   1.00000

 Dipole moment (field-independent basis, Debye):
    X=             -1.5270    Y=             -3.3248    Z=              0.0000  Tot=              3.6586
 Quadrupole moment (field-independent basis, Debye-Ang):
   XX=            -18.3093   YY=             -8.1979   ZZ=            -19.8767
   XY=              3.9246   XZ=             -0.0000   YZ=              0.0000

  Exact polarizability:  21.539   0.373  62.868  -0.000  -0.000  20.762
 Approx polarizability:  31.126  -1.757 158.071   0.000  -0.000  29.313

                      1                      2                      3
                     A'                     A"                     A'
 Frequencies --    111.0391               111.3461               491.8866
 Red. masses --      9.2187                10.6698                 4.5321
 Frc consts  --      0.0670                 0.0779                 0.6461
 IR Inten    --      2.2210                 0.6374                25.4308

                      4                      5                      6
                     A"                     A'                     A'
 Frequencies --    547.0355               930.3537              1000.4590
 Red. masses --      8.5376                12.2874                 1.2936
 Frc consts  --      1.5053                 6.2662                 0.7628
 IR Inten    --      1.7794               117.9005               321.2545

                      7                      8                      9
                     A'                     A'                     A'
 Frequencies --   1721.0759              2318.6359              3541.4822
 Red. masses --     10.7304                11.4745                 1.0677
 Frc consts  --     18.7269                36.3454                 7.8900
 IR Inten    --     24.7749              1710.1275               726.3436

 - Thermochemistry -
 -------------------
 Temperature   298.150 Kelvin.  Pressure   1.00000 Atm.
 Atom     1 has atomic number  6 and mass  12.00000

 Molecular mass:    53.00274 amu.
 Principal axes and moments of inertia in atomic units:
                           1         2         3
     Eigenvalues --     2.21133 402.26096 404.47229
           X           -0.02041   0.99979   0.00000
           Y            0.99979   0.02041   0.00000
           Z           -0.00000  -0.00000   1.00000
 This molecule is an asymmetric top.
 Rotational symmetry number  1.
 Rotational temperatures (Kelvin)     39.16814     0.21532     0.21414
 Rotational constants (GHZ):         816.13250     4.48649     4.46197
 Zero-point vibrational energy      64438.7 (Joules/Mol)
                                   15.40123 (Kcal/Mol)
 Warning -- explicit consideration of   4 degrees of freedom as
           vibrations may cause significant error
 Vibrational temperatures:    159.76   160.20   707.71   787.06  1338.57
          (Kelvin)           1439.44  2476.24  3336.00  5095.40

 Zero-point correction=                           0.024543 (Hartree/Particle)
 Thermal correction to Energy=                    0.029312
 Thermal correction to Enthalpy=                  0.030256
 Thermal correction to Gibbs Free Energy=        -0.001239
 Sum of electronic and zero-point Energies=           -189.646849
 Sum of electronic and thermal Energies=              -189.642081
 Sum of electronic and thermal Enthalpies=            -189.641137
 Sum of electronic and thermal Free Energies=         -189.672632

                     E (Thermal)             CV                S
                      KCal/Mol        Cal/Mol-Kelvin    Cal/Mol-Kelvin
 Total                   18.393             13.130             66.287
 Electronic               0.000              0.000              0.000
 Translational            0.889              2.981             37.826
 Rotational               0.889              2.981             20.514
 Vibrational             16.616              7.169              7.947
 Vibration     1          0.607              1.940              3.251
 Vibration     2          0.607              1.940              3.245
 Vibration     3          0.848              1.268              0.679
 Vibration     4          0.902              1.146              0.550

 Normal termination of Gaussian 09 at Fri Mar  1 09:31:39 2019.
