 Gaussian 09, Revision E.01,
 Gaussian 09:  EM64L-G09RevE.01 30-Nov-2015

 ------------------------------------------------------
 #p b3lyp/6-311++G(3df,2p) freq IOp(2/17=3) IOp(2/18=3)
 ------------------------------------------------------

 ---------
 b3lyp opt
 ---------
 Symbolic Z-matrix:
 Charge =  1 Multiplicity = 3

                         Standard orientation:
 ---------------------------------------------------------------------
 Center     Atomic      Atomic             Coordinates (Angstroms)
 Number     Number       Type             X           Y           Z
 ---------------------------------------------------------------------
      1          6           0        0.355817    0.391287    0.000000
      2          6           0       -0.155192   -0.824041   -0.000000
      3          6           0       -0.320829   -2.047430   -0.000000
      4          1           0        0.721223    2.246297    0.000000
      5          8           0       -0.000000    1.579351    0.000000
 ---------------------------------------------------------------------

 SCF Done:  E(UB3LYP) =  -189.616804031     A.U. after   16 cycles

 The electronic state is 3-A'.
 Alpha  occ. eigenvalues --  -19.50816 -10.58892 -10.55540 -10.47487  -1.42648
 Alpha  occ. eigenvalues --   -1.08895  -0.99911  -0.89786  -0.78405  -0.73595
 Alpha  occ. eigenvalues --   -0.67714  -0.62023  -0.59721  -0.51419
 Alpha virt. eigenvalues --   -0.38378  -0.24583  -0.19562  -0.15650  -0.13246
 Alpha virt. eigenvalues --   -0.10461  -0.10316  -0.07964  -0.06880  -0.05746
 Alpha virt. eigenvalues --   -0.05206  -0.03817  -0.01685  -0.00577   0.00171

  Beta  occ. eigenvalues --  -19.50676 -10.57690 -10.52457 -10.47581  -1.42083
  Beta  occ. eigenvalues --   -1.07222  -0.97055  -0.88386  -0.75408  -0.73720
  Beta  occ. eigenvalues --   -0.58412  -0.58331
  Beta virt. eigenvalues --   -0.43980  -0.37051  -0.35159  -0.21939  -0.17705
  Beta virt. eigenvalues --   -0.13614  -0.12100  -0.10180  -0.10002  -0.06762
  Beta virt. eigenvalues --   -0.06467  -0.05444  -0.04741  -0.03256  -0.01313

 Mulliken charges and spin densities:
               1          2
     1  C    0.154039   0.580596
     2  C    0.787487  -0.227668
     3  C    0.021281   1.621579
     4  H    0.355575   0.012929
     5  O   -0.318382   0.012565
 Sum of Mulliken charges =   1.00000   2.00000

 Dipole moment (field-independent basis, Debye):
    X=              1.2100    Y=              0.5504    Z=              0.0000  Tot=              1.3293
 Quadrupole moment (field-independent basis, Debye-Ang):
   XX=            -18.9159   YY=             -0.7055   ZZ=            -19.6616
   XY=              5.8870   XZ=             -0.0000   YZ=             -0.0000

  Exact polarizability:  22.854   6.869  58.159   0.000   0.000  20.043
 Approx polarizability:  33.318  17.927 123.217   0.000   0.000  26.578

                      1                      2                      3
                     A"                     A'                     A'
 Frequencies --    218.7846               244.1626               444.5614
 Red. masses --      5.5638                 7.4137                 9.0618
 Frc consts  --      0.1569                 0.2604                 1.0552
 IR Inten    --     23.6860                10.4980                 4.9072

                      4                      5                      6
                     A"                     A'                     A'
 Frequencies --    655.3774               961.5890              1189.3536
 Red. masses --      1.3566                 6.2240                 1.3002
 Frc consts  --      0.3433                 3.3908                 1.0836
 IR Inten    --     78.0509                 5.9898               259.1914

                      7                      8                      9
                     A'                     A'                     A'
 Frequencies --   1747.7609              1996.5008              3567.4414
 Red. masses --      9.9552                11.8910                 1.0669
 Frc consts  --     17.9169                27.9260                 7.9996
 IR Inten    --    185.2176               461.9118               524.7598

 - Thermochemistry -
 -------------------
 Temperature   298.150 Kelvin.  Pressure   1.00000 Atm.
 Atom     1 has atomic number  6 and mass  12.00000

 Molecular mass:    53.00274 amu.
 Principal axes and moments of inertia in atomic units:
                           1         2         3
     Eigenvalues --     7.13214 381.16865 388.30080
           X            0.12207   0.99252   0.00000
           Y            0.99252  -0.12207   0.00000
           Z           -0.00000  -0.00000   1.00000
 This molecule is an asymmetric top.
 Rotational symmetry number  1.
 Rotational temperatures (Kelvin)     12.14415     0.22723     0.22306
 Rotational constants (GHZ):         253.04330     4.73476     4.64779
 Zero-point vibrational energy      65947.3 (Joules/Mol)
                                   15.76179 (Kcal/Mol)
 Warning -- explicit consideration of   3 degrees of freedom as
           vibrations may cause significant error
 Vibrational temperatures:    314.78   351.30   639.62   942.94  1383.51
          (Kelvin)           1711.21  2514.63  2872.52  5132.75

 Zero-point correction=                           0.025118 (Hartree/Particle)
 Thermal correction to Energy=                    0.029440
 Thermal correction to Enthalpy=                  0.030384
 Thermal correction to Gibbs Free Energy=        -0.001292
 Sum of electronic and zero-point Energies=           -189.591686
 Sum of electronic and thermal Energies=              -189.587364
 Sum of electronic and thermal Enthalpies=            -189.586420
 Sum of electronic and thermal Free Energies=         -189.618096

                     E (Thermal)             CV                S
                      KCal/Mol        Cal/Mol-Kelvin    Cal/Mol-Kelvin
 Total                   18.474             12.512             66.668
 Electronic               0.000              0.000              2.183
 Translational            0.889              2.981             37.826
 Rotational               0.889              2.981             21.584
 Vibrational             16.696              6.551              5.075
 Vibration     1          0.647              1.812              1.969
 Vibration     2          0.659              1.772              1.772
 Vibration     3          0.804              1.373              0.812

 Optimization completed.
    -- Stationary point found.
 Normal termination of Gaussian 09 at Fri Mar  1 09:32:33 2019.
