 Gaussian 09, Revision E.01,
 Gaussian 09:  EM64L-G09RevE.01 30-Nov-2015

 ------------------------------------------------------
 #p b3lyp/6-311++G(3df,2p) freq IOp(2/17=3) IOp(2/18=3)
 ------------------------------------------------------

 ---------
 b3lyp opt
 ---------
 Symbolic Z-matrix:
 Charge =  1 Multiplicity = 1

                         Standard orientation:
 ---------------------------------------------------------------------
 Center     Atomic      Atomic             Coordinates (Angstroms)
 Number     Number       Type             X           Y           Z
 ---------------------------------------------------------------------
      1          6           0        0.000000   -0.000000   -0.670988
      2          6           0       -0.000000    0.000000    0.662674
      3          6           0        0.000000   -0.000000   -1.878965
      4          1           0        0.000000   -0.000000   -2.953918
      5          8           0       -0.000000    0.000000    1.784699
 ---------------------------------------------------------------------

 SCF Done:  E(RB3LYP) =  -189.798679899     A.U. after   11 cycles

 The electronic state is 1-SG.
 Alpha  occ. eigenvalues --  -19.51516 -10.62422 -10.52555 -10.49125  -1.44839
 Alpha  occ. eigenvalues --   -1.10123  -0.98796  -0.81894  -0.80619  -0.76559
 Alpha  occ. eigenvalues --   -0.76559  -0.60544  -0.60544
 Alpha virt. eigenvalues --   -0.36673  -0.36673  -0.17954  -0.15392  -0.15071
 Alpha virt. eigenvalues --   -0.15071  -0.12100  -0.10484  -0.10484  -0.07577
 Alpha virt. eigenvalues --   -0.05485  -0.05310  -0.05310  -0.01089  -0.00136

 Mulliken charges:
               1
     1  C    0.381873
     2  C   -0.023571
     3  C    0.645387
     4  H    0.392397
     5  O   -0.396086
 Sum of Mulliken charges =   1.00000

 Dipole moment (field-independent basis, Debye):
    X=              0.0000    Y=             -0.0000    Z=             -3.4803  Tot=              3.4803
 Quadrupole moment (field-independent basis, Debye-Ang):
   XX=            -19.3192   YY=            -19.3192   ZZ=             -2.6689
   XY=             -0.0000   XZ=             -0.0000   YZ=              0.0000

  Exact polarizability:  18.070   0.000  18.070   0.000   0.000  57.896
 Approx polarizability:  24.368  -0.000  24.368  -0.000   0.000 135.485

                      1                      2                      3
                     PI                     PI                     PI
 Frequencies --    192.0008               192.0008               586.5929
 Red. masses --      4.9381                 4.9381                11.7208
 Frc consts  --      0.1073                 0.1073                 2.3762
 IR Inten    --      2.0820                 2.0820                30.3873

                      4                      5                      6
                     PI                     PI                     PI
 Frequencies --    586.5929               815.5926               815.5926
 Red. masses --     11.7208                 1.2912                 1.2912
 Frc consts  --      2.3762                 0.5061                 0.5061
 IR Inten    --     30.3873                22.2738                22.2738

                      7                      8                      9
                     SG                     SG                     SG
 Frequencies --    942.0106              2159.5944              2405.7561
 Red. masses --      9.1438                 6.3171                10.7972
 Frc consts  --      4.7807                17.3586                36.8185
 IR Inten    --      3.4166                94.0570               941.4228

                     10
                     SG
 Frequencies --   3354.8868
 Red. masses --      1.1763
 Frc consts  --      7.8004
 IR Inten    --    106.9383

 - Thermochemistry -
 -------------------
 Temperature   298.150 Kelvin.  Pressure   1.00000 Atm.
 Atom     1 has atomic number  6 and mass  12.00000

 Molecular mass:    53.00274 amu.
 Principal axes and moments of inertia in atomic units:
                           1         2         3
     Eigenvalues --     0.00000 402.16448 402.16448
           X           -0.00000  -0.40619   0.91379
           Y            0.00000   0.91379   0.40619
           Z            1.00000  -0.00000   0.00000
 This molecule is a prolate symmetric top.
 Rotational symmetry number  1.
 Rotational temperature (Kelvin)      0.21537
 Rotational constant (GHZ):           4.487570
 Zero-point vibrational energy      72078.7 (Joules/Mol)
                                   17.22723 (Kcal/Mol)
 Warning -- explicit consideration of   4 degrees of freedom as
           vibrations may cause significant error
 Vibrational temperatures:    276.25   276.25   843.98   843.98  1173.45
          (Kelvin)           1173.45  1355.34  3107.17  3461.34  4826.93

 Zero-point correction=                           0.027453 (Hartree/Particle)
 Thermal correction to Energy=                    0.031490
 Thermal correction to Enthalpy=                  0.032434
 Thermal correction to Gibbs Free Energy=         0.003898
 Sum of electronic and zero-point Energies=           -189.771227
 Sum of electronic and thermal Energies=              -189.767190
 Sum of electronic and thermal Enthalpies=            -189.766246
 Sum of electronic and thermal Free Energies=         -189.794782

                     E (Thermal)             CV                S
                      KCal/Mol        Cal/Mol-Kelvin    Cal/Mol-Kelvin
 Total                   19.760             12.496             60.059
 Electronic               0.000              0.000              0.000
 Translational            0.889              2.981             37.826
 Rotational               0.592              1.987             16.361
 Vibrational             18.279              7.528              5.872
 Vibration     1          0.634              1.851              2.208
 Vibration     2          0.634              1.851              2.208
 Vibration     3          0.944              1.060              0.473
 Vibration     4          0.944              1.060              0.473

 Optimization completed.
    -- Stationary point found.
 Normal termination of Gaussian 09 at Fri Mar  1 09:31:14 2019.
