 Gaussian 09, Revision E.01,
 Gaussian 09:  EM64L-G09RevE.01 30-Nov-2015

 ------------------------------------------------------
 #p b3lyp/6-311++G(3df,2p) freq IOp(2/17=3) IOp(2/18=3)
 ------------------------------------------------------

 ---------
 b3lyp opt
 ---------
 Symbolic Z-matrix:
 Charge =  1 Multiplicity = 1

                         Standard orientation:
 ---------------------------------------------------------------------
 Center     Atomic      Atomic             Coordinates (Angstroms)
 Number     Number       Type             X           Y           Z
 ---------------------------------------------------------------------
      1          6           0       -0.447056   -1.026275    0.225268
      2          6           0       -0.403704    0.834571    0.068801
      3          6           0        2.028929   -0.028802   -0.150237
      4          6           0        0.722450    0.011242    0.088857
      5          1           0       -0.649273    1.810672    0.486034
      6          8           0       -1.344305   -0.069386   -0.235271
 ---------------------------------------------------------------------

 SCF Done:  E(RB3LYP) =  -227.652190638     A.U. after   14 cycles

 The electronic state is 1-A.
 Alpha  occ. eigenvalues --  -19.52102 -10.61760 -10.60711 -10.54792 -10.48616
 Alpha  occ. eigenvalues --   -1.47023  -1.11120  -0.99134  -0.96848  -0.82809
 Alpha  occ. eigenvalues --   -0.78844  -0.74054  -0.71777  -0.59123  -0.56816
 Alpha  occ. eigenvalues --   -0.55260
 Alpha virt. eigenvalues --   -0.40682  -0.38144  -0.37609  -0.22301  -0.17473
 Alpha virt. eigenvalues --   -0.16509  -0.13679  -0.11344  -0.09891  -0.08828
 Alpha virt. eigenvalues --   -0.07356  -0.07248  -0.06381  -0.05905  -0.04714

 Mulliken charges:
               1
     1  C    0.100355
     2  C    0.161330
     3  C   -0.180868
     4  C    0.918837
     5  H    0.276722
     6  O   -0.276376
 Sum of Mulliken charges =   1.00000

 Dipole moment (field-independent basis, Debye):
    X=             -0.3774    Y=              2.3838    Z=              0.5245  Tot=              2.4698
 Quadrupole moment (field-independent basis, Debye-Ang):
   XX=            -23.7808   YY=            -19.6287   ZZ=            -24.8990
   XY=             -1.7505   XZ=              0.1029   YZ=              1.4586

  Exact polarizability:  59.500   1.363  42.207  -1.947  -0.993  27.098
 Approx polarizability: 143.699   7.211  81.285  -3.762  -3.755  43.209

                      1                      2                      3
                      A                      A                      A
 Frequencies --    193.0136               221.0209               418.4243
 Red. masses --     10.9380                 8.4171                 8.4719
 Frc consts  --      0.2401                 0.2423                 0.8739
 IR Inten    --      7.3079                11.7261                35.2740

                      4                      5                      6
                      A                      A                      A
 Frequencies --    467.5895               784.2016               786.0586
 Red. masses --      3.0562                 6.8045                11.2534
 Frc consts  --      0.3937                 2.4655                 4.0968
 IR Inten    --     28.8666                 7.7882                19.0541

                      7                      8                      9
                      A                      A                      A
 Frequencies --   1013.9222              1046.1967              1195.8097
 Red. masses --      2.0588                 2.6587                 2.7535
 Frc consts  --      1.2470                 1.7145                 2.3198
 IR Inten    --     40.4365                11.3475               107.5466

                     10                     11                     12
                      A                      A                      A
 Frequencies --   1357.3736              1757.4501              3150.5015
 Red. masses --      2.6923                10.9340                 1.1027
 Frc consts  --      2.9226                19.8973                 6.4487
 IR Inten    --     29.8211               583.1551                57.9072

 - Thermochemistry -
 -------------------
 Temperature   298.150 Kelvin.  Pressure   1.00000 Atm.
 Atom     1 has atomic number  6 and mass  12.00000

 Molecular mass:    65.00274 amu.
 Principal axes and moments of inertia in atomic units:
                           1         2         3
     Eigenvalues --    94.52129 326.66831 406.08866
           X            0.99983  -0.01801  -0.00417
           Y            0.01816   0.99903   0.04008
           Z            0.00344  -0.04015   0.99919
 This molecule is an asymmetric top.
 Rotational symmetry number  1.
 Rotational temperatures (Kelvin)      0.91634     0.26514     0.21329
 Rotational constants (GHZ):          19.09349     5.52469     4.44420
 Zero-point vibrational energy      74118.0 (Joules/Mol)
                                   17.71463 (Kcal/Mol)
 Warning -- explicit consideration of   4 degrees of freedom as
           vibrations may cause significant error
 Vibrational temperatures:    277.70   318.00   602.02   672.76  1128.29
          (Kelvin)           1130.96  1458.81  1505.24  1720.50  1952.96
                             2528.58  4532.86

 Zero-point correction=                           0.028230 (Hartree/Particle)
 Thermal correction to Energy=                    0.032963
 Thermal correction to Enthalpy=                  0.033907
 Thermal correction to Gibbs Free Energy=         0.001151
 Sum of electronic and zero-point Energies=           -227.623961
 Sum of electronic and thermal Energies=              -227.619228
 Sum of electronic and thermal Enthalpies=            -227.618284
 Sum of electronic and thermal Free Energies=         -227.651040

                     E (Thermal)             CV                S
                      KCal/Mol        Cal/Mol-Kelvin    Cal/Mol-Kelvin
 Total                   20.684             14.775             68.941
 Electronic               0.000              0.000              0.000
 Translational            0.889              2.981             38.434
 Rotational               0.889              2.981             24.043
 Vibrational             18.907              8.813              6.464
 Vibration     1          0.635              1.850              2.199
 Vibration     2          0.648              1.809              1.951
 Vibration     3          0.781              1.430              0.897
 Vibration     4          0.825              1.322              0.744

 Optimization completed.
    -- Stationary point found.
 Normal termination of Gaussian 09 at Fri Mar  1 09:40:36 2019.
