 Gaussian 09, Revision E.01,
 Gaussian 09:  EM64L-G09RevE.01 30-Nov-2015

 ------------------------------------------------------
 #p b3lyp/6-311++G(3df,2p) freq IOp(2/17=3) IOp(2/18=3)
 ------------------------------------------------------

 ---------
 b3lyp opt
 ---------
 Symbolic Z-matrix:
 Charge =  1 Multiplicity = 1

                         Standard orientation:
 ---------------------------------------------------------------------
 Center     Atomic      Atomic             Coordinates (Angstroms)
 Number     Number       Type             X           Y           Z
 ---------------------------------------------------------------------
      1          6           0       -0.467428   -0.887594    0.000000
      2          6           0        1.237441    1.097887    0.000000
      3          6           0        0.000000    1.788062   -0.000000
      4          6           0        0.136301    0.341839   -0.000000
      5          1           0        2.319605    1.076635    0.000000
      6          8           0       -0.969685   -1.889725    0.000000
 ---------------------------------------------------------------------

 SCF Done:  E(RB3LYP) =  -227.812377446     A.U. after   13 cycles

 The electronic state is 1-A'.
 Alpha  occ. eigenvalues --  -19.52510 -10.62713 -10.52904 -10.51464 -10.48612
 Alpha  occ. eigenvalues --   -1.45710  -1.20736  -1.02862  -0.84848  -0.82254
 Alpha  occ. eigenvalues --   -0.77504  -0.77413  -0.72476  -0.65368  -0.61837
 Alpha  occ. eigenvalues --   -0.50367
 Alpha virt. eigenvalues --   -0.39876  -0.32596  -0.27329  -0.19018  -0.18995
 Alpha virt. eigenvalues --   -0.14580  -0.13815  -0.11337  -0.10911  -0.08037
 Alpha virt. eigenvalues --   -0.06533  -0.06082  -0.05614  -0.04817  -0.03462

 Mulliken charges:
               1
     1  C    0.426458
     2  C    0.286475
     3  C   -0.188624
     4  C    0.509112
     5  H    0.322829
     6  O   -0.356250
 Sum of Mulliken charges =   1.00000

 Dipole moment (field-independent basis, Debye):
    X=              2.6136    Y=             -0.9795    Z=             -0.0000  Tot=              2.7911
 Quadrupole moment (field-independent basis, Debye-Ang):
   XX=            -16.8936   YY=            -22.4342   ZZ=            -23.6269
   XY=              6.5944   XZ=             -0.0000   YZ=              0.0000

  Exact polarizability:  38.045  13.373  62.382  -0.000  -0.000  23.857
 Approx polarizability:  64.269  35.135 132.411   0.000  -0.000  36.889

                      1                      2                      3
                     A'                     A"                     A'
 Frequencies --    184.8755               222.2047               556.5957
 Red. masses --      6.7700                 8.9295                10.4500
 Frc consts  --      0.1363                 0.2598                 1.9074
 IR Inten    --      9.3306                 6.7599                 5.8976

                      4                      5                      6
                     A"                     A'                     A"
 Frequencies --    605.9695               682.6124               911.3197
 Red. masses --      6.9724                 6.3647                 1.4369
 Frc consts  --      1.5085                 1.7473                 0.7031
 IR Inten    --     17.0987                 4.1959                 9.0391

                      7                      8                      9
                     A'                     A'                     A'
 Frequencies --    972.7195              1058.1705              1162.6347
 Red. masses --      1.3277                 9.0057                 8.6567
 Frc consts  --      0.7401                 5.9413                 6.8943
 IR Inten    --      1.6928                59.0261                30.1496

                     10                     11                     12
                     A'                     A'                     A'
 Frequencies --   1680.4922              2323.6667              3228.3120
 Red. masses --      7.9089                12.9818                 1.1165
 Frc consts  --     13.1596                41.2982                 6.8558
 IR Inten    --    206.2713               687.9946                75.2991

 - Thermochemistry -
 -------------------
 Temperature   298.150 Kelvin.  Pressure   1.00000 Atm.
 Atom     1 has atomic number  6 and mass  12.00000

 Molecular mass:    65.00274 amu.
 Principal axes and moments of inertia in atomic units:
                           1         2         3
     Eigenvalues --    52.73900 531.33525 584.07425
           X            0.44745   0.89431   0.00000
           Y            0.89431  -0.44745   0.00000
           Z            0.00000   0.00000   1.00000
 This molecule is an asymmetric top.
 Rotational symmetry number  1.
 Rotational temperatures (Kelvin)      1.64231     0.16301     0.14829
 Rotational constants (GHZ):          34.22024     3.39661     3.08992
 Zero-point vibrational energy      81283.7 (Joules/Mol)
                                   19.42727 (Kcal/Mol)
 Warning -- explicit consideration of   4 degrees of freedom as
           vibrations may cause significant error
 Vibrational temperatures:    265.99   319.70   800.82   871.85   982.13
          (Kelvin)           1311.18  1399.52  1522.47  1672.77  2417.85
                             3343.23  4644.82

 Zero-point correction=                           0.030959 (Hartree/Particle)
 Thermal correction to Energy=                    0.035509
 Thermal correction to Enthalpy=                  0.036454
 Thermal correction to Gibbs Free Energy=         0.003848
 Sum of electronic and zero-point Energies=           -227.781418
 Sum of electronic and thermal Energies=              -227.776868
 Sum of electronic and thermal Enthalpies=            -227.775924
 Sum of electronic and thermal Free Energies=         -227.808530

                     E (Thermal)             CV                S
                      KCal/Mol        Cal/Mol-Kelvin    Cal/Mol-Kelvin
 Total                   22.283             14.121             68.625
 Electronic               0.000              0.000              0.000
 Translational            0.889              2.981             38.434
 Rotational               0.889              2.981             24.307
 Vibrational             20.505              8.159              5.883
 Vibration     1          0.631              1.860              2.279
 Vibration     2          0.648              1.807              1.941
 Vibration     3          0.912              1.125              0.531
 Vibration     4          0.965              1.019              0.440

 Normal termination of Gaussian 09 at Fri Mar  1 09:39:20 2019.
