 Gaussian 09, Revision E.01,
 Gaussian 09:  EM64L-G09RevE.01 30-Nov-2015

 ------------------------------------------------------
 #p b3lyp/6-311++G(3df,2p) freq IOp(2/17=3) IOp(2/18=3)
 ------------------------------------------------------

 ---------
 b3lyp opt
 ---------
 Symbolic Z-matrix:
 Charge =  1 Multiplicity = 1

                         Standard orientation:
 ---------------------------------------------------------------------
 Center     Atomic      Atomic             Coordinates (Angstroms)
 Number     Number       Type             X           Y           Z
 ---------------------------------------------------------------------
      1          6           0       -1.071349   -2.414995   -0.000000
      2          6           0        0.877179    1.120313    0.000000
      3          6           0        0.297643   -0.247400    0.000000
      4          6           0       -0.429944   -1.249348   -0.000000
      5          1           0        1.958826    1.282850    0.000000
      6          8           0        0.000000    1.933217    0.000000
 ---------------------------------------------------------------------

 SCF Done:  E(RB3LYP) =  -227.735055622     A.U. after   14 cycles

 The electronic state is 1-A'.
 Alpha  occ. eigenvalues --  -19.42693 -10.57867 -10.57371 -10.55878 -10.48479
 Alpha  occ. eigenvalues --   -1.35151  -1.11441  -1.01104  -0.92925  -0.80288
 Alpha  occ. eigenvalues --   -0.72651  -0.69604  -0.63525  -0.62499  -0.58922
 Alpha  occ. eigenvalues --   -0.55384
 Alpha virt. eigenvalues --   -0.43631  -0.41980  -0.29901  -0.19719  -0.16686
 Alpha virt. eigenvalues --   -0.15007  -0.14072  -0.11280  -0.10821  -0.08767
 Alpha virt. eigenvalues --   -0.08336  -0.07056  -0.06193  -0.04842  -0.03991

 Mulliken charges:
               1
     1  C   -0.347383
     2  C    0.141777
     3  C    0.270705
     4  C    1.049764
     5  H    0.248855
     6  O   -0.363718
 Sum of Mulliken charges =   1.00000

 Dipole moment (field-independent basis, Debye):
    X=              2.0343    Y=             -1.9690    Z=              0.0000  Tot=              2.8311
 Quadrupole moment (field-independent basis, Debye-Ang):
   XX=            -19.1801   YY=            -18.5884   ZZ=            -24.1168
   XY=              5.9983   XZ=             -0.0000   YZ=              0.0000

  Exact polarizability:  40.007  16.971  77.106  -0.000   0.000  25.569
 Approx polarizability:  75.867  46.856 190.110   0.000   0.000  37.804

                      1                      2                      3
                     A'                     A"                     A'
 Frequencies --    100.4416               112.8755               227.3291
 Red. masses --     10.4444                 6.8117                11.4299
 Frc consts  --      0.0621                 0.0511                 0.3480
 IR Inten    --      9.3168                 0.1812                55.6049

                      4                      5                      6
                     A"                     A'                     A'
 Frequencies --    349.8699               525.4705               808.4970
 Red. masses --      4.5328                10.4629                 6.2364
 Frc consts  --      0.3269                 1.7021                 2.4018
 IR Inten    --      3.2215                 4.4563               104.1002

                      7                      8                      9
                     A"                     A'                     A'
 Frequencies --    987.5489              1305.1488              1360.6428
 Red. masses --      1.6455                 5.4396                 1.3049
 Frc consts  --      0.9455                 5.4593                 1.4233
 IR Inten    --      4.6853               232.5128                32.7194

                     10                     11                     12
                     A'                     A'                     A'
 Frequencies --   1750.8963              2229.0908              3091.5844
 Red. masses --      9.3343                11.7320                 1.1031
 Frc consts  --     16.8598                34.3463                 6.2117
 IR Inten    --     66.3358               860.3827                 2.7594

 - Thermochemistry -
 -------------------
 Temperature   298.150 Kelvin.  Pressure   1.00000 Atm.
 Atom     1 has atomic number  6 and mass  12.00000

 Molecular mass:    65.00274 amu.
 Principal axes and moments of inertia in atomic units:
                           1         2         3
     Eigenvalues --    46.93016 653.07394 700.00409
           X            0.31606   0.94874  -0.00000
           Y            0.94874  -0.31606  -0.00000
           Z            0.00000   0.00000   1.00000
 This molecule is an asymmetric top.
 Rotational symmetry number  1.
 Rotational temperatures (Kelvin)      1.84559     0.13262     0.12373
 Rotational constants (GHZ):          38.45590     2.76346     2.57819
 Zero-point vibrational energy      76856.5 (Joules/Mol)
                                   18.36913 (Kcal/Mol)
 Warning -- explicit consideration of   5 degrees of freedom as
           vibrations may cause significant error
 Vibrational temperatures:    144.51   162.40   327.08   503.38   756.03
          (Kelvin)           1163.25  1420.86  1877.82  1957.66  2519.15
                             3207.16  4448.09

 Zero-point correction=                           0.029273 (Hartree/Particle)
 Thermal correction to Energy=                    0.034772
 Thermal correction to Enthalpy=                  0.035717
 Thermal correction to Gibbs Free Energy=         0.000704
 Sum of electronic and zero-point Energies=           -227.705783
 Sum of electronic and thermal Energies=              -227.700283
 Sum of electronic and thermal Enthalpies=            -227.699339
 Sum of electronic and thermal Free Energies=         -227.734352

                     E (Thermal)             CV                S
                      KCal/Mol        Cal/Mol-Kelvin    Cal/Mol-Kelvin
 Total                   21.820             15.747             73.690
 Electronic               0.000              0.000              0.000
 Translational            0.889              2.981             38.434
 Rotational               0.889              2.981             24.576
 Vibrational             20.043              9.786             10.680
 Vibration     1          0.604              1.949              3.446
 Vibration     2          0.607              1.939              3.219
 Vibration     3          0.651              1.799              1.900
 Vibration     4          0.727              1.576              1.167
 Vibration     5          0.880              1.194              0.597

 Optimization completed.
    -- Stationary point found.
 Normal termination of Gaussian 09 at Fri Mar  1 09:39:50 2019.
