 Gaussian 09, Revision E.01,
 Gaussian 09:  EM64L-G09RevE.01 30-Nov-2015

 ------------------------------------------------------
 #p b3lyp/6-311++G(3df,2p) freq IOp(2/17=3) IOp(2/18=3)
 ------------------------------------------------------

 ---------
 b3lyp opt
 ---------
 Symbolic Z-matrix:
 Charge =  1 Multiplicity = 1

                         Standard orientation:
 ---------------------------------------------------------------------
 Center     Atomic      Atomic             Coordinates (Angstroms)
 Number     Number       Type             X           Y           Z
 ---------------------------------------------------------------------
      1          6           0       -1.013832    1.426900   -0.000000
      2          6           0        1.207574   -0.299918   -0.000000
      3          6           0        1.145172   -1.638324    0.000000
      4          6           0        0.000000    0.375318   -0.000000
      5          1           0        2.161768    0.235465   -0.000000
      6          8           0       -1.274407    0.072585    0.000000
 ---------------------------------------------------------------------

 SCF Done:  E(RB3LYP) =  -227.664327317     A.U. after   12 cycles

 The electronic state is 1-A'.
 Alpha  occ. eigenvalues --  -19.54550 -10.60467 -10.57328 -10.56483 -10.48023
 Alpha  occ. eigenvalues --   -1.49997  -1.12026  -0.96578  -0.92553  -0.85133
 Alpha  occ. eigenvalues --   -0.78826  -0.76446  -0.67419  -0.60418  -0.58369
 Alpha  occ. eigenvalues --   -0.55380
 Alpha virt. eigenvalues --   -0.40709  -0.39008  -0.33824  -0.21558  -0.17764
 Alpha virt. eigenvalues --   -0.17145  -0.14727  -0.12108  -0.11348  -0.09592
 Alpha virt. eigenvalues --   -0.07279  -0.06656  -0.06507  -0.04419  -0.04292

 Mulliken charges:
               1
     1  C   -0.157499
     2  C    0.465893
     3  C   -0.129983
     4  C    0.791792
     5  H    0.225769
     6  O   -0.195972
 Sum of Mulliken charges =   1.00000

 Dipole moment (field-independent basis, Debye):
    X=              2.6109    Y=              0.2501    Z=             -0.0000  Tot=              2.6228
 Quadrupole moment (field-independent basis, Debye-Ang):
   XX=            -16.4602   YY=            -25.5147   ZZ=            -24.6083
   XY=             -1.4336   XZ=              0.0000   YZ=              0.0000

  Exact polarizability:  48.368 -14.008  48.240   0.000  -0.000  26.689
 Approx polarizability:  84.668 -24.163  85.142  -0.000  -0.000  41.616

                      1                      2                      3
                     A'                     A"                     A'
 Frequencies --    147.8256               159.1261               372.2686
 Red. masses --     11.2445                 9.9493                 6.8570
 Frc consts  --      0.1448                 0.1484                 0.5599
 IR Inten    --      5.6520                 6.3967                 3.1091

                      4                      5                      6
                     A"                     A'                     A"
 Frequencies --    480.0064               722.4066               752.7178
 Red. masses --      4.9867                11.1051                 1.3988
 Frc consts  --      0.6769                 3.4146                 0.4669
 IR Inten    --      0.5473                18.4931                40.4657

                      7                      8                      9
                     A'                     A'                     A'
 Frequencies --    995.3470              1040.5512              1189.1187
 Red. masses --      3.7299                 1.6427                 7.0992
 Frc consts  --      2.1772                 1.0479                 5.9144
 IR Inten    --    195.3369                37.3729                70.6361

                     10                     11                     12
                     A'                     A'                     A'
 Frequencies --   1551.1955              1694.2754              3067.8936
 Red. masses --      7.4970                12.0006                 1.0871
 Frc consts  --     10.6285                20.2964                 6.0283
 IR Inten    --    180.6774               206.6136               128.6038

 - Thermochemistry -
 -------------------
 Temperature   298.150 Kelvin.  Pressure   1.00000 Atm.
 Atom     1 has atomic number  6 and mass  12.00000

 Molecular mass:    65.00274 amu.
 Principal axes and moments of inertia in atomic units:
                           1         2         3
     Eigenvalues --    78.26321 406.46609 484.72930
           X            0.76844   0.63992   0.00000
           Y           -0.63992   0.76844   0.00000
           Z           -0.00000  -0.00000   1.00000
 This molecule is an asymmetric top.
 Rotational symmetry number  1.
 Rotational temperatures (Kelvin)      1.10670     0.21309     0.17868
 Rotational constants (GHZ):          23.05989     4.44008     3.72319
 Zero-point vibrational energy      72809.1 (Joules/Mol)
                                   17.40179 (Kcal/Mol)
 Warning -- explicit consideration of   4 degrees of freedom as
           vibrations may cause significant error
 Vibrational temperatures:    212.69   228.95   535.61   690.62  1039.38
          (Kelvin)           1082.99  1432.08  1497.12  1710.87  2231.82
                             2437.68  4414.01

 Zero-point correction=                           0.027732 (Hartree/Particle)
 Thermal correction to Energy=                    0.032705
 Thermal correction to Enthalpy=                  0.033649
 Thermal correction to Gibbs Free Energy=         0.000159
 Sum of electronic and zero-point Energies=           -227.636596
 Sum of electronic and thermal Energies=              -227.631622
 Sum of electronic and thermal Enthalpies=            -227.630678
 Sum of electronic and thermal Free Energies=         -227.664168

                     E (Thermal)             CV                S
                      KCal/Mol        Cal/Mol-Kelvin    Cal/Mol-Kelvin
 Total                   20.523             15.131             70.486
 Electronic               0.000              0.000              0.000
 Translational            0.889              2.981             38.434
 Rotational               0.889              2.981             24.248
 Vibrational             18.745              9.169              7.803
 Vibration     1          0.617              1.905              2.700
 Vibration     2          0.621              1.892              2.560
 Vibration     3          0.744              1.529              1.070
 Vibration     4          0.836              1.294              0.710

 Optimization completed.
    -- Stationary point found.
 Normal termination of Gaussian 09 at Fri Mar  1 09:39:39 2019.
