 Gaussian 09, Revision E.01,
 Gaussian 09:  EM64L-G09RevE.01 30-Nov-2015

 ------------------------------------------------------
 #p b3lyp/6-311++G(3df,2p) freq IOp(2/17=3) IOp(2/18=3)
 ------------------------------------------------------

 ---------
 b3lyp opt
 ---------
 Symbolic Z-matrix:
 Charge =  0 Multiplicity = 2

                         Standard orientation:
 ---------------------------------------------------------------------
 Center     Atomic      Atomic             Coordinates (Angstroms)
 Number     Number       Type             X           Y           Z
 ---------------------------------------------------------------------
      1          6           0        0.318398    0.240377    0.000238
      2          6           0       -1.085837    0.429717    0.000555
      3          6           0        1.606600    0.653390   -0.000869
      4          6           0       -2.057089   -0.449966   -0.000816
      5          1           0       -1.486449    1.450452    0.001706
      6          8           0        1.099252   -0.836445    0.000455
 ---------------------------------------------------------------------

 SCF Done:  E(UB3LYP) =  -227.994996224     A.U. after   19 cycles

 The electronic state is 2-A.
 Alpha  occ. eigenvalues --  -19.23520 -10.30828 -10.29615 -10.27450 -10.24133
 Alpha  occ. eigenvalues --   -1.16241  -0.86570  -0.74264  -0.66397  -0.56921
 Alpha  occ. eigenvalues --   -0.51256  -0.49778  -0.41017  -0.37061  -0.35204
 Alpha  occ. eigenvalues --   -0.31653  -0.25818
 Alpha virt. eigenvalues --   -0.15581  -0.09917  -0.01334  -0.00437   0.02121
 Alpha virt. eigenvalues --    0.03336   0.04582   0.04685   0.06849   0.07288
 Alpha virt. eigenvalues --    0.08389   0.08712   0.10162   0.10728   0.10928

  Beta  occ. eigenvalues --  -19.22238 -10.30472 -10.29376 -10.27002 -10.24252
  Beta  occ. eigenvalues --   -1.14166  -0.86297  -0.72010  -0.65611  -0.56531
  Beta  occ. eigenvalues --   -0.49019  -0.46282  -0.39948  -0.35031  -0.34686
  Beta  occ. eigenvalues --   -0.30816
  Beta virt. eigenvalues --   -0.15275  -0.14934  -0.07015  -0.01285   0.00055
  Beta virt. eigenvalues --    0.03331   0.03477   0.04807   0.04857   0.06907
  Beta virt. eigenvalues --    0.07479   0.08427   0.08962   0.10188   0.11041

 Mulliken charges and spin densities:
               1          2
     1  C    0.883655   0.250553
     2  C    0.340417  -0.080814
     3  C   -0.578498   0.279683
     4  C   -0.374657   0.153683
     5  H    0.169887  -0.000030
     6  O   -0.440804   0.396925
 Sum of Mulliken charges =  -0.00000   1.00000

 Dipole moment (field-independent basis, Debye):
    X=             -1.9585    Y=              1.5871    Z=              0.0034  Tot=              2.5208
 Quadrupole moment (field-independent basis, Debye-Ang):
   XX=            -36.2979   YY=            -28.3232   ZZ=            -28.8393
   XY=             -5.3062   XZ=             -0.0027   YZ=              0.0049

  Exact polarizability:  78.736   8.181  45.479  -0.004   0.001  33.636
 Approx polarizability: 124.264  15.674  81.391  -0.001   0.003  48.611

                      1                      2                      3
                      A                      A                      A
 Frequencies --    156.3803               159.7540               285.1176
 Red. masses --     11.2859                 5.6899                10.4141
 Frc consts  --      0.1626                 0.0856                 0.4988
 IR Inten    --     17.0536                18.7137                 9.8877

                      4                      5                      6
                      A                      A                      A
 Frequencies --    403.8693               432.3860               679.8877
 Red. masses --      3.1492                 6.1140                 1.8373
 Frc consts  --      0.3026                 0.6735                 0.5004
 IR Inten    --      0.0064                 1.4141                24.4716

                      7                      8                      9
                      A                      A                      A
 Frequencies --    857.3019               967.6141              1239.5722
 Red. masses --      9.8481                 1.3074                 6.7702
 Frc consts  --      4.2645                 0.7212                 6.1291
 IR Inten    --      7.6614                 6.1086                16.2007

                     10                     11                     12
                      A                      A                      A
 Frequencies --   1624.1735              1728.8318              3048.0132
 Red. masses --      9.2921                11.2269                 1.0812
 Frc consts  --     14.4420                19.7703                 5.9181
 IR Inten    --     74.1000                14.4720                40.7931

 - Thermochemistry -
 -------------------
 Temperature   298.150 Kelvin.  Pressure   1.00000 Atm.
 Atom     1 has atomic number  6 and mass  12.00000

 Molecular mass:    65.00274 amu.
 Principal axes and moments of inertia in atomic units:
                           1         2         3
     Eigenvalues --    84.60331 423.84762 508.45073
           X            0.99974  -0.02291  -0.00002
           Y            0.02291   0.99974   0.00011
           Z            0.00002  -0.00011   1.00000
 This molecule is an asymmetric top.
 Rotational symmetry number  1.
 Rotational temperatures (Kelvin)      1.02376     0.20435     0.17035
 Rotational constants (GHZ):          21.33180     4.25800     3.54949
 Zero-point vibrational energy      69281.1 (Joules/Mol)
                                   16.55859 (Kcal/Mol)
 Warning -- explicit consideration of   5 degrees of freedom as
           vibrations may cause significant error
 Vibrational temperatures:    225.00   229.85   410.22   581.08   622.11
          (Kelvin)            978.21  1233.46  1392.18  1783.47  2336.82
                             2487.40  4385.41

 Zero-point correction=                           0.026388 (Hartree/Particle)
 Thermal correction to Energy=                    0.031748
 Thermal correction to Enthalpy=                  0.032692
 Thermal correction to Gibbs Free Energy=        -0.002146
 Sum of electronic and zero-point Energies=           -227.968608
 Sum of electronic and thermal Energies=              -227.963248
 Sum of electronic and thermal Enthalpies=            -227.962304
 Sum of electronic and thermal Free Energies=         -227.997142

                     E (Thermal)             CV                S
                      KCal/Mol        Cal/Mol-Kelvin    Cal/Mol-Kelvin
 Total                   19.922             16.416             73.324
 Electronic               0.000              0.000              1.377
 Translational            0.889              2.981             38.434
 Rotational               0.889              2.981             24.415
 Vibrational             18.145             10.455              9.097
 Vibration     1          0.620              1.896              2.593
 Vibration     2          0.622              1.892              2.553
 Vibration     3          0.683              1.701              1.503
 Vibration     4          0.769              1.462              0.949
 Vibration     5          0.793              1.400              0.851

 Normal termination of Gaussian 09 at Fri Mar  1 09:35:50 2019.
