 Gaussian 09, Revision E.01,
 Gaussian 09:  EM64L-G09RevE.01 30-Nov-2015

 ------------------------------------------------------
 #p b3lyp/6-311++G(3df,2p) freq IOp(2/17=3) IOp(2/18=3)
 ------------------------------------------------------

 ---------
 b3lyp opt
 ---------
 Symbolic Z-matrix:
 Charge =  1 Multiplicity = 1

                         Standard orientation:
 ---------------------------------------------------------------------
 Center     Atomic      Atomic             Coordinates (Angstroms)
 Number     Number       Type             X           Y           Z
 ---------------------------------------------------------------------
      1          6           0       -0.703773    0.121258   -0.039878
      2          6           0        1.368395    0.073772    0.220637
      3          6           0        0.451483    0.973450   -0.193188
      4          6           0       -2.021446   -0.019616    0.166562
      5          1           0        2.393384   -0.173973    0.454356
      6          8           0        0.379834   -0.839902   -0.172394
 ---------------------------------------------------------------------

 SCF Done:  E(RB3LYP) =  -227.593859536     A.U. after   15 cycles

 The electronic state is 1-A.
 Alpha  occ. eigenvalues --  -19.54075 -10.57600 -10.57325 -10.53502 -10.52607
 Alpha  occ. eigenvalues --   -1.44934  -1.06826  -1.05448  -0.93701  -0.80316
 Alpha  occ. eigenvalues --   -0.77537  -0.76954  -0.72475  -0.57356  -0.55515
 Alpha  occ. eigenvalues --   -0.53618
 Alpha virt. eigenvalues --   -0.43470  -0.39908  -0.33068  -0.20798  -0.18046
 Alpha virt. eigenvalues --   -0.15749  -0.14843  -0.11322  -0.10832  -0.09018
 Alpha virt. eigenvalues --   -0.08148  -0.06222  -0.05723  -0.05528  -0.04918

 Mulliken charges:
               1
     1  C    0.732427
     2  C    0.370743
     3  C    0.218033
     4  C   -0.338386
     5  H    0.352920
     6  O   -0.335737
 Sum of Mulliken charges =   1.00000

 Dipole moment (field-independent basis, Debye):
    X=              3.3060    Y=              0.9080    Z=              0.9711  Tot=              3.5634
 Quadrupole moment (field-independent basis, Debye-Ang):
   XX=            -15.8777   YY=            -22.1551   ZZ=            -26.2849
   XY=             -0.4105   XZ=              2.2509   YZ=              0.4163

  Exact polarizability:  62.293   0.654  38.153   1.405  -2.343  27.400
 Approx polarizability: 116.784  -3.289  89.123   6.249  -6.658  42.534

                      1                      2                      3
                      A                      A                      A
 Frequencies --    198.8605               237.3164               333.3452
 Red. masses --      5.7335                 8.1606                11.0793
 Frc consts  --      0.1336                 0.2708                 0.7254
 IR Inten    --      8.0866                 7.0641                42.7395

                      4                      5                      6
                      A                      A                      A
 Frequencies --    590.0340               659.8081               728.8733
 Red. masses --      5.5409                10.9355                 1.6332
 Frc consts  --      1.1365                 2.8049                 0.5112
 IR Inten    --     18.2334                17.5013                53.6997

                      7                      8                      9
                      A                      A                      A
 Frequencies --    857.6582              1019.3863              1150.5464
 Red. masses --      4.9638                 4.6875                 1.4592
 Frc consts  --      2.1512                 2.8699                 1.1381
 IR Inten    --     31.1477                28.7338                 0.8623

                     10                     11                     12
                      A                      A                      A
 Frequencies --   1435.4913              1695.1976              3260.9203
 Red. masses --      5.7034                11.7657                 1.1143
 Frc consts  --      6.9244                19.9208                 6.9811
 IR Inten    --     22.8433               172.7717               159.8426

 - Thermochemistry -
 -------------------
 Temperature   298.150 Kelvin.  Pressure   1.00000 Atm.
 Atom     1 has atomic number  6 and mass  12.00000

 Molecular mass:    65.00274 amu.
 Principal axes and moments of inertia in atomic units:
                           1         2         3
     Eigenvalues --    89.20044 321.23570 395.79463
           X            0.99990  -0.00641   0.01278
           Y            0.00647   0.99997  -0.00404
           Z           -0.01275   0.00412   0.99991
 This molecule is an asymmetric top.
 Rotational symmetry number  1.
 Rotational temperatures (Kelvin)      0.97100     0.26963     0.21884
 Rotational constants (GHZ):          20.23242     5.61812     4.55979
 Zero-point vibrational energy      72777.4 (Joules/Mol)
                                   17.39423 (Kcal/Mol)
 Warning -- explicit consideration of   4 degrees of freedom as
           vibrations may cause significant error
 Vibrational temperatures:    286.12   341.44   479.61   848.93   949.32
          (Kelvin)           1048.68  1233.98  1466.67  1655.38  2065.35
                             2439.01  4691.73

 Zero-point correction=                           0.027719 (Hartree/Particle)
 Thermal correction to Energy=                    0.032523
 Thermal correction to Enthalpy=                  0.033467
 Thermal correction to Gibbs Free Energy=         0.000679
 Sum of electronic and zero-point Energies=           -227.566140
 Sum of electronic and thermal Energies=              -227.561337
 Sum of electronic and thermal Enthalpies=            -227.560393
 Sum of electronic and thermal Free Energies=         -227.593181

                     E (Thermal)             CV                S
                      KCal/Mol        Cal/Mol-Kelvin    Cal/Mol-Kelvin
 Total                   20.408             15.219             69.009
 Electronic               0.000              0.000              0.000
 Translational            0.889              2.981             38.434
 Rotational               0.889              2.981             23.943
 Vibrational             18.631              9.257              6.632
 Vibration     1          0.637              1.841              2.144
 Vibration     2          0.656              1.784              1.823
 Vibration     3          0.715              1.609              1.244
 Vibration     4          0.947              1.053              0.467

 Normal termination of Gaussian 09 at Fri Mar  1 09:40:24 2019.
