 Gaussian 09, Revision E.01,
 Gaussian 09:  EM64L-G09RevE.01 30-Nov-2015

 ------------------------------------------------------
 #p b3lyp/6-311++G(3df,2p) freq IOp(2/17=3) IOp(2/18=3)
 ------------------------------------------------------

 ---------
 b3lyp opt
 ---------
 Symbolic Z-matrix:
 Charge =  0 Multiplicity = 4

                         Standard orientation:
 ---------------------------------------------------------------------
 Center     Atomic      Atomic             Coordinates (Angstroms)
 Number     Number       Type             X           Y           Z
 ---------------------------------------------------------------------
      1          6           0        0.064318   -0.706835    0.000000
      2          1           0       -0.900455   -1.209968    0.000000
      3          8           0        0.064318    0.681372   -0.000000
 ---------------------------------------------------------------------

 SCF Done:  E(UB3LYP) =  -113.713842876     A.U. after   12 cycles

 The electronic state is 4-A".
 Alpha  occ. eigenvalues --  -19.24899 -10.27266  -1.08631  -0.66226  -0.51046
 Alpha  occ. eigenvalues --   -0.47653  -0.44270  -0.30737  -0.21442
 Alpha virt. eigenvalues --    0.00189   0.02949   0.05655   0.06268   0.11306
 Alpha virt. eigenvalues --    0.14414   0.16568   0.18097   0.19775   0.20231
 Alpha virt. eigenvalues --    0.28673   0.29216   0.35713   0.38429   0.41892

  Beta  occ. eigenvalues --  -19.21622 -10.24332  -1.00085  -0.58721  -0.45796
  Beta  occ. eigenvalues --   -0.37534
  Beta virt. eigenvalues --   -0.24778  -0.09110  -0.04359   0.00630   0.03631
  Beta virt. eigenvalues --    0.07395   0.08040   0.12129   0.16507   0.17741
  Beta virt. eigenvalues --    0.20296   0.21210   0.21887   0.30546   0.31911

 Mulliken charges and spin densities:
               1          2
     1  C    0.013405   1.810465
     2  H    0.184003   0.069471
     3  O   -0.197409   1.120064
 Sum of Mulliken charges =  -0.00000   3.00000

 Dipole moment (field-independent basis, Debye):
    X=             -0.5245    Y=             -0.7582    Z=              0.0000  Tot=              0.9219
 Quadrupole moment (field-independent basis, Debye-Ang):
   XX=            -10.3929   YY=            -11.9737   ZZ=            -13.0195
   XY=              1.0612   XZ=             -0.0000   YZ=              0.0000

  Exact polarizability:  14.568   1.053  20.768  -0.000   0.000  18.584
 Approx polarizability:  17.702   1.687  26.439  -0.000  -0.000  18.036

                      1                      2                      3
                     A'                     A'                     A'
 Frequencies --    947.6658              1220.6977              3108.0125
 Red. masses --      1.4130                 4.4869                 1.0839
 Frc consts  --      0.7476                 3.9393                 6.1690
 IR Inten    --     16.7166                30.3914                 0.2144

 - Thermochemistry -
 -------------------
 Temperature   298.150 Kelvin.  Pressure   1.00000 Atm.
 Atom     1 has atomic number  6 and mass  12.00000

 Molecular mass:    29.00274 amu.
 Principal axes and moments of inertia in atomic units:
                           1         2         3
     Eigenvalues --     2.85723  53.39723  56.25445
           X            0.08629   0.99627   0.00000
           Y            0.99627  -0.08629   0.00000
           Z           -0.00000  -0.00000   1.00000
 This molecule is an asymmetric top.
 Rotational symmetry number  1.
 Rotational temperatures (Kelvin)     30.31396     1.62207     1.53968
 Rotational constants (GHZ):         631.64121    33.79841    32.08175
 Zero-point vibrational energy      31559.7 (Joules/Mol)
                                    7.54296 (Kcal/Mol)
 Vibrational temperatures:   1363.48  1756.31  4471.73
          (Kelvin)

 Zero-point correction=                           0.012020 (Hartree/Particle)
 Thermal correction to Energy=                    0.014914
 Thermal correction to Enthalpy=                  0.015858
 Thermal correction to Gibbs Free Energy=        -0.010626
 Sum of electronic and zero-point Energies=           -113.701822
 Sum of electronic and thermal Energies=              -113.698929
 Sum of electronic and thermal Enthalpies=            -113.697985
 Sum of electronic and thermal Free Energies=         -113.724469

                     E (Thermal)             CV                S
                      KCal/Mol        Cal/Mol-Kelvin    Cal/Mol-Kelvin
 Total                    9.358              6.592             55.739
 Electronic               0.000              0.000              2.755
 Translational            0.889              2.981             36.028
 Rotational               0.889              2.981             16.802
 Vibrational              7.581              0.630              0.153

 Optimization completed.
    -- Stationary point found.
 Normal termination of Gaussian 09 at Fri Mar  1 09:36:13 2019.
