 Gaussian 09, Revision E.01,
 Gaussian 09:  EM64L-G09RevE.01 30-Nov-2015

 ------------------------------------------------------
 #p b3lyp/6-311++G(3df,2p) freq IOp(2/17=3) IOp(2/18=3)
 ------------------------------------------------------

 ---------
 b3lyp opt
 ---------
 Symbolic Z-matrix:
 Charge =  0 Multiplicity = 2

                         Standard orientation:
 ---------------------------------------------------------------------
 Center     Atomic      Atomic             Coordinates (Angstroms)
 Number     Number       Type             X           Y           Z
 ---------------------------------------------------------------------
      1          6           0       -0.059534   -0.788139    0.000000
      2          1           0        0.833472    0.896973    0.000000
      3          8           0       -0.059534    0.478982    0.000000
 ---------------------------------------------------------------------

 SCF Done:  E(UB3LYP) =  -113.832028542     A.U. after   11 cycles

 The electronic state is 2-A'.
 Alpha  occ. eigenvalues --  -19.23988 -10.26155  -1.14974  -0.70172  -0.52073
 Alpha  occ. eigenvalues --   -0.46033  -0.36826  -0.19684
 Alpha virt. eigenvalues --   -0.06483  -0.03069   0.05424   0.06305   0.07137
 Alpha virt. eigenvalues --    0.07960   0.11986   0.16814   0.18154   0.21009
 Alpha virt. eigenvalues --    0.26418   0.31794   0.32550   0.37449   0.42661

  Beta  occ. eigenvalues --  -19.23879 -10.24698  -1.14308  -0.68307  -0.49516
  Beta  occ. eigenvalues --   -0.45859  -0.33597
  Beta virt. eigenvalues --   -0.05150  -0.04525  -0.02524   0.05907   0.06821
  Beta virt. eigenvalues --    0.07319   0.08271   0.13178   0.17100   0.18113
  Beta virt. eigenvalues --    0.21128   0.26671   0.33251   0.34220   0.38839

 Mulliken charges and spin densities:
               1          2
     1  C   -0.063634   0.950201
     2  H    0.262600   0.074417
     3  O   -0.198966  -0.024617
 Sum of Mulliken charges =  -0.00000   1.00000

 Dipole moment (field-independent basis, Debye):
    X=              1.5501    Y=              2.2281    Z=              0.0000  Tot=              2.7143
 Quadrupole moment (field-independent basis, Debye-Ang):
   XX=            -11.4322   YY=            -13.5624   ZZ=            -11.5340
   XY=              1.5982   XZ=              0.0000   YZ=              0.0000

  Exact polarizability:  19.051   2.958  23.555  -0.000   0.000  14.715
 Approx polarizability:  22.494   3.964  30.643  -0.000  -0.000  20.508

                      1                      2                      3
                     A'                     A'                     A'
 Frequencies --   1125.8495              1389.2910              3287.3611
 Red. masses --      1.2536                 7.1592                 1.0643
 Frc consts  --      0.9362                 8.1414                 6.7766
 IR Inten    --     88.4659                38.9793                65.3892

 - Thermochemistry -
 -------------------
 Temperature   298.150 Kelvin.  Pressure   1.00000 Atm.
 Atom     1 has atomic number  6 and mass  12.00000

 Molecular mass:    29.00274 amu.
 Principal axes and moments of inertia in atomic units:
                           1         2         3
     Eigenvalues --     2.54792  42.74297  45.29088
           X            0.07439   0.99723   0.00000
           Y            0.99723  -0.07439   0.00000
           Z            0.00000  -0.00000   1.00000
 This molecule is an asymmetric top.
 Rotational symmetry number  1.
 Rotational temperatures (Kelvin)     33.99399     2.02639     1.91239
 Rotational constants (GHZ):         708.32075    42.22311    39.84778
 Zero-point vibrational energy      34706.7 (Joules/Mol)
                                    8.29509 (Kcal/Mol)
 Vibrational temperatures:   1619.84  1998.88  4729.77
          (Kelvin)

 Zero-point correction=                           0.013219 (Hartree/Particle)
 Thermal correction to Energy=                    0.016082
 Thermal correction to Enthalpy=                  0.017026
 Thermal correction to Gibbs Free Energy=        -0.008504
 Sum of electronic and zero-point Energies=           -113.818809
 Sum of electronic and thermal Energies=              -113.815947
 Sum of electronic and thermal Enthalpies=            -113.815002
 Sum of electronic and thermal Free Energies=         -113.840533

                     E (Thermal)             CV                S
                      KCal/Mol        Cal/Mol-Kelvin    Cal/Mol-Kelvin
 Total                   10.092              6.330             53.733
 Electronic               0.000              0.000              1.377
 Translational            0.889              2.981             36.028
 Rotational               0.889              2.981             16.252
 Vibrational              8.314              0.368              0.075

 Optimization completed.
    -- Stationary point found.
 Normal termination of Gaussian 09 at Fri Mar  1 09:36:13 2019.
