 Gaussian 09, Revision E.01,
 Gaussian 09:  EM64L-G09RevE.01 30-Nov-2015

 ------------------------------------------------------
 #p b3lyp/6-311++G(3df,2p) freq IOp(2/17=3) IOp(2/18=3)
 ------------------------------------------------------

 ---------
 b3lyp opt
 ---------
 Symbolic Z-matrix:
 Charge =  1 Multiplicity = 3

                         Standard orientation:
 ---------------------------------------------------------------------
 Center     Atomic      Atomic             Coordinates (Angstroms)
 Number     Number       Type             X           Y           Z
 ---------------------------------------------------------------------
      1          6           0        0.065736   -0.639087   -0.000000
      2          1           0       -0.920299   -1.157785   -0.000000
      3          8           0        0.065736    0.624038    0.000000
 ---------------------------------------------------------------------

 SCF Done:  E(UB3LYP) =  -113.384468413     A.U. after   13 cycles

 The electronic state is 3-A'.
 Alpha  occ. eigenvalues --  -19.65346 -10.70708  -1.51578  -1.00903  -0.89829
 Alpha  occ. eigenvalues --   -0.85468  -0.81684  -0.64960
 Alpha virt. eigenvalues --   -0.44583  -0.20356  -0.17867  -0.13262  -0.11997
 Alpha virt. eigenvalues --   -0.08965  -0.05122  -0.04267  -0.01237  -0.00262
 Alpha virt. eigenvalues --   -0.00162   0.02162   0.07505   0.11881   0.14342

  Beta  occ. eigenvalues --  -19.62538 -10.68853  -1.44574  -0.95382  -0.84208
  Beta  occ. eigenvalues --   -0.79046
  Beta virt. eigenvalues --   -0.62841  -0.42385  -0.41432  -0.19243  -0.16562
  Beta virt. eigenvalues --   -0.11813  -0.11448  -0.07044  -0.04226  -0.03581
  Beta virt. eigenvalues --    0.00058   0.00321   0.01106   0.03499   0.08670

 Mulliken charges and spin densities:
               1          2
     1  C    0.586726   0.916381
     2  H    0.297896   0.111653
     3  O    0.115378   0.971966
 Sum of Mulliken charges =   1.00000   2.00000

 Dipole moment (field-independent basis, Debye):
    X=             -0.6435    Y=             -2.3251    Z=             -0.0000  Tot=              2.4126
 Quadrupole moment (field-independent basis, Debye-Ang):
   XX=             -7.6297   YY=             -6.2579   ZZ=             -9.0421
   XY=              1.5721   XZ=              0.0000   YZ=              0.0000

  Exact polarizability:   9.693   1.268  14.871   0.000  -0.000   9.067
 Approx polarizability:  11.828   1.874  24.251   0.000   0.000  11.553

                      1                      2                      3
                     A'                     A'                     A'
 Frequencies --    956.1207              1566.8648              2873.3352
 Red. masses --      1.2908                 7.4529                 1.0805
 Frc consts  --      0.6952                10.7804                 5.2561
 IR Inten    --     20.8087                19.9827                88.7648

 - Thermochemistry -
 -------------------
 Temperature   298.150 Kelvin.  Pressure   1.00000 Atm.
 Atom     1 has atomic number  6 and mass  12.00000

 Molecular mass:    29.00274 amu.
 Principal axes and moments of inertia in atomic units:
                           1         2         3
     Eigenvalues --     2.94223  44.84401  47.78625
           X            0.10193   0.99479   0.00000
           Y            0.99479  -0.10193   0.00000
           Z           -0.00000  -0.00000   1.00000
 This molecule is an asymmetric top.
 Rotational symmetry number  1.
 Rotational temperatures (Kelvin)     29.43813     1.93145     1.81253
 Rotational constants (GHZ):         613.39176    40.24486    37.76696
 Zero-point vibrational energy      32277.2 (Joules/Mol)
                                    7.71443 (Kcal/Mol)
 Vibrational temperatures:   1375.64  2254.37  4134.08
          (Kelvin)

 Zero-point correction=                           0.012294 (Hartree/Particle)
 Thermal correction to Energy=                    0.015174
 Thermal correction to Enthalpy=                  0.016118
 Thermal correction to Gibbs Free Energy=        -0.009933
 Sum of electronic and zero-point Energies=           -113.372175
 Sum of electronic and thermal Energies=              -113.369295
 Sum of electronic and thermal Enthalpies=            -113.368351
 Sum of electronic and thermal Free Energies=         -113.394401

                     E (Thermal)             CV                S
                      KCal/Mol        Cal/Mol-Kelvin    Cal/Mol-Kelvin
 Total                    9.522              6.449             54.828
 Electronic               0.000              0.000              2.183
 Translational            0.889              2.981             36.028
 Rotational               0.889              2.981             16.496
 Vibrational              7.744              0.487              0.120

 Optimization completed.
    -- Stationary point found.
 Normal termination of Gaussian 09 at Fri Mar  1 09:40:53 2019.
