 Gaussian 09, Revision E.01,
 Gaussian 09:  EM64L-G09RevE.01 30-Nov-2015

 ------------------------------------------------------
 #p b3lyp/6-311++G(3df,2p) freq IOp(2/17=3) IOp(2/18=3)
 ------------------------------------------------------

 ---------
 b3lyp opt
 ---------
 Symbolic Z-matrix:
 Charge =  0 Multiplicity = 2

                         Standard orientation:
 ---------------------------------------------------------------------
 Center     Atomic      Atomic             Coordinates (Angstroms)
 Number     Number       Type             X           Y           Z
 ---------------------------------------------------------------------
      1          6           0        0.061693   -0.582189   -0.000000
      2          1           0       -0.863706   -1.218725   -0.000000
      3          8           0        0.061693    0.588982    0.000000
 ---------------------------------------------------------------------

 SCF Done:  E(UB3LYP) =  -113.898932906     A.U. after   12 cycles

 The electronic state is 2-A'.
 Alpha  occ. eigenvalues --  -19.19944 -10.28391  -1.12450  -0.62756  -0.51487
 Alpha  occ. eigenvalues --   -0.45316  -0.44841  -0.22834
 Alpha virt. eigenvalues --   -0.06338  -0.00152   0.03809   0.05761   0.06615
 Alpha virt. eigenvalues --    0.11132   0.14687   0.17662   0.20896   0.21755
 Alpha virt. eigenvalues --    0.23784   0.29536   0.35057   0.36444   0.40528

  Beta  occ. eigenvalues --  -19.19070 -10.27424  -1.10855  -0.60014  -0.49218
  Beta  occ. eigenvalues --   -0.44090  -0.40133
  Beta virt. eigenvalues --   -0.09091  -0.04904   0.00130   0.03888   0.06656
  Beta virt. eigenvalues --    0.06808   0.11387   0.16346   0.17806   0.20925
  Beta virt. eigenvalues --    0.22234   0.24147   0.30501   0.36011   0.37216

 Mulliken charges and spin densities:
               1          2
     1  C    0.186422   0.598482
     2  H    0.155735   0.166346
     3  O   -0.342158   0.235172
 Sum of Mulliken charges =  -0.00000   1.00000

 Dipole moment (field-independent basis, Debye):
    X=             -0.9717    Y=             -1.3311    Z=             -0.0000  Tot=              1.6480
 Quadrupole moment (field-independent basis, Debye-Ang):
   XX=            -11.5866   YY=            -11.8079   ZZ=            -11.0317
   XY=              1.1594   XZ=              0.0000   YZ=             -0.0000

  Exact polarizability:  17.131   1.478  21.167   0.000  -0.000  12.449
 Approx polarizability:  19.856   1.664  32.807   0.000   0.000  16.162

                      1                      2                      3
                     A'                     A'                     A'
 Frequencies --   1103.7350              1939.4721              2650.0850
 Red. masses --      1.2528                11.5756                 1.0799
 Frc consts  --      0.8992                25.6542                 4.4684
 IR Inten    --     37.8322                98.5674                82.2519

 - Thermochemistry -
 -------------------
 Temperature   298.150 Kelvin.  Pressure   1.00000 Atm.
 Atom     1 has atomic number  6 and mass  12.00000

 Molecular mass:    29.00274 amu.
 Principal axes and moments of inertia in atomic units:
                           1         2         3
     Eigenvalues --     2.49886  39.98173  42.48059
           X            0.11270   0.99363   0.00000
           Y            0.99363  -0.11270   0.00000
           Z            0.00000   0.00000   1.00000
 This molecule is an asymmetric top.
 Rotational symmetry number  1.
 Rotational temperatures (Kelvin)     34.66133     2.16633     2.03890
 Rotational constants (GHZ):         722.22572    45.13914    42.48390
 Zero-point vibrational energy      34053.4 (Joules/Mol)
                                    8.13897 (Kcal/Mol)
 Vibrational temperatures:   1588.03  2790.46  3812.88
          (Kelvin)

 Zero-point correction=                           0.012970 (Hartree/Particle)
 Thermal correction to Energy=                    0.015828
 Thermal correction to Enthalpy=                  0.016772
 Thermal correction to Gibbs Free Energy=        -0.008681
 Sum of electronic and zero-point Energies=           -113.885963
 Sum of electronic and thermal Energies=              -113.883105
 Sum of electronic and thermal Enthalpies=            -113.882161
 Sum of electronic and thermal Free Energies=         -113.907614

                     E (Thermal)             CV                S
                      KCal/Mol        Cal/Mol-Kelvin    Cal/Mol-Kelvin
 Total                    9.932              6.254             53.572
 Electronic               0.000              0.000              1.377
 Translational            0.889              2.981             36.028
 Rotational               0.889              2.981             16.103
 Vibrational              8.155              0.293              0.063

 Optimization completed.
    -- Stationary point found.
 Normal termination of Gaussian 09 at Fri Mar  1 09:36:13 2019.
