 Gaussian 09, Revision E.01,
 Gaussian 09:  EM64L-G09RevE.01 30-Nov-2015

 ------------------------------------------------------
 #p b3lyp/6-311++G(3df,2p) freq IOp(2/17=3) IOp(2/18=3)
 ------------------------------------------------------

 ---------
 b3lyp opt
 ---------
 Symbolic Z-matrix:
 Charge =  1 Multiplicity = 1

                         Standard orientation:
 ---------------------------------------------------------------------
 Center     Atomic      Atomic             Coordinates (Angstroms)
 Number     Number       Type             X           Y           Z
 ---------------------------------------------------------------------
      1          6           0       -0.000000    0.000000   -0.514946
      2          1           0       -0.000000    0.000000   -1.623595
      3          8           0        0.000000   -0.000000    0.589159
 ---------------------------------------------------------------------

 SCF Done:  E(RB3LYP) =  -113.590438304     A.U. after    8 cycles

 The electronic state is 1-SG.
 Alpha  occ. eigenvalues --  -19.59957 -10.68953  -1.53092  -0.98266  -0.87585
 Alpha  occ. eigenvalues --   -0.82814  -0.82814
 Alpha virt. eigenvalues --   -0.38500  -0.38500  -0.26153  -0.18480  -0.12148
 Alpha virt. eigenvalues --   -0.12148  -0.08744  -0.04776   0.00995   0.00995
 Alpha virt. eigenvalues --    0.02651   0.04730   0.04730   0.06345   0.14127

 Mulliken charges:
               1
     1  C    0.702932
     2  H    0.395643
     3  O   -0.098575
 Sum of Mulliken charges =   1.00000

 Dipole moment (field-independent basis, Debye):
    X=             -0.0000    Y=              0.0000    Z=             -3.7608  Tot=              3.7608
 Quadrupole moment (field-independent basis, Debye-Ang):
   XX=             -8.7452   YY=             -8.7452   ZZ=             -3.4325
   XY=              0.0000   XZ=              0.0000   YZ=             -0.0000

  Exact polarizability:   7.679   0.000   7.679   0.000   0.000  13.975
 Approx polarizability:   9.992  -0.000   9.992   0.000  -0.000  25.334

                      1                      2                      3
                     PI                     PI                     SG
 Frequencies --    912.7913               912.7913              2235.5284
 Red. masses --      1.3676                 1.3676                 3.4995
 Frc consts  --      0.6714                 0.6714                10.3043
 IR Inten    --     16.4822                16.4822               135.8088

                      4
                     SG
 Frequencies --   3103.2028
 Red. masses --      1.3353
 Frc consts  --      7.5761
 IR Inten    --    201.5739

 - Thermochemistry -
 -------------------
 Temperature   298.150 Kelvin.  Pressure   1.00000 Atm.
 Atom     1 has atomic number  6 and mass  12.00000

 Molecular mass:    29.00274 amu.
 Principal axes and moments of inertia in atomic units:
                           1         2         3
     Eigenvalues --     0.00000  40.35858  40.35858
           X            0.00000  -0.66429   0.74748
           Y           -0.00000   0.74748   0.66429
           Z            1.00000   0.00000  -0.00000
 This molecule is a prolate symmetric top.
 Rotational symmetry number  1.
 Rotational temperature (Kelvin)      2.14611
 Rotational constant (GHZ):          44.717653
 Zero-point vibrational energy      42852.1 (Joules/Mol)
                                   10.24190 (Kcal/Mol)
 Vibrational temperatures:   1313.30  1313.30  3216.42  4464.81
          (Kelvin)

 Zero-point correction=                           0.016322 (Hartree/Particle)
 Thermal correction to Energy=                    0.018785
 Thermal correction to Enthalpy=                  0.019729
 Thermal correction to Gibbs Free Energy=        -0.003118
 Sum of electronic and zero-point Energies=           -113.574117
 Sum of electronic and thermal Energies=              -113.571653
 Sum of electronic and thermal Enthalpies=            -113.570709
 Sum of electronic and thermal Free Energies=         -113.593556

                     E (Thermal)             CV                S
                      KCal/Mol        Cal/Mol-Kelvin    Cal/Mol-Kelvin
 Total                   11.788              5.939             48.086
 Electronic               0.000              0.000              0.000
 Translational            0.889              2.981             36.028
 Rotational               0.592              1.987             11.792
 Vibrational             10.307              0.971              0.266

 Normal termination of Gaussian 09 at Fri Mar  1 09:40:48 2019.
