 Gaussian 09, Revision E.01,
 Gaussian 09:  EM64L-G09RevE.01 30-Nov-2015

 ------------------------------------------------------
 #p b3lyp/6-311++G(3df,2p) freq IOp(2/17=3) IOp(2/18=3)
 ------------------------------------------------------

 ---------
 b3lyp opt
 ---------
 Symbolic Z-matrix:
 Charge =  1 Multiplicity = 1

                         Standard orientation:
 ---------------------------------------------------------------------
 Center     Atomic      Atomic             Coordinates (Angstroms)
 Number     Number       Type             X           Y           Z
 ---------------------------------------------------------------------
      1          6           0        0.000000   -0.000000   -0.761909
      2          1           0       -0.000000    0.000000    1.403795
      3          8           0       -0.000000    0.000000    0.395957
 ---------------------------------------------------------------------

 SCF Done:  E(RB3LYP) =  -113.528387134     A.U. after    9 cycles

 The electronic state is 1-SG.
 Alpha  occ. eigenvalues --  -19.61892 -10.67861  -1.54371  -1.12681  -0.84385
 Alpha  occ. eigenvalues --   -0.84385  -0.70006
 Alpha virt. eigenvalues --   -0.37265  -0.37265  -0.28738  -0.16173  -0.12144
 Alpha virt. eigenvalues --   -0.12144  -0.08700  -0.07506  -0.02028  -0.02028
 Alpha virt. eigenvalues --    0.04320   0.06378   0.07774   0.07774   0.12642

 Mulliken charges:
               1
     1  C    0.389227
     2  H    0.578037
     3  O    0.032736
 Sum of Mulliken charges =   1.00000

 Dipole moment (field-independent basis, Debye):
    X=             -0.0000    Y=              0.0000    Z=              2.6104  Tot=              2.6104
 Quadrupole moment (field-independent basis, Debye-Ang):
   XX=             -9.1980   YY=             -9.1980   ZZ=             -3.8543
   XY=              0.0000   XZ=             -0.0000   YZ=             -0.0000

  Exact polarizability:   9.557   0.000   9.557  -0.001   0.000  14.916
 Approx polarizability:  13.420  -0.000  13.420  -0.000   0.000  23.565

                      1                      2                      3
                     PI                     PI                     SG
 Frequencies --    415.9640               415.9640              1937.6948
 Red. masses --      1.2697                 1.2697                 7.8481
 Frc consts  --      0.1294                 0.1294                17.3613
 IR Inten    --    248.1252               248.1250               141.2914

                      4
                     SG
 Frequencies --   3262.1551
 Red. masses --      1.1023
 Frc consts  --      6.9110
 IR Inten    --    974.9270

 - Thermochemistry -
 -------------------
 Temperature   298.150 Kelvin.  Pressure   1.00000 Atm.
 Atom     1 has atomic number  6 and mass  12.00000

 Molecular mass:    29.00274 amu.
 Principal axes and moments of inertia in atomic units:
                           1         2         3
     Eigenvalues --     0.00000  40.68425  40.68425
           X           -0.00000   0.74750  -0.66426
           Y            0.00000   0.66426   0.74750
           Z            1.00000   0.00000  -0.00000
 This molecule is a prolate symmetric top.
 Rotational symmetry number  1.
 Rotational temperature (Kelvin)      2.12893
 Rotational constant (GHZ):          44.359703
 Zero-point vibrational energy      36078.0 (Joules/Mol)
                                    8.62286 (Kcal/Mol)
 Warning -- explicit consideration of   2 degrees of freedom as
           vibrations may cause significant error
 Vibrational temperatures:    598.48   598.48  2787.91  4693.51
          (Kelvin)

 Zero-point correction=                           0.013741 (Hartree/Particle)
 Thermal correction to Energy=                    0.016691
 Thermal correction to Enthalpy=                  0.017635
 Thermal correction to Gibbs Free Energy=        -0.005955
 Sum of electronic and zero-point Energies=           -113.514646
 Sum of electronic and thermal Energies=              -113.511696
 Sum of electronic and thermal Enthalpies=            -113.510752
 Sum of electronic and thermal Free Energies=         -113.534342

                     E (Thermal)             CV                S
                      KCal/Mol        Cal/Mol-Kelvin    Cal/Mol-Kelvin
 Total                   10.474              7.854             49.650
 Electronic               0.000              0.000              0.000
 Translational            0.889              2.981             36.028
 Rotational               0.592              1.987             11.808
 Vibrational              8.993              2.886              1.813
 Vibration     1          0.779              1.436              0.906
 Vibration     2          0.779              1.436              0.906

 Normal termination of Gaussian 09 at Fri Mar  1 09:40:48 2019.
