 Gaussian 09, Revision E.01,
 Gaussian 09:  EM64L-G09RevE.01 30-Nov-2015

 ------------------------------------------------------
 #p b3lyp/6-311++G(3df,2p) freq IOp(2/17=3) IOp(2/18=3)
 ------------------------------------------------------

 ---------
 b3lyp opt
 ---------
 Symbolic Z-matrix:
 Charge =  1 Multiplicity = 3

                         Standard orientation:
 ---------------------------------------------------------------------
 Center     Atomic      Atomic             Coordinates (Angstroms)
 Number     Number       Type             X           Y           Z
 ---------------------------------------------------------------------
      1          6           0       -0.059211   -0.764095    0.000000
      2          1           0        0.828952    0.919405    0.000000
      3          8           0       -0.059211    0.458146    0.000000
 ---------------------------------------------------------------------

 SCF Done:  E(UB3LYP) =  -113.378221524     A.U. after   12 cycles

 The electronic state is 3-A'.
 Alpha  occ. eigenvalues --  -19.59528 -10.70873  -1.50763  -1.04753  -0.86690
 Alpha  occ. eigenvalues --   -0.80670  -0.80323  -0.56982
 Alpha virt. eigenvalues --   -0.42649  -0.25072  -0.14260  -0.12473  -0.11780
 Alpha virt. eigenvalues --   -0.09093  -0.07071  -0.01657  -0.00868   0.00493
 Alpha virt. eigenvalues --    0.02338   0.05075   0.08628   0.11809   0.18164

  Beta  occ. eigenvalues --  -19.59161 -10.66876  -1.49110  -1.01310  -0.81278
  Beta  occ. eigenvalues --   -0.79827
  Beta virt. eigenvalues --   -0.56407  -0.36580  -0.35584  -0.23705  -0.12814
  Beta virt. eigenvalues --   -0.11486  -0.11455  -0.08115  -0.05831  -0.01107
  Beta virt. eigenvalues --   -0.00817   0.00991   0.06322   0.06798   0.09876

 Mulliken charges and spin densities:
               1          2
     1  C    0.692004   1.958053
     2  H    0.365170   0.067744
     3  O   -0.057175  -0.025797
 Sum of Mulliken charges =   1.00000   2.00000

 Dipole moment (field-independent basis, Debye):
    X=              1.5270    Y=             -0.7616    Z=              0.0000  Tot=              1.7064
 Quadrupole moment (field-independent basis, Debye-Ang):
   XX=             -8.0531   YY=             -4.9691   ZZ=             -8.8926
   XY=              2.3224   XZ=              0.0000   YZ=              0.0000

  Exact polarizability:   9.779   0.842  15.197   0.000  -0.000   8.839
 Approx polarizability:  11.850   0.776  24.033  -0.000  -0.000  11.207

                      1                      2                      3
                     A'                     A'                     A'
 Frequencies --   1183.8562              1668.2768              3277.3601
 Red. masses --      1.2290                 8.7414                 1.0650
 Frc consts  --      1.0149                14.3339                 6.7395
 IR Inten    --    168.0641                22.6753               258.4791

 - Thermochemistry -
 -------------------
 Temperature   298.150 Kelvin.  Pressure   1.00000 Atm.
 Atom     1 has atomic number  6 and mass  12.00000

 Molecular mass:    29.00274 amu.
 Principal axes and moments of inertia in atomic units:
                           1         2         3
     Eigenvalues --     2.49367  40.19430  42.68797
           X            0.08089   0.99672   0.00000
           Y            0.99672  -0.08089   0.00000
           Z            0.00000  -0.00000   1.00000
 This molecule is an asymmetric top.
 Rotational symmetry number  1.
 Rotational temperatures (Kelvin)     34.73348     2.15488     2.02900
 Rotational constants (GHZ):         723.72913    44.90043    42.27751
 Zero-point vibrational energy      36662.5 (Joules/Mol)
                                    8.76255 (Kcal/Mol)
 Vibrational temperatures:   1703.30  2400.28  4715.38
          (Kelvin)

 Zero-point correction=                           0.013964 (Hartree/Particle)
 Thermal correction to Energy=                    0.016817
 Thermal correction to Enthalpy=                  0.017761
 Thermal correction to Gibbs Free Energy=        -0.008073
 Sum of electronic and zero-point Energies=           -113.364258
 Sum of electronic and thermal Energies=              -113.361405
 Sum of electronic and thermal Enthalpies=            -113.360460
 Sum of electronic and thermal Free Energies=         -113.386295

                     E (Thermal)             CV                S
                      KCal/Mol        Cal/Mol-Kelvin    Cal/Mol-Kelvin
 Total                   10.553              6.218             54.372
 Electronic               0.000              0.000              2.183
 Translational            0.889              2.981             36.028
 Rotational               0.889              2.981             16.111
 Vibrational              8.775              0.257              0.050

 Optimization completed.
    -- Stationary point found.
 Normal termination of Gaussian 09 at Fri Mar  1 09:40:52 2019.
