 Gaussian 09, Revision E.01,
 Gaussian 09:  EM64L-G09RevE.01 30-Nov-2015

 ------------------------------------------------------
 #p b3lyp/6-311++G(3df,2p) freq IOp(2/17=3) IOp(2/18=3)
 ------------------------------------------------------

 ---------
 b3lyp opt
 ---------
 Symbolic Z-matrix:
 Charge =  1 Multiplicity = 3

                         Standard orientation:
 ---------------------------------------------------------------------
 Center     Atomic      Atomic             Coordinates (Angstroms)
 Number     Number       Type             X           Y           Z
 ---------------------------------------------------------------------
      1          1           0        0.000000    0.000000   -0.921200
      2          8           0        0.000000    0.000000    0.115150
 ---------------------------------------------------------------------

 SCF Done:  E(UB3LYP) =  -75.2778881961     A.U. after    9 cycles

 The electronic state is 3-SG.
 Alpha  occ. eigenvalues --  -19.81132  -1.56347  -0.97905  -0.94747  -0.94747
 Alpha virt. eigenvalues --   -0.32675  -0.14568  -0.11184  -0.11184  -0.08222
 Alpha virt. eigenvalues --   -0.02160   0.16446   0.23803   0.23803   0.35202
 Alpha virt. eigenvalues --    0.35202   0.54419   0.56279   0.56279   0.68048

  Beta  occ. eigenvalues --  -19.75470  -1.40979  -0.92567
  Beta virt. eigenvalues --   -0.64486  -0.64486  -0.31036  -0.13911  -0.08983
  Beta virt. eigenvalues --   -0.08983  -0.07853  -0.01475   0.16822   0.25440
  Beta virt. eigenvalues --    0.25440   0.40338   0.40338   0.56288   0.63483

 Mulliken charges and spin densities:
               1          2
     1  H    0.444142  -0.053250
     2  O    0.555858   2.053250
 Sum of Mulliken charges =   1.00000   2.00000

 Dipole moment (field-independent basis, Debye):
    X=              0.0000    Y=              0.0000    Z=             -2.0230  Tot=              2.0230
 Quadrupole moment (field-independent basis, Debye-Ang):
   XX=             -4.1093   YY=             -4.1093   ZZ=             -2.2586
   XY=              0.0000   XZ=              0.0000   YZ=              0.0000

  Exact polarizability:   3.366   0.000   3.366  -0.000  -0.000   5.052
 Approx polarizability:   3.858  -0.000   3.858  -0.000  -0.000   6.203

                      1
                     SG
 Frequencies --   3056.0618
 Red. masses --      1.0671
 Frc consts  --      5.8719
 IR Inten    --    262.0395

 - Thermochemistry -
 -------------------
 Temperature   298.150 Kelvin.  Pressure   1.00000 Atm.
 Atom     1 has atomic number  1 and mass   1.00783

 Molecular mass:    17.00274 amu.
 Principal axes and moments of inertia in atomic units:
                           1         2         3
     Eigenvalues --     0.00000   3.63629   3.63629
           X            0.00000  -0.00000   1.00000
           Y            0.00000   1.00000   0.00000
           Z            1.00000   0.00000   0.00000
 This molecule is a prolate symmetric top.
 Rotational symmetry number  1.
 Rotational temperature (Kelvin)     23.81927
 Rotational constant (GHZ):         496.313545
 Zero-point vibrational energy      18279.3 (Joules/Mol)
                                    4.36886 (Kcal/Mol)
 Vibrational temperatures:   4396.99
          (Kelvin)

 Zero-point correction=                           0.006962 (Hartree/Particle)
 Thermal correction to Energy=                    0.009323
 Thermal correction to Enthalpy=                  0.010267
 Thermal correction to Gibbs Free Energy=        -0.010463
 Sum of electronic and zero-point Energies=            -75.270926
 Sum of electronic and thermal Energies=               -75.268566
 Sum of electronic and thermal Enthalpies=             -75.267621
 Sum of electronic and thermal Free Energies=          -75.288351

                     E (Thermal)             CV                S
                      KCal/Mol        Cal/Mol-Kelvin    Cal/Mol-Kelvin
 Total                    5.850              4.968             43.629
 Electronic               0.000              0.000              2.183
 Translational            0.889              2.981             34.437
 Rotational               0.592              1.987              7.009
 Vibrational              4.369              0.000              0.000

 Optimization completed.
    -- Stationary point found.
 Normal termination of Gaussian 09 at Fri Mar  1 09:40:44 2019.
