 Gaussian 09, Revision E.01,
 Gaussian 09:  EM64L-G09RevE.01 30-Nov-2015

 ------------------------------------------------------
 #p b3lyp/6-311++G(3df,2p) freq IOp(2/17=3) IOp(2/18=3)
 ------------------------------------------------------

 ---------
 b3lyp opt
 ---------
 Symbolic Z-matrix:
 Charge =  0 Multiplicity = 2

                         Standard orientation:
 ---------------------------------------------------------------------
 Center     Atomic      Atomic             Coordinates (Angstroms)
 Number     Number       Type             X           Y           Z
 ---------------------------------------------------------------------
      1          1           0        0.000000    0.000000   -0.865809
      2          8           0        0.000000    0.000000    0.108226
 ---------------------------------------------------------------------

 SCF Done:  E(UB3LYP) =  -75.7656398654     A.U. after    9 cycles

 Unable to determine electronic state:  an orbital has unidentified symmetry.
 Alpha  occ. eigenvalues --  -19.20697  -1.02930  -0.48951  -0.42910  -0.35695
 Alpha virt. eigenvalues --   -0.01728   0.12275   0.13981   0.14862   0.15240
 Alpha virt. eigenvalues --    0.21219   0.48602   0.61550   0.63389   0.74458
 Alpha virt. eigenvalues --    0.74484   0.86988   0.94144   0.97846   1.04755

  Beta  occ. eigenvalues --  -19.18129  -0.95862  -0.46392  -0.33098
  Beta virt. eigenvalues --   -0.18521  -0.01389   0.12714   0.15131   0.15607
  Beta virt. eigenvalues --    0.16471   0.21692   0.49164   0.63384   0.63560
  Beta virt. eigenvalues --    0.77014   0.77355   0.88046   0.98910   1.01230

 Mulliken charges and spin densities:
               1          2
     1  H    0.259422  -0.029328
     2  O   -0.259422   1.029328
 Sum of Mulliken charges =   0.00000   1.00000

 Dipole moment (field-independent basis, Debye):
    X=              0.0000    Y=              0.0000    Z=             -1.6845  Tot=              1.6845
 Quadrupole moment (field-independent basis, Debye-Ang):
   XX=             -6.9385   YY=             -5.5815   ZZ=             -4.7184
   XY=              0.0000   XZ=              0.0000   YZ=              0.0000

  Exact polarizability:   6.653   0.000   5.216   0.000   0.000   8.006
 Approx polarizability:   7.084  -0.000   6.121  -0.000  -0.000  10.031

                      1
                     SG
 Frequencies --   3720.9318
 Red. masses --      1.0671
 Frc consts  --      8.7047
 IR Inten    --     13.9679

 - Thermochemistry -
 -------------------
 Temperature   298.150 Kelvin.  Pressure   1.00000 Atm.
 Atom     1 has atomic number  1 and mass   1.00783

 Molecular mass:    17.00274 amu.
 Principal axes and moments of inertia in atomic units:
                           1         2         3
     Eigenvalues --     0.00000   3.21214   3.21214
           X            0.00000  -0.00000   1.00000
           Y            0.00000   1.00000   0.00000
           Z            1.00000   0.00000   0.00000
 This molecule is a prolate symmetric top.
 Rotational symmetry number  1.
 Rotational temperature (Kelvin)     26.96449
 Rotational constant (GHZ):         561.849381
 Zero-point vibrational energy      22256.1 (Joules/Mol)
                                    5.31934 (Kcal/Mol)
 Vibrational temperatures:   5353.58
          (Kelvin)

 Zero-point correction=                           0.008477 (Hartree/Particle)
 Thermal correction to Energy=                    0.010837
 Thermal correction to Enthalpy=                  0.011782
 Thermal correction to Gibbs Free Energy=        -0.008448
 Sum of electronic and zero-point Energies=            -75.757163
 Sum of electronic and thermal Energies=               -75.754802
 Sum of electronic and thermal Enthalpies=             -75.753858
 Sum of electronic and thermal Free Energies=          -75.774088

                     E (Thermal)             CV                S
                      KCal/Mol        Cal/Mol-Kelvin    Cal/Mol-Kelvin
 Total                    6.801              4.968             42.577
 Electronic               0.000              0.000              1.377
 Translational            0.889              2.981             34.437
 Rotational               0.592              1.987              6.763
 Vibrational              5.319              0.000              0.000

 Optimization completed.
    -- Stationary point found.
 Normal termination of Gaussian 09 at Fri Mar  1 09:40:44 2019.
