 Gaussian 09, Revision E.01,
 Gaussian 09:  EM64L-G09RevE.01 30-Nov-2015

 ------------------------------------------------------
 #p b3lyp/6-311++G(3df,2p) freq IOp(2/17=3) IOp(2/18=3)
 ------------------------------------------------------

 ---------
 b3lyp opt
 ---------
 Symbolic Z-matrix:
 Charge =  1 Multiplicity = 1

                         Standard orientation:
 ---------------------------------------------------------------------
 Center     Atomic      Atomic             Coordinates (Angstroms)
 Number     Number       Type             X           Y           Z
 ---------------------------------------------------------------------
      1          1           0        0.000000    0.000000   -0.922064
      2          8           0        0.000000    0.000000    0.115258
 ---------------------------------------------------------------------

 SCF Done:  E(RB3LYP) =  -75.1678156562     A.U. after    7 cycles

 Unable to determine electronic state:  partially filled degenerate orbitals.
 Alpha  occ. eigenvalues --  -19.81406  -1.49964  -0.96477  -0.85269
 Alpha virt. eigenvalues --   -0.76393  -0.32438  -0.14759  -0.10879  -0.10606
 Alpha virt. eigenvalues --   -0.08229  -0.02097   0.16233   0.23311   0.25083
 Alpha virt. eigenvalues --    0.36981   0.37329   0.54873   0.58135   0.59765

 Mulliken charges:
               1
     1  H    0.453536
     2  O    0.546464
 Sum of Mulliken charges =   1.00000

 Dipole moment (field-independent basis, Debye):
    X=              0.0000    Y=              0.0000    Z=             -2.0411  Tot=              2.0411
 Quadrupole moment (field-independent basis, Debye-Ang):
   XX=             -3.3144   YY=             -5.1311   ZZ=             -2.2496
   XY=              0.0000   XZ=              0.0000   YZ=              0.0000

  Exact polarizability:   3.273   0.000   3.296  -0.000   0.000   5.047
 Approx polarizability:   4.863  -0.000   3.499  -0.000  -0.000   6.268

                      1
                     SG
 Frequencies --   3057.8345
 Red. masses --      1.0671
 Frc consts  --      5.8787
 IR Inten    --    295.8766

 - Thermochemistry -
 -------------------
 Temperature   298.150 Kelvin.  Pressure   1.00000 Atm.
 Atom     1 has atomic number  1 and mass   1.00783

 Molecular mass:    17.00274 amu.
 Principal axes and moments of inertia in atomic units:
                           1         2         3
     Eigenvalues --     0.00000   3.64312   3.64312
           X            0.00000  -0.00000   1.00000
           Y            0.00000   1.00000   0.00000
           Z            1.00000   0.00000   0.00000
 This molecule is a prolate symmetric top.
 Rotational symmetry number  1.
 Rotational temperature (Kelvin)     23.77465
 Rotational constant (GHZ):         495.383862
 Zero-point vibrational energy      18289.9 (Joules/Mol)
                                    4.37139 (Kcal/Mol)
 Vibrational temperatures:   4399.54
          (Kelvin)

 Zero-point correction=                           0.006966 (Hartree/Particle)
 Thermal correction to Energy=                    0.009327
 Thermal correction to Enthalpy=                  0.010271
 Thermal correction to Gibbs Free Energy=        -0.009423
 Sum of electronic and zero-point Energies=            -75.160849
 Sum of electronic and thermal Energies=               -75.158489
 Sum of electronic and thermal Enthalpies=             -75.157545
 Sum of electronic and thermal Free Energies=          -75.177239

                     E (Thermal)             CV                S
                      KCal/Mol        Cal/Mol-Kelvin    Cal/Mol-Kelvin
 Total                    5.853              4.968             41.449
 Electronic               0.000              0.000              0.000
 Translational            0.889              2.981             34.437
 Rotational               0.592              1.987              7.013
 Vibrational              4.371              0.000              0.000

 Optimization completed.
    -- Stationary point found.
 Normal termination of Gaussian 09 at Sun Mar  3 08:40:23 2019.
