 Gaussian 09, Revision E.01,
 Gaussian 09:  EM64L-G09RevE.01 30-Nov-2015

 ------------------------------------------------------
 #p b3lyp/6-311++G(3df,2p) freq IOp(2/17=3) IOp(2/18=3)
 ------------------------------------------------------

 ---------
 b3lyp opt
 ---------
 Symbolic Z-matrix:
 Charge =  0 Multiplicity = 3

                         Standard orientation:
 ---------------------------------------------------------------------
 Center     Atomic      Atomic             Coordinates (Angstroms)
 Number     Number       Type             X           Y           Z
 ---------------------------------------------------------------------
      1          8           0        0.000000    0.000000    0.000000
 ---------------------------------------------------------------------

 SCF Done:  E(UB3LYP) =  -75.0909148324     A.U. after    9 cycles

 Unable to determine electronic state:  an orbital has unidentified symmetry.
 Alpha  occ. eigenvalues --  -19.27791  -1.02487  -0.46633  -0.46633  -0.39164
 Alpha virt. eigenvalues --    0.08067   0.14025   0.14025   0.14710   0.71559
 Alpha virt. eigenvalues --    0.71559   0.73783   0.73783   0.74550   0.92420
 Alpha virt. eigenvalues --    0.92420   0.96243   1.14999   3.18291   3.18291

  Beta  occ. eigenvalues --  -19.22610  -0.86648  -0.34105
  Beta virt. eigenvalues --   -0.18953  -0.18953   0.09430   0.15123   0.16633
  Beta virt. eigenvalues --    0.16633   0.76325   0.76325   0.76620   0.76976
  Beta virt. eigenvalues --    0.76977   0.98447   1.01193   1.01193   1.21921

 Mulliken charges and spin densities:
               1          2
     1  O   -0.000000   2.000000
 Sum of Mulliken charges =  -0.00000   2.00000

 Dipole moment (field-independent basis, Debye):
    X=              0.0000    Y=              0.0000    Z=              0.0000  Tot=              0.0000
 Quadrupole moment (field-independent basis, Debye-Ang):
   XX=             -4.7606   YY=             -4.7606   ZZ=             -6.0601
   XY=             -0.0000   XZ=             -0.0000   YZ=              0.0000

  Exact polarizability:   4.308   0.000   4.308  -0.000  -0.000   5.197
 Approx polarizability:   4.969  -0.000   4.969  -0.000  -0.000   5.294

 - Thermochemistry -
 -------------------
 Temperature   298.150 Kelvin.  Pressure   1.00000 Atm.
 Atom     1 has atomic number  8 and mass  15.99491
 Molecular mass:    15.99491 amu.
 Zero-point vibrational energy          0.0 (Joules/Mol)
                                    0.00000 (Kcal/Mol)
 Vibrational temperatures:
          (Kelvin)

 Zero-point correction=                           0.000000 (Hartree/Particle)
 Thermal correction to Energy=                    0.001416
 Thermal correction to Enthalpy=                  0.002360
 Thermal correction to Gibbs Free Energy=        -0.014952
 Sum of electronic and zero-point Energies=            -75.090915
 Sum of electronic and thermal Energies=               -75.089499
 Sum of electronic and thermal Enthalpies=             -75.088554
 Sum of electronic and thermal Free Energies=          -75.105867

                     E (Thermal)             CV                S
                      KCal/Mol        Cal/Mol-Kelvin    Cal/Mol-Kelvin
 Total                    0.889              2.981             36.438
 Electronic               0.000              0.000              2.183
 Translational            0.889              2.981             34.255
 Rotational               0.000              0.000              0.000
 Vibrational              0.000              0.000              0.000

 Optimization completed.
    -- Stationary point found.
 Normal termination of Gaussian 09 at Fri Mar  1 09:40:58 2019.
