 Gaussian 09, Revision E.01,
 Gaussian 09:  EM64L-G09RevE.01 30-Nov-2015

 ------------------------------------------------------
 #p b3lyp/6-311++G(3df,2p) freq IOp(2/17=3) IOp(2/18=3)
 ------------------------------------------------------

 ---------
 b3lyp opt
 ---------
 Symbolic Z-matrix:
 Charge =  0 Multiplicity = 1

                         Standard orientation:
 ---------------------------------------------------------------------
 Center     Atomic      Atomic             Coordinates (Angstroms)
 Number     Number       Type             X           Y           Z
 ---------------------------------------------------------------------
      1          8           0        0.000000    0.000000    0.000000
 ---------------------------------------------------------------------

 SCF Done:  E(RB3LYP) =  -74.9898876179     A.U. after    8 cycles

 Unable to determine electronic state:  an orbital has unidentified symmetry.
 Alpha  occ. eigenvalues --  -19.28714  -0.96348  -0.38229  -0.38229
 Alpha virt. eigenvalues --   -0.30019   0.08297   0.14576   0.14667   0.14667
 Alpha virt. eigenvalues --    0.73114   0.73358   0.73358   0.75638   0.75638
 Alpha virt. eigenvalues --    0.94750   0.96431   0.96431   1.17297   3.24069

 Mulliken charges:
               1
     1  O   -0.000000
 Sum of Mulliken charges =  -0.00000

 Dipole moment (field-independent basis, Debye):
    X=              0.0000    Y=              0.0000    Z=              0.0000  Tot=              0.0000
 Quadrupole moment (field-independent basis, Debye-Ang):
   XX=             -3.8334   YY=             -6.0544   ZZ=             -6.0544
   XY=              0.0000   XZ=             -0.0000   YZ=              0.0000

  Exact polarizability:   3.858   0.000   5.043  -0.000  -0.000   5.043
 Approx polarizability:   5.738  -0.000   5.231  -0.000  -0.000   5.231

 - Thermochemistry -
 -------------------
 Temperature   298.150 Kelvin.  Pressure   1.00000 Atm.
 Atom     1 has atomic number  8 and mass  15.99491
 Molecular mass:    15.99491 amu.
 Zero-point vibrational energy          0.0 (Joules/Mol)
                                    0.00000 (Kcal/Mol)
 Vibrational temperatures:
          (Kelvin)

 Zero-point correction=                           0.000000 (Hartree/Particle)
 Thermal correction to Energy=                    0.001416
 Thermal correction to Enthalpy=                  0.002360
 Thermal correction to Gibbs Free Energy=        -0.013915
 Sum of electronic and zero-point Energies=            -74.989888
 Sum of electronic and thermal Energies=               -74.988471
 Sum of electronic and thermal Enthalpies=             -74.987527
 Sum of electronic and thermal Free Energies=          -75.003803

                     E (Thermal)             CV                S
                      KCal/Mol        Cal/Mol-Kelvin    Cal/Mol-Kelvin
 Total                    0.889              2.981             34.255
 Electronic               0.000              0.000              0.000
 Translational            0.889              2.981             34.255
 Rotational               0.000              0.000              0.000
 Vibrational              0.000              0.000              0.000

 Optimization completed.
    -- Stationary point found.
 Normal termination of Gaussian 09 at Fri Mar  1 09:40:42 2019.
