 Gaussian 09, Revision E.01,
 Gaussian 09:  EM64L-G09RevE.01 30-Nov-2015

 ------------------------------------------------------
 #p b3lyp/6-311++G(3df,2p) freq IOp(2/17=3) IOp(2/18=3)
 ------------------------------------------------------

 ---------
 b3lyp opt
 ---------
 Symbolic Z-matrix:
 Charge =  1 Multiplicity = 4

                         Standard orientation:
 ---------------------------------------------------------------------
 Center     Atomic      Atomic             Coordinates (Angstroms)
 Number     Number       Type             X           Y           Z
 ---------------------------------------------------------------------
      1          8           0        0.000000    0.000000    0.000000
 ---------------------------------------------------------------------

 SCF Done:  E(UB3LYP) =  -74.5704542515     A.U. after    9 cycles

 The electronic state is 4-A1G.
 Alpha  occ. eigenvalues --  -19.96748  -1.63368  -1.04518  -1.04518  -1.04518
 Alpha virt. eigenvalues --   -0.20241  -0.11242  -0.11242  -0.11242   0.32527
 Alpha virt. eigenvalues --    0.32527   0.32527   0.32527   0.32527   0.52312
 Alpha virt. eigenvalues --    0.52312   0.52312   0.70201   2.64018   2.64018

  Beta  occ. eigenvalues --  -19.88128  -1.38111
  Beta virt. eigenvalues --   -0.70559  -0.70559  -0.70559  -0.18414  -0.09329
  Beta virt. eigenvalues --   -0.09329  -0.09329   0.37514   0.37514   0.37514
  Beta virt. eigenvalues --    0.37514   0.37514   0.60310   0.60310   0.60310

 Mulliken charges and spin densities:
               1          2
     1  O    1.000000   3.000000
 Sum of Mulliken charges =   1.00000   3.00000

 Dipole moment (field-independent basis, Debye):
    X=              0.0000    Y=              0.0000    Z=              0.0000  Tot=              0.0000
 Quadrupole moment (field-independent basis, Debye-Ang):
   XX=             -3.3628   YY=             -3.3628   ZZ=             -3.3628
   XY=             -0.0000   XZ=             -0.0000   YZ=              0.0000

  Exact polarizability:   2.585   0.000   2.585  -0.000  -0.000   2.585
 Approx polarizability:   2.920  -0.000   2.920  -0.000  -0.000   2.920

 - Thermochemistry -
 -------------------
 Temperature   298.150 Kelvin.  Pressure   1.00000 Atm.
 Atom     1 has atomic number  8 and mass  15.99491
 Molecular mass:    15.99491 amu.
 Zero-point vibrational energy          0.0 (Joules/Mol)
                                    0.00000 (Kcal/Mol)
 Vibrational temperatures:
          (Kelvin)

 Zero-point correction=                           0.000000 (Hartree/Particle)
 Thermal correction to Energy=                    0.001416
 Thermal correction to Enthalpy=                  0.002360
 Thermal correction to Gibbs Free Energy=        -0.015224
 Sum of electronic and zero-point Energies=            -74.570454
 Sum of electronic and thermal Energies=               -74.569038
 Sum of electronic and thermal Enthalpies=             -74.568094
 Sum of electronic and thermal Free Energies=          -74.585678

                     E (Thermal)             CV                S
                      KCal/Mol        Cal/Mol-Kelvin    Cal/Mol-Kelvin
 Total                    0.889              2.981             37.009
 Electronic               0.000              0.000              2.755
 Translational            0.889              2.981             34.255
 Rotational               0.000              0.000              0.000
 Vibrational              0.000              0.000              0.000

 Optimization completed.
    -- Stationary point found.
 Normal termination of Gaussian 09 at Fri Mar  1 09:40:57 2019.
