 Gaussian 09, Revision E.01,
 Gaussian 09:  EM64L-G09RevE.01 30-Nov-2015

 ------------------------------------------------------
 #p b3lyp/6-311++G(3df,2p) freq IOp(2/17=3) IOp(2/18=3)
 ------------------------------------------------------

 ---------
 b3lyp opt
 ---------
 Symbolic Z-matrix:
 Charge =  1 Multiplicity = 2

                         Standard orientation:
 ---------------------------------------------------------------------
 Center     Atomic      Atomic             Coordinates (Angstroms)
 Number     Number       Type             X           Y           Z
 ---------------------------------------------------------------------
      1          8           0        0.000000    0.000000    0.000000
 ---------------------------------------------------------------------

 SCF Done:  E(UB3LYP) =  -74.4281435889     A.U. after    9 cycles

 Unable to determine electronic state:  an orbital has unidentified symmetry.
 Alpha  occ. eigenvalues --  -19.98273  -1.57294  -1.04047  -0.95328
 Alpha virt. eigenvalues --   -0.86251  -0.20413  -0.11692  -0.11424  -0.11150
 Alpha virt. eigenvalues --    0.31825   0.32159   0.33935   0.34115   0.34927
 Alpha virt. eigenvalues --    0.52046   0.53635   0.55356   0.71847   2.63897

  Beta  occ. eigenvalues --  -19.95269  -1.48422  -0.92484
  Beta virt. eigenvalues --   -0.83004  -0.74660  -0.19769  -0.11205  -0.11032
  Beta virt. eigenvalues --   -0.10080   0.33824   0.34066   0.34697   0.36398
  Beta virt. eigenvalues --    0.36768   0.54696   0.56219   0.58493   0.75101

 Mulliken charges and spin densities:
               1          2
     1  O    1.000000   1.000000
 Sum of Mulliken charges =   1.00000   1.00000

 Dipole moment (field-independent basis, Debye):
    X=              0.0000    Y=              0.0000    Z=              0.0000  Tot=              0.0000
 Quadrupole moment (field-independent basis, Debye-Ang):
   XX=             -2.6413   YY=             -3.4201   ZZ=             -4.3047
   XY=              0.0000   XZ=             -0.0000   YZ=              0.0000

  Exact polarizability:   2.607   0.000   2.563  -0.000  -0.000   2.290
 Approx polarizability:   3.831  -0.000   2.845  -0.000  -0.000   2.318

 - Thermochemistry -
 -------------------
 Temperature   298.150 Kelvin.  Pressure   1.00000 Atm.
 Atom     1 has atomic number  8 and mass  15.99491
 Molecular mass:    15.99491 amu.
 Zero-point vibrational energy          0.0 (Joules/Mol)
                                    0.00000 (Kcal/Mol)
 Vibrational temperatures:
          (Kelvin)

 Zero-point correction=                           0.000000 (Hartree/Particle)
 Thermal correction to Energy=                    0.001416
 Thermal correction to Enthalpy=                  0.002360
 Thermal correction to Gibbs Free Energy=        -0.014569
 Sum of electronic and zero-point Energies=            -74.428144
 Sum of electronic and thermal Energies=               -74.426727
 Sum of electronic and thermal Enthalpies=             -74.425783
 Sum of electronic and thermal Free Energies=          -74.442713

                     E (Thermal)             CV                S
                      KCal/Mol        Cal/Mol-Kelvin    Cal/Mol-Kelvin
 Total                    0.889              2.981             35.632
 Electronic               0.000              0.000              1.377
 Translational            0.889              2.981             34.255
 Rotational               0.000              0.000              0.000
 Vibrational              0.000              0.000              0.000

 Optimization completed.
    -- Stationary point found.
 Normal termination of Gaussian 09 at Fri Mar  1 09:40:58 2019.
