 Gaussian 09, Revision E.01,
 Gaussian 09:  EM64L-G09RevE.01 30-Nov-2015

 ------------------------------
 #p b3lyp/6-311++G(3df,2p) freq
 ------------------------------

 ---------
 b3lyp opt
 ---------
 Symbolic Z-matrix:
 Charge =  2 Multiplicity = 3

                         Standard orientation:
 ---------------------------------------------------------------------
 Center     Atomic      Atomic             Coordinates (Angstroms)
 Number     Number       Type             X           Y           Z
 ---------------------------------------------------------------------
      1         16           0       -0.000000    0.000311    0.000000
      2          6           0        1.651051   -0.353720    0.000000
      3          6           0       -1.651051    0.352891   -0.000000
 ---------------------------------------------------------------------

 SCF Done:  E(UB3LYP) =  -473.062297116     A.U. after   17 cycles

 The electronic state is 3-A".
 Alpha  occ. eigenvalues --  -89.53460 -10.96935 -10.96931  -8.61408  -6.57964
 Alpha  occ. eigenvalues --   -6.57160  -6.57029  -1.43842  -1.30318  -1.05132
 Alpha  occ. eigenvalues --   -0.95698  -0.94086  -0.92247  -0.85330
 Alpha virt. eigenvalues --   -0.76558  -0.67590  -0.65638  -0.63110  -0.35883
 Alpha virt. eigenvalues --   -0.30514  -0.30480  -0.27833  -0.27662  -0.27555
 Alpha virt. eigenvalues --   -0.25227  -0.23505  -0.21678  -0.21615  -0.21040

  Beta  occ. eigenvalues --  -89.53721 -10.94700 -10.94695  -8.61690  -6.57776
  Beta  occ. eigenvalues --   -6.57759  -6.57538  -1.42822  -1.26055  -0.95878
  Beta  occ. eigenvalues --   -0.92573  -0.91905
  Beta virt. eigenvalues --   -0.79590  -0.73145  -0.69908  -0.63250  -0.60804
  Beta virt. eigenvalues --   -0.58246  -0.35056  -0.31557  -0.31530  -0.27643
  Beta virt. eigenvalues --   -0.27208  -0.27029  -0.22763  -0.22428  -0.21425

 Mulliken charges and spin densities:
               1          2
     1  S    0.149930  -0.110201
     2  C    0.924993   1.054801
     3  C    0.925077   1.055400
 Sum of Mulliken charges =   2.00000   2.00000

 Dipole moment (field-independent basis, Debye):
    X=             -0.0002    Y=             -0.0018    Z=             -0.0000  Tot=              0.0019
 Quadrupole moment (field-independent basis, Debye-Ang):
   XX=              3.3990   YY=            -16.5491   ZZ=            -18.9007
   XY=             -4.4735   XZ=              0.0000   YZ=             -0.0000

  Exact polarizability:  68.135 -10.231  22.513   0.000   0.000  19.364
 Approx polarizability: 254.080 -47.345  42.959   0.000  -0.000  29.680

 ******    2 imaginary frequencies (negative Signs) ******

                      1                      2                      3
                     A'                     A'                     A'
 Frequencies --   -737.2707              -145.7867               748.3116
 Red. masses --     16.3901                16.3901                12.0000
 Frc consts  --      5.2491                 0.2052                 3.9591
 IR Inten    --      7.5241                20.6589                 0.0001

 - Thermochemistry -
 -------------------
 Temperature   298.150 Kelvin.  Pressure   1.00000 Atm.
 Atom     1 has atomic number 16 and mass  31.97207

 Molecular mass:    55.97207 amu.
 Principal axes and moments of inertia in atomic units:
                           1         2         3
     Eigenvalues --     0.00002 244.32894 244.32896
           X            0.97786   0.20925  -0.00000
           Y           -0.20925   0.97786  -0.00000
           Z            0.00000   0.00000   1.00000
 This molecule is an asymmetric top.
 Rotational symmetry number  1.
 Rotational temperatures (Kelvin) ************     0.35450     0.35450
 Rotational constants (GHZ):      ************     7.38652     7.38652
    2 imaginary frequencies ignored.
 Zero-point vibrational energy       4475.9 (Joules/Mol)
                                    1.06977 (Kcal/Mol)
 Vibrational temperatures:   1076.65
          (Kelvin)

 Zero-point correction=                           0.001705 (Hartree/Particle)
 Thermal correction to Energy=                    0.004632
 Thermal correction to Enthalpy=                  0.005576
 Thermal correction to Gibbs Free Energy=        -0.017520
 Sum of electronic and zero-point Energies=           -473.060592
 Sum of electronic and thermal Energies=              -473.057665
 Sum of electronic and thermal Enthalpies=            -473.056721
 Sum of electronic and thermal Free Energies=         -473.079818

                     E (Thermal)             CV                S
                      KCal/Mol        Cal/Mol-Kelvin    Cal/Mol-Kelvin
 Total                    2.907              6.701             48.611
 Electronic               0.000              0.000              2.183
 Translational            0.889              2.981             37.988
 Rotational               0.889              2.981              8.186
 Vibrational              1.129              0.740              0.254

 Optimization completed.
    -- Stationary point found.
 Normal termination of Gaussian 09 at Wed Aug  3 20:46:09 2016.
