 Gaussian 09, Revision E.01,
 Gaussian 09:  EM64L-G09RevE.01 30-Nov-2015

 ------------------------------
 #p b3lyp/6-311++G(3df,2p) freq
 ------------------------------

 ---------
 b3lyp opt
 ---------
 Symbolic Z-matrix:
 Charge =  2 Multiplicity = 1

                         Standard orientation:
 ---------------------------------------------------------------------
 Center     Atomic      Atomic             Coordinates (Angstroms)
 Number     Number       Type             X           Y           Z
 ---------------------------------------------------------------------
      1         16           0        0.000000    0.000379   -0.000000
      2          6           0        1.756293   -0.004563    0.000000
      3          6           0       -1.756293    0.003553   -0.000000
 ---------------------------------------------------------------------

 SCF Done:  E(RB3LYP) =  -473.107748450     A.U. after   11 cycles

 The electronic state is 1-A'.
 Alpha  occ. eigenvalues --  -89.50612 -10.98355 -10.98353  -8.58976  -6.55104
 Alpha  occ. eigenvalues --   -6.54846  -6.54846  -1.41302  -1.27330  -1.02384
 Alpha  occ. eigenvalues --   -0.90878  -0.90878  -0.90086
 Alpha virt. eigenvalues --   -0.75076  -0.75076  -0.67817  -0.63632  -0.63632
 Alpha virt. eigenvalues --   -0.35886  -0.30741  -0.30740  -0.30564  -0.27555
 Alpha virt. eigenvalues --   -0.27555  -0.26457  -0.22855  -0.21476  -0.21476

 Mulliken charges:
               1
     1  S   -0.067595
     2  C    1.033797
     3  C    1.033798
 Sum of Mulliken charges =   2.00000

 Dipole moment (field-independent basis, Debye):
    X=              0.0000    Y=             -0.0018    Z=              0.0000  Tot=              0.0018
 Quadrupole moment (field-independent basis, Debye-Ang):
   XX=              2.3474   YY=            -18.0138   ZZ=            -18.0140
   XY=             -0.0470   XZ=              0.0000   YZ=              0.0000

  Exact polarizability:  65.147  -0.094  22.316   0.000  -0.000  22.316
 Approx polarizability: 291.496  -0.589  36.751   0.000  -0.000  36.749

 ******    1 imaginary frequencies (negative Signs) ******

                      1                      2                      3
                     A'                     A'                     A'
 Frequencies --   -175.1617               684.4717               727.1475
 Red. masses --     16.3901                16.3901                12.0000
 Frc consts  --      0.2963                 4.5242                 3.7383
 IR Inten    --     12.7315               920.7376                 0.0002

 - Thermochemistry -
 -------------------
 Temperature   298.150 Kelvin.  Pressure   1.00000 Atm.
 Atom     1 has atomic number 16 and mass  31.97207

 Molecular mass:    55.97207 amu.
 Principal axes and moments of inertia in atomic units:
                           1         2         3
     Eigenvalues --     0.00004 264.36586 264.36590
           X            1.00000   0.00231  -0.00000
           Y           -0.00231   1.00000   0.00000
           Z            0.00000  -0.00000   1.00000
 This molecule is an asymmetric top.
 Rotational symmetry number  1.
 Rotational temperatures (Kelvin) ************     0.32763     0.32763
 Rotational constants (GHZ):      ************     6.82668     6.82668
    1 imaginary frequencies ignored.
 Zero-point vibrational energy       8443.4 (Joules/Mol)
                                    2.01801 (Kcal/Mol)
 Vibrational temperatures:    984.80  1046.20
          (Kelvin)

 Zero-point correction=                           0.003216 (Hartree/Particle)
 Thermal correction to Energy=                    0.006270
 Thermal correction to Enthalpy=                  0.007214
 Thermal correction to Gibbs Free Energy=        -0.015293
 Sum of electronic and zero-point Energies=           -473.104533
 Sum of electronic and thermal Energies=              -473.101479
 Sum of electronic and thermal Enthalpies=            -473.100535
 Sum of electronic and thermal Free Energies=         -473.123041

                     E (Thermal)             CV                S
                      KCal/Mol        Cal/Mol-Kelvin    Cal/Mol-Kelvin
 Total                    3.934              7.599             47.369
 Electronic               0.000              0.000              0.000
 Translational            0.889              2.981             37.988
 Rotational               0.889              2.981              8.781
 Vibrational              2.157              1.637              0.601

 Optimization completed.
    -- Stationary point found.
 Normal termination of Gaussian 09 at Wed Aug  3 20:45:54 2016.
