 Gaussian 09, Revision E.01,
 Gaussian 09:  EM64L-G09RevE.01 30-Nov-2015

 ------------------------------
 #p b3lyp/6-311++G(3df,2p) freq
 ------------------------------

 ---------
 b3lyp opt
 ---------
 Symbolic Z-matrix:
 Charge =  0 Multiplicity = 1

                         Standard orientation:
 ---------------------------------------------------------------------
 Center     Atomic      Atomic             Coordinates (Angstroms)
 Number     Number       Type             X           Y           Z
 ---------------------------------------------------------------------
      1         16           0       -0.000000    0.000000   -0.000001
      2          6           0       -0.000000    0.000000    1.632374
      3          6           0        0.000000   -0.000000   -1.632370
 ---------------------------------------------------------------------

 SCF Done:  E(RB3LYP) =  -474.106189112     A.U. after   10 cycles

 Unable to determine electronic state:  partially filled degenerate orbitals.
 Alpha  occ. eigenvalues --  -88.95632 -10.30333 -10.30328  -8.04184  -6.00169
 Alpha  occ. eigenvalues --   -6.00164  -6.00084  -0.89396  -0.72920  -0.43774
 Alpha  occ. eigenvalues --   -0.40583  -0.40391  -0.34135  -0.25209
 Alpha virt. eigenvalues --   -0.20255  -0.10631  -0.06848  -0.06356   0.02648
 Alpha virt. eigenvalues --    0.03454   0.04333   0.04632   0.06556   0.08964
 Alpha virt. eigenvalues --    0.09018   0.11327   0.13478   0.13640   0.15319

 Mulliken charges:
               1
     1  S   -0.071800
     2  C    0.035901
     3  C    0.035900
 Sum of Mulliken charges =  -0.00000

 Dipole moment (field-independent basis, Debye):
    X=             -0.0000    Y=              0.0000    Z=              0.0000  Tot=              0.0000
 Quadrupole moment (field-independent basis, Debye-Ang):
   XX=            -22.4363   YY=            -26.3419   ZZ=            -30.8899
   XY=             -0.0000   XZ=             -0.0000   YZ=             -0.0000

  Exact polarizability:  31.540   0.000  31.523  -0.000  -0.000  81.650
 Approx polarizability:  52.820  -0.000  47.548  -0.000   0.000 256.242

 ******    1 imaginary frequencies (negative Signs) ******

                      1                      2                      3
                     PI                     PI                     SG
 Frequencies --    -99.7015               156.6461               855.4176
 Red. masses --     16.3901                16.3901                12.0000
 Frc consts  --      0.0960                 0.2370                 5.1735
 IR Inten    --      6.2943                 0.0055                 0.0002

                      4
                     SG
 Frequencies --    861.1906
 Red. masses --     16.3901
 Frc consts  --      7.1619
 IR Inten    --     69.8865

 - Thermochemistry -
 -------------------
 Temperature   298.150 Kelvin.  Pressure   1.00000 Atm.
 Atom     1 has atomic number 16 and mass  31.97207

 Molecular mass:    55.97207 amu.
 Principal axes and moments of inertia in atomic units:
                           1         2         3
     Eigenvalues --     0.00000 228.37434 228.37434
           X           -0.00000   0.99596  -0.08981
           Y            0.00000   0.08981   0.99596
           Z            1.00000   0.00000  -0.00000
 This molecule is a prolate symmetric top.
 Rotational symmetry number  1.
 Rotational temperature (Kelvin)      0.37926
 Rotational constant (GHZ):           7.902557
    1 imaginary frequencies ignored.
 Zero-point vibrational energy      11204.5 (Joules/Mol)
                                    2.67795 (Kcal/Mol)
 Warning -- explicit consideration of   1 degrees of freedom as
           vibrations may cause significant error
 Vibrational temperatures:    225.38  1230.75  1239.06
          (Kelvin)

 Zero-point correction=                           0.004268 (Hartree/Particle)
 Thermal correction to Energy=                    0.007386
 Thermal correction to Enthalpy=                  0.008330
 Thermal correction to Gibbs Free Energy=        -0.018345
 Sum of electronic and zero-point Energies=           -474.101922
 Sum of electronic and thermal Energies=              -474.098803
 Sum of electronic and thermal Enthalpies=            -474.097859
 Sum of electronic and thermal Free Energies=         -474.124534

                     E (Thermal)             CV                S
                      KCal/Mol        Cal/Mol-Kelvin    Cal/Mol-Kelvin
 Total                    4.635              7.982             56.144
 Electronic               0.000              0.000              0.000
 Translational            0.889              2.981             37.988
 Rotational               0.592              1.987             15.236
 Vibrational              3.154              3.014              2.919
 Vibration     1          0.620              1.895              2.590

 Optimization completed.
    -- Stationary point found.
 Normal termination of Gaussian 09 at Wed Aug  3 20:40:54 2016.
