 Gaussian 09, Revision E.01,
 Gaussian 09:  EM64L-G09RevE.01 30-Nov-2015

 ------------------------------
 #p b3lyp/6-311++G(3df,2p) freq
 ------------------------------

 ---------
 b3lyp opt
 ---------
 Symbolic Z-matrix:
 Charge =  1 Multiplicity = 2

                         Standard orientation:
 ---------------------------------------------------------------------
 Center     Atomic      Atomic             Coordinates (Angstroms)
 Number     Number       Type             X           Y           Z
 ---------------------------------------------------------------------
      1         16           0        0.000000    0.000300    0.000000
      2          6           0        1.683744   -0.050627   -0.000000
      3          6           0       -1.683744    0.049826    0.000000
 ---------------------------------------------------------------------

 SCF Done:  E(UB3LYP) =  -473.763602635     A.U. after   13 cycles

 The electronic state is 2-A".
 Alpha  occ. eigenvalues --  -89.22318 -10.62938 -10.62934  -8.30946  -6.27023
 Alpha  occ. eigenvalues --   -6.26822  -6.26698  -1.15602  -1.01111  -0.73179
 Alpha  occ. eigenvalues --   -0.66759  -0.65409  -0.61951  -0.55667
 Alpha virt. eigenvalues --   -0.47392  -0.38123  -0.36932  -0.34219  -0.16051
 Alpha virt. eigenvalues --   -0.11121  -0.11067  -0.10789  -0.07685  -0.07456
 Alpha virt. eigenvalues --   -0.07409  -0.06029  -0.05876  -0.03822  -0.00460

  Beta  occ. eigenvalues --  -89.22496 -10.61996 -10.61993  -8.31095  -6.27127
  Beta  occ. eigenvalues --   -6.27126  -6.26978  -1.14856  -0.98375  -0.70877
  Beta  occ. eigenvalues --   -0.65482  -0.64649  -0.60446
  Beta virt. eigenvalues --   -0.46161  -0.43153  -0.37649  -0.33541  -0.31170
  Beta virt. eigenvalues --   -0.15939  -0.11070  -0.10677  -0.10522  -0.07753
  Beta virt. eigenvalues --   -0.07706  -0.07549  -0.05801  -0.05423  -0.03619

 Mulliken charges and spin densities:
               1          2
     1  S   -0.137032  -0.140651
     2  C    0.568514   0.570375
     3  C    0.568519   0.570276
 Sum of Mulliken charges =   1.00000   1.00000

 Dipole moment (field-independent basis, Debye):
    X=              0.0002    Y=             -0.0002    Z=             -0.0000  Tot=              0.0003
 Quadrupole moment (field-independent basis, Debye-Ang):
   XX=            -14.6292   YY=            -19.9325   ZZ=            -21.5280
   XY=             -0.1583   XZ=              0.0000   YZ=             -0.0000

  Exact polarizability:  68.128  -1.257  26.032  -0.000   0.000  25.779
 Approx polarizability: 231.487  -5.617  43.358  -0.000   0.000  39.194

 ******    1 imaginary frequencies (negative Signs) ******

                      1                      2                      3
                     A'                     A'                     A'
 Frequencies --   -159.1252               471.7269               787.8122
 Red. masses --     16.3901                16.3901                12.0000
 Frc consts  --      0.2445                 2.1489                 4.3881
 IR Inten    --      0.2007               353.7597                 0.0001

 - Thermochemistry -
 -------------------
 Temperature   298.150 Kelvin.  Pressure   1.00000 Atm.
 Atom     1 has atomic number 16 and mass  31.97207

 Molecular mass:    55.97207 amu.
 Principal axes and moments of inertia in atomic units:
                           1         2         3
     Eigenvalues --     0.00002 243.19091 243.19093
           X            0.99956   0.02982   0.00000
           Y           -0.02982   0.99956  -0.00000
           Z           -0.00000   0.00000   1.00000
 This molecule is an asymmetric top.
 Rotational symmetry number  1.
 Rotational temperatures (Kelvin) ************     0.35616     0.35616
 Rotational constants (GHZ):      ************     7.42109     7.42109
    1 imaginary frequencies ignored.
 Zero-point vibrational energy       7533.7 (Joules/Mol)
                                    1.80060 (Kcal/Mol)
 Warning -- explicit consideration of   1 degrees of freedom as
           vibrations may cause significant error
 Vibrational temperatures:    678.71  1133.48
          (Kelvin)

 Zero-point correction=                           0.002869 (Hartree/Particle)
 Thermal correction to Energy=                    0.006030
 Thermal correction to Enthalpy=                  0.006974
 Thermal correction to Gibbs Free Energy=        -0.016054
 Sum of electronic and zero-point Energies=           -473.760733
 Sum of electronic and thermal Energies=              -473.757573
 Sum of electronic and thermal Enthalpies=            -473.756629
 Sum of electronic and thermal Free Energies=         -473.779657

                     E (Thermal)             CV                S
                      KCal/Mol        Cal/Mol-Kelvin    Cal/Mol-Kelvin
 Total                    3.784              7.945             48.467
 Electronic               0.000              0.000              1.377
 Translational            0.889              2.981             37.988
 Rotational               0.889              2.981              8.151
 Vibrational              2.006              1.984              0.950
 Vibration     1          0.829              1.313              0.733

 Optimization completed.
    -- Stationary point found.
 Normal termination of Gaussian 09 at Wed Aug  3 20:44:49 2016.
