 Gaussian 09, Revision E.01,
 Gaussian 09:  EM64L-G09RevE.01 30-Nov-2015

 ------------------------------
 #p b3lyp/6-311++G(3df,2p) freq
 ------------------------------

 ---------
 b3lyp opt
 ---------
 Symbolic Z-matrix:
 Charge =  2 Multiplicity = 1

                         Standard orientation:
 ---------------------------------------------------------------------
 Center     Atomic      Atomic             Coordinates (Angstroms)
 Number     Number       Type             X           Y           Z
 ---------------------------------------------------------------------
      1         16           0        1.176887   -0.521093   -0.000062
      2         16           0       -1.174173   -0.526566   -0.000062
      3          6           0       -0.005889    2.113445   -0.000279
      4          6           0       -0.001350    0.680311    0.000611
 ---------------------------------------------------------------------

 SCF Done:  E(RB3LYP) =  -871.517331545     A.U. after   20 cycles

 The electronic state is 1-A.
 Alpha  occ. eigenvalues --  -89.44300 -89.44295 -10.88877 -10.79101  -8.51946
 Alpha  occ. eigenvalues --   -8.51941  -6.48289  -6.48282  -6.47990  -6.47985
 Alpha  occ. eigenvalues --   -6.47484  -6.47479  -1.41611  -1.25732  -1.20194
 Alpha  occ. eigenvalues --   -0.99339  -0.90957  -0.90015  -0.86957  -0.81624
 Alpha  occ. eigenvalues --   -0.73792
 Alpha virt. eigenvalues --   -0.70271  -0.66075  -0.62710  -0.52746  -0.44354
 Alpha virt. eigenvalues --   -0.37795  -0.35863  -0.30183  -0.28249  -0.27483
 Alpha virt. eigenvalues --   -0.26381  -0.25375  -0.25074  -0.22951  -0.21226

 Mulliken charges:
               1
     1  S    0.453457
     2  S    0.454754
     3  C    0.725785
     4  C    0.366004
 Sum of Mulliken charges =   2.00000

 Dipole moment (field-independent basis, Debye):
    X=             -0.0050    Y=              2.0601    Z=              0.0009  Tot=              2.0601
 Quadrupole moment (field-independent basis, Debye-Ang):
   XX=            -15.9181   YY=            -16.0407   ZZ=            -30.0823
   XY=             -0.0003   XZ=             -0.0000   YZ=              0.0032

  Exact polarizability:  67.260   0.031  55.000   0.000  -0.002  30.670
 Approx polarizability: 349.057   0.670 126.459  -0.000   0.007  49.457

 ******    1 imaginary frequencies (negative Signs) ******

                      1                      2                      3
                      A                      A                      A
 Frequencies --   -155.5726                27.1342               331.6764
 Red. masses --     14.4492                12.3379                24.2737
 Frc consts  --      0.2060                 0.0054                 1.5733
 IR Inten    --      0.3137                 5.8470                 8.2856

                      4                      5                      6
                      A                      A                      A
 Frequencies --    692.3458               699.5981              1324.4160
 Red. masses --     15.4793                16.2935                12.3200
 Frc consts  --      4.3717                 4.6985                12.7324
 IR Inten    --     51.3300                40.3068               695.3256

 - Thermochemistry -
 -------------------
 Temperature   298.150 Kelvin.  Pressure   1.00000 Atm.
 Atom     1 has atomic number 16 and mass  31.97207

 Molecular mass:    87.94414 amu.
 Principal axes and moments of inertia in atomic units:
                           1         2         3
     Eigenvalues --   273.90146 315.55045 589.45187
           X            1.00000   0.00001  -0.00000
           Y           -0.00001   1.00000   0.00000
           Z            0.00000  -0.00000   1.00000
 This molecule is an asymmetric top.
 Rotational symmetry number  1.
 Rotational temperatures (Kelvin)      0.31622     0.27448     0.14694
 Rotational constants (GHZ):           6.58902     5.71934     3.06173
    1 imaginary frequencies ignored.
 Zero-point vibrational energy      18393.6 (Joules/Mol)
                                    4.39618 (Kcal/Mol)
 Warning -- explicit consideration of   2 degrees of freedom as
           vibrations may cause significant error
 Vibrational temperatures:     39.04   477.21   996.13  1006.56  1905.54
          (Kelvin)

 Zero-point correction=                           0.007006 (Hartree/Particle)
 Thermal correction to Energy=                    0.011343
 Thermal correction to Enthalpy=                  0.012287
 Thermal correction to Gibbs Free Energy=        -0.022254
 Sum of electronic and zero-point Energies=           -871.510326
 Sum of electronic and thermal Energies=              -871.505989
 Sum of electronic and thermal Enthalpies=            -871.505045
 Sum of electronic and thermal Free Energies=         -871.539586

                     E (Thermal)             CV                S
                      KCal/Mol        Cal/Mol-Kelvin    Cal/Mol-Kelvin
 Total                    7.118             11.369             72.698
 Electronic               0.000              0.000              0.000
 Translational            0.889              2.981             39.335
 Rotational               0.889              2.981             25.436
 Vibrational              5.340              5.407              7.927
 Vibration     1          0.593              1.984              6.029
 Vibration     2          0.714              1.612              1.252

 Optimization completed.
    -- Stationary point found.
 Normal termination of Gaussian 09 at Wed Aug  3 20:42:49 2016.
