 Gaussian 09, Revision E.01,
 Gaussian 09:  EM64L-G09RevE.01 30-Nov-2015

 ------------------------------
 #p b3lyp/6-311++G(3df,2p) freq
 ------------------------------

 ---------
 b3lyp opt
 ---------
 Symbolic Z-matrix:
 Charge =  1 Multiplicity = 4

                         Standard orientation:
 ---------------------------------------------------------------------
 Center     Atomic      Atomic             Coordinates (Angstroms)
 Number     Number       Type             X           Y           Z
 ---------------------------------------------------------------------
      1         16           0        1.354679   -0.471193   -0.000004
      2         16           0       -1.353776   -0.472787   -0.000004
      3          6           0       -0.002374    1.938189   -0.000018
      4          6           0       -0.000032    0.579089    0.000042
 ---------------------------------------------------------------------

 SCF Done:  E(UB3LYP) =  -872.122757054     A.U. after   21 cycles

 The electronic state is 4-A.
 Alpha  occ. eigenvalues --  -89.18239 -89.18236 -10.53044 -10.50651  -8.26237
 Alpha  occ. eigenvalues --   -8.26232  -6.22816  -6.22813  -6.22418  -6.22414
 Alpha  occ. eigenvalues --   -6.22015  -6.22012  -1.14488  -1.00399  -0.98182
 Alpha  occ. eigenvalues --   -0.75638  -0.68121  -0.66795  -0.60379  -0.56590
 Alpha  occ. eigenvalues --   -0.54747  -0.52084  -0.52081
 Alpha virt. eigenvalues --   -0.38073  -0.27496  -0.22256  -0.15919  -0.15894
 Alpha virt. eigenvalues --   -0.10795  -0.10304  -0.10204  -0.09904  -0.07869
 Alpha virt. eigenvalues --   -0.07774  -0.06996  -0.04914  -0.04163  -0.03028

  Beta  occ. eigenvalues --  -89.17348 -89.17345 -10.52302 -10.50716  -8.25429
  Beta  occ. eigenvalues --   -8.25425  -6.21688  -6.21685  -6.20968  -6.20965
  Beta  occ. eigenvalues --   -6.20825  -6.20822  -1.12048  -0.95004  -0.94703
  Beta  occ. eigenvalues --   -0.72144  -0.66179  -0.61874  -0.56469  -0.51910
  Beta virt. eigenvalues --   -0.42908  -0.41208  -0.39869  -0.36621  -0.23361
  Beta virt. eigenvalues --   -0.20667  -0.15421  -0.14374  -0.10410  -0.09960
  Beta virt. eigenvalues --   -0.09450  -0.08876  -0.07157  -0.06316  -0.05947

 Mulliken charges and spin densities:
               1          2
     1  S    0.177152   1.332636
     2  S    0.178421   1.332168
     3  C    0.223427   0.410251
     4  C    0.420999  -0.075054
 Sum of Mulliken charges =   1.00000   3.00000

 Dipole moment (field-independent basis, Debye):
    X=              0.0041    Y=             -0.9551    Z=              0.0000  Tot=              0.9551
 Quadrupole moment (field-independent basis, Debye-Ang):
   XX=            -22.5598   YY=            -32.4658   ZZ=            -32.4353
   XY=              0.0118   XZ=             -0.0000   YZ=              0.0001

  Exact polarizability:  84.748   0.007  59.963  -0.000   0.000  35.316
 Approx polarizability: 189.161   0.054 111.887  -0.000   0.000  56.243

 ******    1 imaginary frequencies (negative Signs) ******

                      1                      2                      3
                      A                      A                      A
 Frequencies --   -197.0263               242.6912               341.1641
 Red. masses --     14.0095                23.8165                12.3689
 Frc consts  --      0.3204                 0.8265                 0.8482
 IR Inten    --     32.1888                 0.7275                 1.9984

                      4                      5                      6
                      A                      A                      A
 Frequencies --    663.3361               695.3249              1409.9842
 Red. masses --     16.9823                14.9402                12.0678
 Frc consts  --      4.4026                 4.2558                14.1353
 IR Inten    --      1.4752                 4.5009               140.4075

 - Thermochemistry -
 -------------------
 Temperature   298.150 Kelvin.  Pressure   1.00000 Atm.
 Atom     1 has atomic number 16 and mass  31.97207

 Molecular mass:    87.94414 amu.
 Principal axes and moments of inertia in atomic units:
                           1         2         3
     Eigenvalues --   226.22058 418.77625 644.99683
           X            1.00000   0.00000  -0.00000
           Y           -0.00000   1.00000   0.00000
           Z            0.00000  -0.00000   1.00000
 This molecule is an asymmetric top.
 Rotational symmetry number  1.
 Rotational temperatures (Kelvin)      0.38287     0.20683     0.13429
 Rotational constants (GHZ):           7.97779     4.30956     2.79806
    1 imaginary frequencies ignored.
 Zero-point vibrational energy      20052.4 (Joules/Mol)
                                    4.79264 (Kcal/Mol)
 Warning -- explicit consideration of   2 degrees of freedom as
           vibrations may cause significant error
 Vibrational temperatures:    349.18   490.86   954.39  1000.42  2028.65
          (Kelvin)

 Zero-point correction=                           0.007638 (Hartree/Particle)
 Thermal correction to Energy=                    0.011588
 Thermal correction to Enthalpy=                  0.012532
 Thermal correction to Gibbs Free Energy=        -0.021382
 Sum of electronic and zero-point Energies=           -872.115119
 Sum of electronic and thermal Energies=              -872.111169
 Sum of electronic and thermal Enthalpies=            -872.110225
 Sum of electronic and thermal Free Energies=         -872.144139

                     E (Thermal)             CV                S
                      KCal/Mol        Cal/Mol-Kelvin    Cal/Mol-Kelvin
 Total                    7.272             11.171             71.378
 Electronic               0.000              0.000              2.755
 Translational            0.889              2.981             39.335
 Rotational               0.889              2.981             25.616
 Vibrational              5.494              5.210              3.671
 Vibration     1          0.659              1.775              1.783
 Vibration     2          0.721              1.593              1.207

 Optimization completed.
    -- Stationary point found.
 Normal termination of Gaussian 09 at Wed Aug  3 20:40:00 2016.
