 Gaussian 09, Revision E.01,
 Gaussian 09:  EM64L-G09RevE.01 30-Nov-2015

 ------------------------------
 #p b3lyp/6-311++G(3df,2p) freq
 ------------------------------

 ---------
 b3lyp opt
 ---------
 Symbolic Z-matrix:
 Charge =  0 Multiplicity = 3

                         Standard orientation:
 ---------------------------------------------------------------------
 Center     Atomic      Atomic             Coordinates (Angstroms)
 Number     Number       Type             X           Y           Z
 ---------------------------------------------------------------------
      1         16           0       -1.267115   -0.510492   -0.000015
      2         16           0        1.268666   -0.507510   -0.000015
      3          6           0       -0.003872    2.012342   -0.000076
      4          6           0       -0.000264    0.702329    0.000158
 ---------------------------------------------------------------------

 SCF Done:  E(UB3LYP) =  -872.453252653     A.U. after   27 cycles

 The electronic state is 3-A.
 Alpha  occ. eigenvalues --  -88.90723 -88.90702 -10.30444 -10.28518  -7.98995
 Alpha  occ. eigenvalues --   -7.98975  -5.95379  -5.95360  -5.95078  -5.95060
 Alpha  occ. eigenvalues --   -5.94745  -5.94721  -0.90334  -0.77056  -0.72496
 Alpha  occ. eigenvalues --   -0.51161  -0.43484  -0.42712  -0.38186  -0.34115
 Alpha  occ. eigenvalues --   -0.29690  -0.28705  -0.24936
 Alpha virt. eigenvalues --   -0.17556  -0.04889  -0.01211   0.00495   0.02689
 Alpha virt. eigenvalues --    0.03723   0.04358   0.04671   0.05508   0.07013
 Alpha virt. eigenvalues --    0.07632   0.08021   0.10778   0.11437   0.11720

  Beta  occ. eigenvalues --  -88.90210 -88.90190 -10.29670 -10.28514  -7.98529
  Beta  occ. eigenvalues --   -7.98510  -5.94980  -5.94961  -5.94044  -5.94026
  Beta  occ. eigenvalues --   -5.94025  -5.94008  -0.88756  -0.74294  -0.69548
  Beta  occ. eigenvalues --   -0.48963  -0.42335  -0.39895  -0.35638  -0.30720
  Beta  occ. eigenvalues --   -0.25351
  Beta virt. eigenvalues --   -0.20497  -0.16600  -0.14994  -0.02209  -0.00498
  Beta virt. eigenvalues --    0.00737   0.02963   0.04217   0.04549   0.05327
  Beta virt. eigenvalues --    0.05811   0.07156   0.07945   0.08655   0.11000

 Mulliken charges and spin densities:
               1          2
     1  S   -0.202054   0.779225
     2  S   -0.204774   0.777965
     3  C   -0.113632   0.488984
     4  C    0.520459  -0.046175
 Sum of Mulliken charges =  -0.00000   2.00000

 Dipole moment (field-independent basis, Debye):
    X=              0.0006    Y=             -0.8801    Z=              0.0003  Tot=              0.8801
 Quadrupole moment (field-independent basis, Debye-Ang):
   XX=            -36.7505   YY=            -40.1279   ZZ=            -38.2645
   XY=              0.0189   XZ=             -0.0000   YZ=              0.0009

  Exact polarizability: 158.866   0.285  73.927   0.000  -0.001  45.526
 Approx polarizability: 283.193   0.446 148.054   0.000  -0.001  69.384

 ******    1 imaginary frequencies (negative Signs) ******

                      1                      2                      3
                      A                      A                      A
 Frequencies --   -313.0902               249.3897               313.7385
 Red. masses --     14.5297                12.3038                22.4307
 Frc consts  --      0.8392                 0.4509                 1.3009
 IR Inten    --     27.4296                 7.4389                 0.1313

                      4                      5                      6
                      A                      A                      A
 Frequencies --    389.4232               611.9311              1543.4790
 Red. masses --     14.8545                17.8901                12.0104
 Frc consts  --      1.3272                 3.9470                16.8581
 IR Inten    --    829.3158                 0.0030               122.9288

 - Thermochemistry -
 -------------------
 Temperature   298.150 Kelvin.  Pressure   1.00000 Atm.
 Atom     1 has atomic number 16 and mass  31.97207

 Molecular mass:    87.94414 amu.
 Principal axes and moments of inertia in atomic units:
                           1         2         3
     Eigenvalues --   253.83236 367.08190 620.91426
           X            1.00000   0.00000  -0.00000
           Y           -0.00000   1.00000   0.00000
           Z            0.00000  -0.00000   1.00000
 This molecule is an asymmetric top.
 Rotational symmetry number  1.
 Rotational temperatures (Kelvin)      0.34122     0.23595     0.13949
 Rotational constants (GHZ):           7.10997     4.91645     2.90659
    1 imaginary frequencies ignored.
 Zero-point vibrational energy      18589.7 (Joules/Mol)
                                    4.44305 (Kcal/Mol)
 Warning -- explicit consideration of   4 degrees of freedom as
           vibrations may cause significant error
 Vibrational temperatures:    358.82   451.40   560.29   880.43  2220.72
          (Kelvin)

 Zero-point correction=                           0.007080 (Hartree/Particle)
 Thermal correction to Energy=                    0.011281
 Thermal correction to Enthalpy=                  0.012225
 Thermal correction to Gibbs Free Energy=        -0.021794
 Sum of electronic and zero-point Energies=           -872.446172
 Sum of electronic and thermal Energies=              -872.441972
 Sum of electronic and thermal Enthalpies=            -872.441027
 Sum of electronic and thermal Free Energies=         -872.475047

                     E (Thermal)             CV                S
                      KCal/Mol        Cal/Mol-Kelvin    Cal/Mol-Kelvin
 Total                    7.079             11.937             71.599
 Electronic               0.000              0.000              2.183
 Translational            0.889              2.981             39.335
 Rotational               0.889              2.981             25.562
 Vibrational              5.301              5.975              4.519
 Vibration     1          0.662              1.764              1.735
 Vibration     2          0.702              1.647              1.343
 Vibration     3          0.757              1.493              1.002
 Vibration     4          0.971              1.007              0.430

 Normal termination of Gaussian 09 at Wed Aug  3 20:35:45 2016.
