 Gaussian 09, Revision E.01,
 Gaussian 09:  EM64L-G09RevE.01 30-Nov-2015

 ------------------------------
 #p b3lyp/6-311++G(3df,2p) freq
 ------------------------------

 ---------
 b3lyp opt
 ---------
 Symbolic Z-matrix:
 Charge =  1 Multiplicity = 4

                         Standard orientation:
 ---------------------------------------------------------------------
 Center     Atomic      Atomic             Coordinates (Angstroms)
 Number     Number       Type             X           Y           Z
 ---------------------------------------------------------------------
      1         16           0        0.000000   -0.000000   -1.598833
      2         16           0       -0.000000   -0.000000    1.598833
      3          6           0        0.000000    0.000000    0.000000
 ---------------------------------------------------------------------

 SCF Done:  E(UB3LYP) =  -834.077650487     A.U. after   11 cycles

 Unable to determine electronic state:  an orbital has unidentified symmetry.
 Alpha  occ. eigenvalues --  -89.19892 -89.19892 -10.48800  -8.27717  -8.27713
 Alpha  occ. eigenvalues --   -6.24187  -6.24186  -6.24006  -6.24006  -6.23527
 Alpha  occ. eigenvalues --   -6.23526  -1.11920  -1.05286  -0.78955  -0.69520
 Alpha  occ. eigenvalues --   -0.66002  -0.64822  -0.57883  -0.57485  -0.40782
 Alpha virt. eigenvalues --   -0.33046  -0.22679  -0.17121  -0.13669  -0.11434
 Alpha virt. eigenvalues --   -0.10297  -0.10087  -0.07415  -0.07339  -0.07172
 Alpha virt. eigenvalues --   -0.06190  -0.06152  -0.01702  -0.01570  -0.01551

  Beta  occ. eigenvalues --  -89.19024 -89.19024 -10.48126  -8.26920  -8.26915
  Beta  occ. eigenvalues --   -6.23083  -6.23082  -6.22703  -6.22701  -6.22231
  Beta  occ. eigenvalues --   -6.22230  -1.08072  -1.00286  -0.74330  -0.66729
  Beta  occ. eigenvalues --   -0.60506  -0.58211
  Beta virt. eigenvalues --   -0.46035  -0.44866  -0.30127  -0.27636  -0.19976
  Beta virt. eigenvalues --   -0.16771  -0.12022  -0.10916  -0.09967  -0.09638
  Beta virt. eigenvalues --   -0.06938  -0.06869  -0.06650  -0.03047  -0.03039

 Mulliken charges and spin densities:
               1          2
     1  S    0.264810   1.357397
     2  S    0.264810   1.357397
     3  C    0.470380   0.285205
 Sum of Mulliken charges =   1.00000   3.00000

 Dipole moment (field-independent basis, Debye):
    X=             -0.0000    Y=             -0.0000    Z=              0.0000  Tot=              0.0000
 Quadrupole moment (field-independent basis, Debye-Ang):
   XX=            -26.0918   YY=            -27.9142   ZZ=            -11.9655
   XY=             -0.0000   XZ=             -0.0000   YZ=              0.0000

  Exact polarizability:  27.948  -0.000  28.885  -0.000   0.000  85.091
 Approx polarizability:  44.767   0.000  43.211  -0.000  -0.000 207.466

 ******    1 imaginary frequencies (negative Signs) ******

                      1                      2                      3
                     PIU                    PIU                    SGG
 Frequencies --   -397.8285               257.9292               588.8643
 Red. masses --     13.3142                13.3142                31.9721
 Frc consts  --      1.2415                 0.5219                 6.5321
 IR Inten    --      5.7714                 1.0755                 0.0000

                      4
                     SGU
 Frequencies --   1294.3380
 Red. masses --     13.3142
 Frc consts  --     13.1420
 IR Inten    --    439.2088

 - Thermochemistry -
 -------------------
 Temperature   298.150 Kelvin.  Pressure   1.00000 Atm.
 Atom     1 has atomic number 16 and mass  31.97207

 Molecular mass:    75.94414 amu.
 Principal axes and moments of inertia in atomic units:
                           1         2         3
     Eigenvalues --     0.00000 583.72016 583.72016
           X           -0.00000   0.68681   0.72684
           Y           -0.00000   0.72684  -0.68681
           Z            1.00000   0.00000   0.00000
 This molecule is a prolate symmetric top.
 Rotational symmetry number  2.
 Warning -- assumption of classical behavior for rotation
           may cause significant error
 Rotational temperature (Kelvin)      0.14838
 Rotational constant (GHZ):           3.091792
    1 imaginary frequencies ignored.
 Zero-point vibrational energy      12806.8 (Joules/Mol)
                                    3.06090 (Kcal/Mol)
 Warning -- explicit consideration of   2 degrees of freedom as
           vibrations may cause significant error
 Vibrational temperatures:    371.10   847.24  1862.26
          (Kelvin)

 Zero-point correction=                           0.004878 (Hartree/Particle)
 Thermal correction to Energy=                    0.007891
 Thermal correction to Enthalpy=                  0.008836
 Thermal correction to Gibbs Free Energy=        -0.019458
 Sum of electronic and zero-point Energies=           -834.072773
 Sum of electronic and thermal Energies=              -834.069759
 Sum of electronic and thermal Enthalpies=            -834.068815
 Sum of electronic and thermal Free Energies=         -834.097109

                     E (Thermal)             CV                S
                      KCal/Mol        Cal/Mol-Kelvin    Cal/Mol-Kelvin
 Total                    4.952              7.924             59.549
 Electronic               0.000              0.000              2.755
 Translational            0.889              2.981             38.898
 Rotational               0.592              1.987             15.724
 Vibrational              3.471              2.956              2.173
 Vibration     1          0.667              1.749              1.676
 Vibration     2          0.946              1.056              0.469

 Optimization completed.
    -- Stationary point found.
 Normal termination of Gaussian 09 at Wed Aug  3 20:49:06 2016.
