 Gaussian 09, Revision E.01,
 Gaussian 09:  EM64L-G09RevE.01 30-Nov-2015

 ------------------------------
 #p b3lyp/6-311++G(3df,2p) freq
 ------------------------------

 ---------
 b3lyp opt
 ---------
 Symbolic Z-matrix:
 Charge =  0 Multiplicity = 3

                         Standard orientation:
 ---------------------------------------------------------------------
 Center     Atomic      Atomic             Coordinates (Angstroms)
 Number     Number       Type             X           Y           Z
 ---------------------------------------------------------------------
      1         16           0       -0.000000    0.000000   -1.597116
      2         16           0       -0.000000   -0.000000    1.597116
      3          6           0        0.000000    0.000000    0.000000
 ---------------------------------------------------------------------

 SCF Done:  E(UB3LYP) =  -834.436337911     A.U. after   12 cycles

 Unable to determine electronic state:  an orbital has unidentified symmetry.
 Alpha  occ. eigenvalues --  -88.90794 -88.90794 -10.24961  -7.99067  -7.99063
 Alpha  occ. eigenvalues --   -5.95767  -5.95766  -5.95100  -5.95099  -5.94543
 Alpha  occ. eigenvalues --   -5.94542  -0.85756  -0.78224  -0.53298  -0.44036
 Alpha  occ. eigenvalues --   -0.40154  -0.39741  -0.32122  -0.29954  -0.15340
 Alpha virt. eigenvalues --   -0.09503  -0.00873   0.00911   0.02253   0.04122
 Alpha virt. eigenvalues --    0.04502   0.06538   0.06677   0.06777   0.07963
 Alpha virt. eigenvalues --    0.13270   0.13284   0.14639   0.15050   0.16676

  Beta  occ. eigenvalues --  -88.90338 -88.90338 -10.24115  -7.98645  -7.98640
  Beta  occ. eigenvalues --   -5.94880  -5.94879  -5.94594  -5.94593  -5.93977
  Beta  occ. eigenvalues --   -5.93976  -0.83250  -0.75518  -0.49966  -0.42160
  Beta  occ. eigenvalues --   -0.36506  -0.35705  -0.27014
  Beta virt. eigenvalues --   -0.22047  -0.06805  -0.05137  -0.00355   0.01777
  Beta virt. eigenvalues --    0.02423   0.04498   0.04687   0.06807   0.06837
  Beta virt. eigenvalues --    0.07190   0.08683   0.13212   0.13950   0.15196

 Mulliken charges and spin densities:
               1          2
     1  S   -0.173068   0.829574
     2  S   -0.173068   0.829574
     3  C    0.346135   0.340851
 Sum of Mulliken charges =  -0.00000   2.00000

 Dipole moment (field-independent basis, Debye):
    X=             -0.0000    Y=             -0.0000    Z=             -0.0000  Tot=              0.0000
 Quadrupole moment (field-independent basis, Debye-Ang):
   XX=            -29.3441   YY=            -34.0904   ZZ=            -29.9244
   XY=              0.0000   XZ=              0.0000   YZ=              0.0000

  Exact polarizability:  34.225   0.000  40.389  -0.000  -0.000  98.051
 Approx polarizability:  56.068   0.000  57.062  -0.000  -0.000 191.918

 ******    1 imaginary frequencies (negative Signs) ******

                      1                      2                      3
                     PIU                    PIU                    SGG
 Frequencies --   -399.9776               268.9712               591.9910
 Red. masses --     13.3142                13.3142                31.9721
 Frc consts  --      1.2550                 0.5675                 6.6016
 IR Inten    --      0.4417                 0.0574                 0.0000

                      4
                     SGU
 Frequencies --   1183.0470
 Red. masses --     13.3142
 Frc consts  --     10.9791
 IR Inten    --     38.6226

 - Thermochemistry -
 -------------------
 Temperature   298.150 Kelvin.  Pressure   1.00000 Atm.
 Atom     1 has atomic number 16 and mass  31.97207

 Molecular mass:    75.94414 amu.
 Principal axes and moments of inertia in atomic units:
                           1         2         3
     Eigenvalues --     0.00000 582.46749 582.46749
           X           -0.00000   0.99910  -0.04246
           Y           -0.00000   0.04246   0.99910
           Z            1.00000   0.00000  -0.00000
 This molecule is a prolate symmetric top.
 Rotational symmetry number  2.
 Warning -- assumption of classical behavior for rotation
           may cause significant error
 Rotational temperature (Kelvin)      0.14870
 Rotational constant (GHZ):           3.098441
    1 imaginary frequencies ignored.
 Zero-point vibrational energy      12225.9 (Joules/Mol)
                                    2.92206 (Kcal/Mol)
 Warning -- explicit consideration of   2 degrees of freedom as
           vibrations may cause significant error
 Vibrational temperatures:    386.99   851.74  1702.14
          (Kelvin)

 Zero-point correction=                           0.004657 (Hartree/Particle)
 Thermal correction to Energy=                    0.007660
 Thermal correction to Enthalpy=                  0.008604
 Thermal correction to Gibbs Free Energy=        -0.019387
 Sum of electronic and zero-point Energies=           -834.431681
 Sum of electronic and thermal Energies=              -834.428678
 Sum of electronic and thermal Enthalpies=            -834.427734
 Sum of electronic and thermal Free Energies=         -834.455724

                     E (Thermal)             CV                S
                      KCal/Mol        Cal/Mol-Kelvin    Cal/Mol-Kelvin
 Total                    4.807              7.963             58.911
 Electronic               0.000              0.000              2.183
 Translational            0.889              2.981             38.898
 Rotational               0.592              1.987             15.719
 Vibrational              3.325              2.995              2.111
 Vibration     1          0.673              1.730              1.603
 Vibration     2          0.949              1.049              0.464

 Normal termination of Gaussian 09 at Wed Aug  3 20:47:55 2016.
