 Gaussian 09, Revision E.01,
 Gaussian 09:  EM64L-G09RevE.01 30-Nov-2015

 ------------------------------
 #p b3lyp/6-311++G(3df,2p) freq
 ------------------------------

 ---------
 b3lyp opt
 ---------
 Symbolic Z-matrix:
 Charge =  0 Multiplicity = 3

                         Standard orientation:
 ---------------------------------------------------------------------
 Center     Atomic      Atomic             Coordinates (Angstroms)
 Number     Number       Type             X           Y           Z
 ---------------------------------------------------------------------
      1         16           0       -0.605952   -0.000006    0.000113
      2          6           0        1.076612   -0.000007   -0.001235
      3          1           0        1.617902   -0.935974    0.002804
      4          1           0        1.617662    0.936108    0.002804
 ---------------------------------------------------------------------

 SCF Done:  E(UB3LYP) =  -437.450250332     A.U. after   12 cycles

 The electronic state is 3-A.
 Alpha  occ. eigenvalues --  -88.89369 -10.19904  -7.97656  -5.94607  -5.93513
 Alpha  occ. eigenvalues --   -5.93268  -0.80944  -0.62499  -0.46938  -0.40897
 Alpha  occ. eigenvalues --   -0.34354  -0.30754  -0.18640
 Alpha virt. eigenvalues --   -0.00632   0.01761   0.02484   0.05082   0.06156
 Alpha virt. eigenvalues --    0.07268   0.09015   0.09517   0.10901   0.13977
 Alpha virt. eigenvalues --    0.14051   0.16158   0.16497   0.18543   0.23329

  Beta  occ. eigenvalues --  -88.88638 -10.18760  -7.96985  -5.93145  -5.92707
  Beta  occ. eigenvalues --   -5.92417  -0.77108  -0.58096  -0.44624  -0.38739
  Beta  occ. eigenvalues --   -0.29547
  Beta virt. eigenvalues --   -0.17271  -0.06512  -0.00264   0.02375   0.02586
  Beta virt. eigenvalues --    0.05293   0.06513   0.07678   0.09288   0.10697
  Beta virt. eigenvalues --    0.12742   0.14117   0.14379   0.17108   0.17513

 Mulliken charges and spin densities:
               1          2
     1  S    0.004650   1.210576
     2  C   -0.292585   0.751876
     3  H    0.143977   0.018766
     4  H    0.143958   0.018782
 Sum of Mulliken charges =  -0.00000   2.00000

 Dipole moment (field-independent basis, Debye):
    X=              0.5644    Y=              0.0000    Z=              0.0079  Tot=              0.5644
 Quadrupole moment (field-independent basis, Debye-Ang):
   XX=            -18.8646   YY=            -17.9311   ZZ=            -22.3728
   XY=             -0.0001   XZ=              0.0143   YZ=              0.0000

  Exact polarizability:  45.528   0.001  26.776  -0.022   0.001  29.459
 Approx polarizability:  67.163   0.000  39.478  -0.035   0.000  39.825

 ******    1 imaginary frequencies (negative Signs) ******

                      1                      2                      3
                      A                      A                      A
 Frequencies --    -62.4152               752.9929               868.6149
 Red. masses --      1.2783                 1.1925                 6.3941
 Frc consts  --      0.0029                 0.3984                 2.8424
 IR Inten    --     88.9274                 0.0875                 0.0359

                      4                      5                      6
                      A                      A                      A
 Frequencies --   1343.7747              3123.6898              3233.1391
 Red. masses --      1.1123                 1.0453                 1.1175
 Frc consts  --      1.1834                 6.0092                 6.8824
 IR Inten    --      2.4937                 2.9782                 1.4626

 - Thermochemistry -
 -------------------
 Temperature   298.150 Kelvin.  Pressure   1.00000 Atm.
 Atom     1 has atomic number 16 and mass  31.97207

 Molecular mass:    45.98772 amu.
 Principal axes and moments of inertia in atomic units:
                           1         2         3
     Eigenvalues --     6.30682 109.63975 115.94634
           X            1.00000   0.00000   0.00031
           Y           -0.00000   1.00000  -0.00000
           Z           -0.00031   0.00000   1.00000
 This molecule is an asymmetric top.
 Rotational symmetry number  1.
 Rotational temperatures (Kelvin)     13.73337     0.78999     0.74702
 Rotational constants (GHZ):         286.15725    16.46065    15.56531
    1 imaginary frequencies ignored.
 Zero-point vibrational energy      55759.2 (Joules/Mol)
                                   13.32677 (Kcal/Mol)
 Vibrational temperatures:   1083.39  1249.74  1933.39  4494.29  4651.76
          (Kelvin)

 Zero-point correction=                           0.021238 (Hartree/Particle)
 Thermal correction to Energy=                    0.024233
 Thermal correction to Enthalpy=                  0.025178
 Thermal correction to Gibbs Free Energy=        -0.002874
 Sum of electronic and zero-point Energies=           -437.429013
 Sum of electronic and thermal Energies=              -437.426017
 Sum of electronic and thermal Enthalpies=            -437.425073
 Sum of electronic and thermal Free Energies=         -437.453124

                     E (Thermal)             CV                S
                      KCal/Mol        Cal/Mol-Kelvin    Cal/Mol-Kelvin
 Total                   15.207              7.365             59.038
 Electronic               0.000              0.000              2.183
 Translational            0.889              2.981             37.403
 Rotational               0.889              2.981             19.023
 Vibrational             13.429              1.404              0.430

 Normal termination of Gaussian 09 at Wed Aug  3 20:49:56 2016.
