 Gaussian 09, Revision E.01,
 Gaussian 09:  EM64L-G09RevE.01 30-Nov-2015

 ------------------------------
 #p b3lyp/6-311++G(3df,2p) freq
 ------------------------------

 ---------
 b3lyp opt
 ---------
 Symbolic Z-matrix:
 Charge =  0 Multiplicity = 3

                         Standard orientation:
 ---------------------------------------------------------------------
 Center     Atomic      Atomic             Coordinates (Angstroms)
 Number     Number       Type             X           Y           Z
 ---------------------------------------------------------------------
      1         16           0        0.000000    0.036029    0.000000
      2          1           0        1.488724   -0.281251    0.000000
      3          1           0       -1.488724   -0.295216    0.000000
 ---------------------------------------------------------------------

 SCF Done:  E(UB3LYP) =  -399.274552884     A.U. after   11 cycles

 The electronic state is 3-A".
 Alpha  occ. eigenvalues --  -88.91412  -7.99441  -5.96405  -5.95447  -5.94769
 Alpha  occ. eigenvalues --   -0.76111  -0.48743  -0.34625  -0.31749  -0.21266
 Alpha virt. eigenvalues --   -0.00098   0.00676   0.04764   0.05028   0.08165
 Alpha virt. eigenvalues --    0.08739   0.09640   0.15996   0.19661   0.19737
 Alpha virt. eigenvalues --    0.24883   0.25001   0.29967   0.31296   0.37760

  Beta  occ. eigenvalues --  -88.90656  -7.98660  -5.95103  -5.94343  -5.94108
  Beta  occ. eigenvalues --   -0.70425  -0.44249  -0.29090
  Beta virt. eigenvalues --   -0.19238  -0.08740   0.01253   0.01498   0.05089
  Beta virt. eigenvalues --    0.05478   0.09230   0.09395   0.11489   0.19081
  Beta virt. eigenvalues --    0.22989   0.23216   0.26460   0.26571   0.32026

 Mulliken charges and spin densities:
               1          2
     1  S    0.058384   1.090277
     2  H   -0.028491   0.452645
     3  H   -0.029893   0.457077
 Sum of Mulliken charges =  -0.00000   2.00000

 Dipole moment (field-independent basis, Debye):
    X=              0.0111    Y=             -0.2146    Z=              0.0000  Tot=              0.2149
 Quadrupole moment (field-independent basis, Debye-Ang):
   XX=            -15.7577   YY=            -16.6211   ZZ=            -14.1848
   XY=             -0.0018   XZ=              0.0000   YZ=              0.0000

  Exact polarizability:  53.164   0.156  23.190   0.000  -0.000  18.738
 Approx polarizability:  77.194   0.226  30.412  -0.000  -0.000  26.751

 ******    1 imaginary frequencies (negative Signs) ******

                      1                      2                      3
                     A'                     A'                     A'
 Frequencies --    -98.6527               645.7426              1793.3330
 Red. masses --      1.0665                 1.0670                 1.0098
 Frc consts  --      0.0061                 0.2621                 1.9134
 IR Inten    --   1042.5739                 0.7314                 2.8468

 - Thermochemistry -
 -------------------
 Temperature   298.150 Kelvin.  Pressure   1.00000 Atm.
 Atom     1 has atomic number 16 and mass  31.97207

 Molecular mass:    33.98772 amu.
 Principal axes and moments of inertia in atomic units:
                           1         2         3
     Eigenvalues --     0.71194  15.95333  16.66528
           X            0.99999  -0.00491   0.00000
           Y            0.00491   0.99999   0.00000
           Z            0.00000   0.00000   1.00000
 This molecule is an asymmetric top.
 Rotational symmetry number  1.
 Rotational temperatures (Kelvin)    121.65810     5.42920     5.19726
 Rotational constants (GHZ):        2534.94650   113.12629   108.29351
    1 imaginary frequencies ignored.
 Zero-point vibrational energy      14588.9 (Joules/Mol)
                                    3.48683 (Kcal/Mol)
 Vibrational temperatures:    929.08  2580.20
          (Kelvin)

 Zero-point correction=                           0.005557 (Hartree/Particle)
 Thermal correction to Energy=                    0.008527
 Thermal correction to Enthalpy=                  0.009471
 Thermal correction to Gibbs Free Energy=        -0.015273
 Sum of electronic and zero-point Energies=           -399.268996
 Sum of electronic and thermal Energies=              -399.266026
 Sum of electronic and thermal Enthalpies=            -399.265082
 Sum of electronic and thermal Free Energies=         -399.289825

                     E (Thermal)             CV                S
                      KCal/Mol        Cal/Mol-Kelvin    Cal/Mol-Kelvin
 Total                    5.351              6.924             52.078
 Electronic               0.000              0.000              2.183
 Translational            0.889              2.981             36.501
 Rotational               0.889              2.981             13.013
 Vibrational              3.573              0.963              0.381

 Normal termination of Gaussian 09 at Wed Aug  3 20:10:10 2016.
