 Gaussian 09, Revision E.01,
 Gaussian 09:  EM64L-G09RevE.01 30-Nov-2015

 ------------------------------
 #p b3lyp/6-311++G(3df,2p) freq
 ------------------------------

 ---------
 b3lyp opt
 ---------
 Symbolic Z-matrix:
 Charge =  1 Multiplicity = 2

                         Standard orientation:
 ---------------------------------------------------------------------
 Center     Atomic      Atomic             Coordinates (Angstroms)
 Number     Number       Type             X           Y           Z
 ---------------------------------------------------------------------
      1         16           0        0.000000    0.000000   -0.239203
      2          1           0       -0.000000    0.000000    1.485627
      3          1           0       -0.000000    0.000000    2.341615
 ---------------------------------------------------------------------

 SCF Done:  E(UB3LYP) =  -398.895274827     A.U. after   12 cycles

 Unable to determine electronic state:  partially filled degenerate orbitals.
 Alpha  occ. eigenvalues --  -89.26485  -8.33956  -6.30895  -6.30777  -6.28672
 Alpha  occ. eigenvalues --   -1.03891  -0.77374  -0.63280  -0.58204
 Alpha virt. eigenvalues --   -0.51614  -0.18460  -0.15883  -0.11721  -0.10921
 Alpha virt. eigenvalues --   -0.08909  -0.08352  -0.07545  -0.07060  -0.04854
 Alpha virt. eigenvalues --   -0.04586  -0.00724   0.09401   0.10655   0.11969

  Beta  occ. eigenvalues --  -89.25808  -8.33341  -6.30484  -6.28668  -6.28303
  Beta  occ. eigenvalues --   -0.99182  -0.77088  -0.56805
  Beta virt. eigenvalues --   -0.50428  -0.47620  -0.17992  -0.15552  -0.10860
  Beta virt. eigenvalues --   -0.10567  -0.08205  -0.07166  -0.06767  -0.06088
  Beta virt. eigenvalues --   -0.01896  -0.01484  -0.00583   0.09871   0.12186

 Mulliken charges and spin densities:
               1          2
     1  S    0.670486   1.033618
     2  H    0.029043  -0.001551
     3  H    0.300471  -0.032067
 Sum of Mulliken charges =   1.00000   1.00000

 Dipole moment (field-independent basis, Debye):
    X=             -0.0000    Y=              0.0000    Z=              2.9475  Tot=              2.9475
 Quadrupole moment (field-independent basis, Debye-Ang):
   XX=            -11.6463   YY=            -14.0129   ZZ=              0.4131
   XY=              0.0000   XZ=             -0.0000   YZ=             -0.0000

  Exact polarizability:  14.154   0.000  15.893   0.000  -0.000  33.662
 Approx polarizability:  19.597  -0.000  19.527  -0.000  -0.000  65.354

 ******    1 imaginary frequencies (negative Signs) ******

                      1                      2                      3
                     PI                     PI                     SG
 Frequencies --   -359.2698               418.6437               599.5482
 Red. masses --      1.0102                 1.0102                 1.0692
 Frc consts  --      0.0768                 0.1043                 0.2264
 IR Inten    --      5.4011                14.2518                32.0096

                      4
                     SG
 Frequencies --   2960.2138
 Red. masses --      1.0078
 Frc consts  --      5.2033
 IR Inten    --   2635.1910

 - Thermochemistry -
 -------------------
 Temperature   298.150 Kelvin.  Pressure   1.00000 Atm.
 Atom     1 has atomic number 16 and mass  31.97207

 Molecular mass:    33.98772 amu.
 Principal axes and moments of inertia in atomic units:
                           1         2         3
     Eigenvalues --     0.00000  32.70038  32.70038
           X           -0.00000   1.00000  -0.00000
           Y            0.00000   0.00000   1.00000
           Z            1.00000   0.00000  -0.00000
 This molecule is a prolate symmetric top.
 Rotational symmetry number  1.
 Rotational temperature (Kelvin)      2.64871
 Rotational constant (GHZ):          55.190218
    1 imaginary frequencies ignored.
 Zero-point vibrational energy      23796.2 (Joules/Mol)
                                    5.68742 (Kcal/Mol)
 Warning -- explicit consideration of   2 degrees of freedom as
           vibrations may cause significant error
 Vibrational temperatures:    602.33   862.62  4259.08
          (Kelvin)

 Zero-point correction=                           0.009063 (Hartree/Particle)
 Thermal correction to Energy=                    0.011876
 Thermal correction to Enthalpy=                  0.012820
 Thermal correction to Gibbs Free Energy=        -0.011221
 Sum of electronic and zero-point Energies=           -398.886211
 Sum of electronic and thermal Energies=              -398.883399
 Sum of electronic and thermal Enthalpies=            -398.882455
 Sum of electronic and thermal Free Energies=         -398.906496

                     E (Thermal)             CV                S
                      KCal/Mol        Cal/Mol-Kelvin    Cal/Mol-Kelvin
 Total                    7.452              7.431             50.600
 Electronic               0.000              0.000              1.377
 Translational            0.889              2.981             36.501
 Rotational               0.592              1.987             11.374
 Vibrational              5.971              2.463              1.347
 Vibration     1          0.781              1.430              0.897
 Vibration     2          0.958              1.033              0.450

 Normal termination of Gaussian 09 at Wed Aug  3 20:10:07 2016.
