 Gaussian 09, Revision E.01,
 Gaussian 09:  EM64L-G09RevE.01 30-Nov-2015

 ------------------------------
 #p b3lyp/6-311++G(3df,2p) freq
 ------------------------------

 ---------
 b3lyp opt
 ---------
 Symbolic Z-matrix:
 Charge =  1 Multiplicity = 4

                         Standard orientation:
 ---------------------------------------------------------------------
 Center     Atomic      Atomic             Coordinates (Angstroms)
 Number     Number       Type             X           Y           Z
 ---------------------------------------------------------------------
      1         16           0       -0.000000    0.000000   -0.000114
      2          1           0        0.000000   -0.000000    1.555259
      3          1           0       -0.000000    0.000000   -1.553433
 ---------------------------------------------------------------------

 SCF Done:  E(UB3LYP) =  -398.888759883     A.U. after   10 cycles

 The electronic state is 4-SG.
 Alpha  occ. eigenvalues --  -89.29943  -8.37276  -6.33986  -6.33986  -6.32773
 Alpha  occ. eigenvalues --   -1.11085  -0.79890  -0.67306  -0.67306  -0.52653
 Alpha virt. eigenvalues --   -0.23416  -0.18068  -0.12134  -0.12134  -0.11721
 Alpha virt. eigenvalues --   -0.11721  -0.09896  -0.09896  -0.08097  -0.06574
 Alpha virt. eigenvalues --   -0.00546   0.04205   0.09249   0.09249   0.18928

  Beta  occ. eigenvalues --  -89.28533  -8.35893  -6.32087  -6.31389  -6.31389
  Beta  occ. eigenvalues --   -1.00973  -0.73811
  Beta virt. eigenvalues --   -0.49489  -0.49489  -0.36734  -0.18307  -0.17069
  Beta virt. eigenvalues --   -0.10683  -0.10683  -0.08652  -0.08652  -0.05743
  Beta virt. eigenvalues --   -0.05582  -0.03075  -0.03075  -0.00299   0.06182

 Mulliken charges and spin densities:
               1          2
     1  S    0.689476   2.098451
     2  H    0.155046   0.452225
     3  H    0.155478   0.449324
 Sum of Mulliken charges =   1.00000   3.00000

 Dipole moment (field-independent basis, Debye):
    X=             -0.0000    Y=              0.0000    Z=             -0.0029  Tot=              0.0029
 Quadrupole moment (field-independent basis, Debye-Ang):
   XX=            -11.3458   YY=            -11.3458   ZZ=             -8.2867
   XY=             -0.0000   XZ=             -0.0000   YZ=              0.0000

  Exact polarizability:  12.874  -0.000  12.874   0.000   0.000  36.198
 Approx polarizability:  17.902  -0.000  17.902   0.000  -0.000  55.283

 ******    1 imaginary frequencies (negative Signs) ******

                      1                      2                      3
                     SG                     PI                     PI
 Frequencies --   -467.6347               994.2799               994.2799
 Red. masses --      1.0692                 1.0692                 1.0692
 Frc consts  --      0.1378                 0.6228                 0.6228
 IR Inten    --    145.8172                13.1335                13.1335

                      4
                     SG
 Frequencies --   1621.8030
 Red. masses --      1.0078
 Frc consts  --      1.5618
 IR Inten    --      0.0041

 - Thermochemistry -
 -------------------
 Temperature   298.150 Kelvin.  Pressure   1.00000 Atm.
 Atom     1 has atomic number 16 and mass  31.97207

 Molecular mass:    33.98772 amu.
 Principal axes and moments of inertia in atomic units:
                           1         2         3
     Eigenvalues --     0.00000  17.39036  17.39036
           X            0.00000   0.98639   0.16442
           Y           -0.00000  -0.16442   0.98639
           Z            1.00000  -0.00000   0.00000
 This molecule is a prolate symmetric top.
 Rotational symmetry number  1.
 Rotational temperature (Kelvin)      4.98056
 Rotational constant (GHZ):         103.778247
    1 imaginary frequencies ignored.
 Zero-point vibrational energy      21594.8 (Joules/Mol)
                                    5.16127 (Kcal/Mol)
 Vibrational temperatures:   1430.55  1430.55  2333.41
          (Kelvin)

 Zero-point correction=                           0.008225 (Hartree/Particle)
 Thermal correction to Energy=                    0.010664
 Thermal correction to Enthalpy=                  0.011608
 Thermal correction to Gibbs Free Energy=        -0.011946
 Sum of electronic and zero-point Energies=           -398.880535
 Sum of electronic and thermal Energies=              -398.878096
 Sum of electronic and thermal Enthalpies=            -398.877152
 Sum of electronic and thermal Free Energies=         -398.900706

                     E (Thermal)             CV                S
                      KCal/Mol        Cal/Mol-Kelvin    Cal/Mol-Kelvin
 Total                    6.692              5.784             49.574
 Electronic               0.000              0.000              2.755
 Translational            0.889              2.981             36.501
 Rotational               0.592              1.987             10.119
 Vibrational              5.210              0.816              0.198

 Optimization completed.
    -- Stationary point found.
 Normal termination of Gaussian 09 at Wed Aug  3 20:10:57 2016.
