 Gaussian 09, Revision E.01,
 Gaussian 09:  EM64L-G09RevE.01 30-Nov-2015

 ------------------------------
 #p b3lyp/6-311++G(3df,2p) freq
 ------------------------------

 ---------
 b3lyp opt
 ---------
 Symbolic Z-matrix:
 Charge =  2 Multiplicity = 2

                         Standard orientation:
 ---------------------------------------------------------------------
 Center     Atomic      Atomic             Coordinates (Angstroms)
 Number     Number       Type             X           Y           Z
 ---------------------------------------------------------------------
      1         16           0        1.821513   -0.412388    0.000129
      2         16           0       -1.678012   -0.456634   -0.000118
      3          6           0       -0.701573    0.857335    0.000364
      4          6           0        0.776292    0.814812   -0.000482
      5          1           0       -1.132847    1.857310    0.001032
      6          1           0        1.258022    1.806489   -0.000836
      7          1           0       -2.869499    0.207672    0.000324
 ---------------------------------------------------------------------

 SCF Done:  E(UB3LYP) =  -873.610703674     A.U. after   17 cycles

 The electronic state is 2-A.
 Alpha  occ. eigenvalues --  -89.39024 -89.36412 -10.71427 -10.70972  -8.46930
 Alpha  occ. eigenvalues --   -8.44656  -6.43699  -6.42862  -6.42660  -6.40782
 Alpha  occ. eigenvalues --   -6.40653  -6.40355  -1.32361  -1.26831  -1.13916
 Alpha  occ. eigenvalues --   -1.00283  -0.95894  -0.89910  -0.86691  -0.82356
 Alpha  occ. eigenvalues --   -0.79608  -0.76087  -0.75234
 Alpha virt. eigenvalues --   -0.60149  -0.47246  -0.41361  -0.35575  -0.34784
 Alpha virt. eigenvalues --   -0.31263  -0.30148  -0.27157  -0.25785  -0.25620
 Alpha virt. eigenvalues --   -0.24934  -0.24025  -0.22577  -0.22289  -0.21295

  Beta  occ. eigenvalues --  -89.38306 -89.36468 -10.71242 -10.71161  -8.46275
  Beta  occ. eigenvalues --   -8.44707  -6.42269  -6.42237  -6.41667  -6.40832
  Beta  occ. eigenvalues --   -6.40810  -6.40382  -1.31569  -1.25488  -1.12608
  Beta  occ. eigenvalues --   -0.98996  -0.95306  -0.88930  -0.85450  -0.82145
  Beta  occ. eigenvalues --   -0.79555  -0.75451
  Beta virt. eigenvalues --   -0.61265  -0.59695  -0.47236  -0.41161  -0.34834
  Beta virt. eigenvalues --   -0.34178  -0.30949  -0.29906  -0.26870  -0.25291
  Beta virt. eigenvalues --   -0.25044  -0.24850  -0.23386  -0.21998  -0.21687

 Mulliken charges and spin densities:
               1          2
     1  S    0.515914   1.067229
     2  S    0.258062  -0.077218
     3  C    0.265061   0.085402
     4  C    0.120613  -0.125311
     5  H    0.283321   0.001004
     6  H    0.282656   0.047889
     7  H    0.274373   0.001005
 Sum of Mulliken charges =   2.00000   1.00000

 Dipole moment (field-independent basis, Debye):
    X=             -1.0531    Y=              2.0286    Z=              0.0007  Tot=              2.2856
 Quadrupole moment (field-independent basis, Debye-Ang):
   XX=              2.5723   YY=            -21.5781   ZZ=            -32.2290
   XY=             -0.8814   XZ=             -0.0024   YZ=             -0.0003

  Exact polarizability:  80.196  -0.783  48.199  -0.001   0.000  31.420
 Approx polarizability: 148.186  -1.566  95.253   0.014  -0.003  51.270

 ******    1 imaginary frequencies (negative Signs) ******

                      1                      2                      3
                      A                      A                      A
 Frequencies --   -164.0677               163.8957               490.2388
 Red. masses --      1.8931                15.7052                 5.7887
 Frc consts  --      0.0300                 0.2486                 0.8197
 IR Inten    --      2.9417                 0.1774                14.8876

                      4                      5                      6
                      A                      A                      A
 Frequencies --    521.6997               742.6550               807.6429
 Red. masses --      1.1639                 4.7820                 1.4118
 Frc consts  --      0.1866                 1.5539                 0.5426
 IR Inten    --     53.1065                 3.0862                15.5493

                      7                      8                      9
                      A                      A                      A
 Frequencies --    961.1155               983.0076              1018.0227
 Red. masses --      1.4331                 2.3176                 1.3710
 Frc consts  --      0.7800                 1.3195                 0.8371
 IR Inten    --      2.9714                 0.7671                18.1946

                     10                     11                     12
                      A                      A                      A
 Frequencies --   1169.5769              1282.9743              1392.2007
 Red. masses --      2.1702                 1.6826                 1.4541
 Frc consts  --      1.7491                 1.6318                 1.6606
 IR Inten    --      0.6661                 6.9801                 1.1771

                     13                     14                     15
                      A                      A                      A
 Frequencies --   2543.9912              2972.8452              3131.5779
 Red. masses --      1.0396                 1.0819                 1.0924
 Frc consts  --      3.9643                 5.6336                 6.3119
 IR Inten    --    190.4867               112.9551                81.9292

 - Thermochemistry -
 -------------------
 Temperature   298.150 Kelvin.  Pressure   1.00000 Atm.
 Atom     1 has atomic number 16 and mass  31.97207

 Molecular mass:    90.96762 amu.
 Principal axes and moments of inertia in atomic units:
                           1         2         3
     Eigenvalues --   126.91042 786.88490 913.79526
           X            1.00000  -0.00291  -0.00001
           Y            0.00291   1.00000   0.00001
           Z            0.00001  -0.00001   1.00000
 This molecule is an asymmetric top.
 Rotational symmetry number  1.
 Rotational temperatures (Kelvin)      0.68248     0.11007     0.09478
 Rotational constants (GHZ):          14.22059     2.29353     1.97500
    1 imaginary frequencies ignored.
 Zero-point vibrational energy     108749.2 (Joules/Mol)
                                   25.99168 (Kcal/Mol)
 Warning -- explicit consideration of   3 degrees of freedom as
           vibrations may cause significant error
 Vibrational temperatures:    235.81   705.34   750.61  1068.51  1162.02
          (Kelvin)           1382.83  1414.33  1464.71  1682.76  1845.91
                             2003.06  3660.23  4277.26  4505.64

 Zero-point correction=                           0.041420 (Hartree/Particle)
 Thermal correction to Energy=                    0.045640
 Thermal correction to Enthalpy=                  0.046585
 Thermal correction to Gibbs Free Energy=         0.012625
 Sum of electronic and zero-point Energies=           -873.569283
 Sum of electronic and thermal Energies=              -873.565063
 Sum of electronic and thermal Enthalpies=            -873.564119
 Sum of electronic and thermal Free Energies=         -873.598078

                     E (Thermal)             CV                S
                      KCal/Mol        Cal/Mol-Kelvin    Cal/Mol-Kelvin
 Total                   28.640             13.379             71.473
 Electronic               0.000              0.000              1.377
 Translational            0.889              2.981             39.436
 Rotational               0.889              2.981             26.015
 Vibrational             26.862              7.417              4.645
 Vibration     1          0.623              1.887              2.504
 Vibration     2          0.846              1.272              0.683
 Vibration     3          0.877              1.202              0.606

 Optimization completed.
    -- Stationary point found.
 Normal termination of Gaussian 09 at Wed Aug  3 20:49:13 2016.
