 Gaussian 09, Revision E.01,
 Gaussian 09:  EM64L-G09RevE.01 30-Nov-2015

 ------------------------------
 #p b3lyp/6-311++G(3df,2p) freq
 ------------------------------

 ---------
 b3lyp opt
 ---------
 Symbolic Z-matrix:
 Charge =  0 Multiplicity = 2

                         Standard orientation:
 ---------------------------------------------------------------------
 Center     Atomic      Atomic             Coordinates (Angstroms)
 Number     Number       Type             X           Y           Z
 ---------------------------------------------------------------------
      1         16           0       -0.295997    0.000538    0.008315
      2          6           0        1.326252    0.000421    0.023409
      3          1           0       -0.933147   -1.034330   -0.659941
      4          1           0       -1.337270   -0.018687    1.023380
      5          1           0       -0.951142    1.041880   -0.636929
 ---------------------------------------------------------------------

 SCF Done:  E(UB3LYP) =  -437.848533425     A.U. after   19 cycles

 The electronic state is 2-A.
 Alpha  occ. eigenvalues --  -88.98557 -10.19003  -8.05997  -6.02250  -6.02021
 Alpha  occ. eigenvalues --   -6.01903  -0.88151  -0.63977  -0.52727  -0.48611
 Alpha  occ. eigenvalues --   -0.30774  -0.23811  -0.21314
 Alpha virt. eigenvalues --   -0.06452  -0.02701  -0.01595   0.00527   0.03164
 Alpha virt. eigenvalues --    0.04262   0.05815   0.07836   0.08143   0.09158
 Alpha virt. eigenvalues --    0.10362   0.10911   0.11843   0.14316   0.16511

  Beta  occ. eigenvalues --  -88.98580 -10.17997  -8.05990  -6.02208  -6.02047
  Beta  occ. eigenvalues --   -6.01917  -0.87054  -0.61423  -0.51113  -0.48370
  Beta  occ. eigenvalues --   -0.28765  -0.20250
  Beta virt. eigenvalues --   -0.11853  -0.06106  -0.02275   0.00040   0.00701
  Beta virt. eigenvalues --    0.03851   0.04486   0.06026   0.07916   0.08536
  Beta virt. eigenvalues --    0.09245   0.10598   0.12031   0.12410   0.14570

 Mulliken charges and spin densities:
               1          2
     1  S    0.272395   0.140689
     2  C   -0.556943   0.700571
     3  H    0.124072   0.100551
     4  H    0.039746  -0.037293
     5  H    0.120730   0.095482
 Sum of Mulliken charges =   0.00000   1.00000

 Dipole moment (field-independent basis, Debye):
    X=             -4.5954    Y=              0.0006    Z=             -0.8400  Tot=              4.6715
 Quadrupole moment (field-independent basis, Debye-Ang):
   XX=            -26.5521   YY=            -19.6528   ZZ=            -22.1472
   XY=              0.0245   XZ=              0.3567   YZ=              0.0938

  Exact polarizability:  66.698  -0.015  34.856  -3.537  -0.290  39.640
 Approx polarizability: 136.420  -0.033  51.547 -10.144  -0.387  58.940

 ******    1 imaginary frequencies (negative Signs) ******

                      1                      2                      3
                      A                      A                      A
 Frequencies --   -295.3190               543.8580               890.0348
 Red. masses --      1.2287                 1.2444                 1.1361
 Frc consts  --      0.0631                 0.2169                 0.5302
 IR Inten    --      4.7449                75.7021                 0.0786

                      4                      5                      6
                      A                      A                      A
 Frequencies --    920.1735              1199.7722              1299.4664
 Red. masses --      4.2411                 1.0526                 1.1431
 Frc consts  --      2.1158                 0.8927                 1.1373
 IR Inten    --      3.8666                20.7626                74.6655

                      7                      8                      9
                      A                      A                      A
 Frequencies --   1684.3441              2118.6242              2228.3282
 Red. masses --      1.0499                 1.0488                 1.0311
 Frc consts  --      1.7550                 2.7735                 3.0165
 IR Inten    --    668.4440                85.8444               207.7584

 - Thermochemistry -
 -------------------
 Temperature   298.150 Kelvin.  Pressure   1.00000 Atm.
 Atom     1 has atomic number 16 and mass  31.97207

 Molecular mass:    46.99555 amu.
 Principal axes and moments of inertia in atomic units:
                           1         2         3
     Eigenvalues --    14.57868 104.24708 105.18524
           X            0.99999  -0.00000  -0.00502
           Y            0.00000   1.00000  -0.00025
           Z            0.00502   0.00025   0.99999
 This molecule is an asymmetric top.
 Rotational symmetry number  1.
 Rotational temperatures (Kelvin)      5.94113     0.83085     0.82344
 Rotational constants (GHZ):         123.79315    17.31215    17.15774
    1 imaginary frequencies ignored.
 Zero-point vibrational energy      65104.4 (Joules/Mol)
                                   15.56032 (Kcal/Mol)
 Warning -- explicit consideration of   1 degrees of freedom as
           vibrations may cause significant error
 Vibrational temperatures:    782.49  1280.56  1323.92  1726.20  1869.64
          (Kelvin)           2423.39  3048.22  3206.06

 Zero-point correction=                           0.024797 (Hartree/Particle)
 Thermal correction to Energy=                    0.027960
 Thermal correction to Enthalpy=                  0.028904
 Thermal correction to Gibbs Free Energy=         0.000653
 Sum of electronic and zero-point Energies=           -437.823736
 Sum of electronic and thermal Energies=              -437.820573
 Sum of electronic and thermal Enthalpies=            -437.819629
 Sum of electronic and thermal Free Energies=         -437.847880

                     E (Thermal)             CV                S
                      KCal/Mol        Cal/Mol-Kelvin    Cal/Mol-Kelvin
 Total                   17.545              8.506             59.460
 Electronic               0.000              0.000              1.377
 Translational            0.889              2.981             37.467
 Rotational               0.889              2.981             19.708
 Vibrational             15.768              2.545              0.907
 Vibration     1          0.899              1.153              0.557

 Normal termination of Gaussian 09 at Wed Aug  3 20:08:45 2016.
