 Gaussian 09, Revision E.01,
 Gaussian 09:  EM64L-G09RevE.01 30-Nov-2015

 ------------------------------
 #p b3lyp/6-311++G(3df,2p) freq
 ------------------------------

 ---------
 b3lyp opt
 ---------
 Symbolic Z-matrix:
 Charge =  2 Multiplicity = 2

                         Standard orientation:
 ---------------------------------------------------------------------
 Center     Atomic      Atomic             Coordinates (Angstroms)
 Number     Number       Type             X           Y           Z
 ---------------------------------------------------------------------
      1         16           0        0.000002    0.000002   -0.000007
      2          1           0       -0.865120    1.113506    0.000036
      3          1           0       -0.531812   -1.305958    0.000036
      4          1           0        1.396905    0.192420    0.000036
 ---------------------------------------------------------------------

 SCF Done:  E(UB3LYP) =  -398.961189169     A.U. after    9 cycles

 The electronic state is 2-A.
 Alpha  occ. eigenvalues --  -89.61667  -8.69505  -6.66585  -6.65263  -6.65262
 Alpha  occ. eigenvalues --   -1.44668  -1.10974  -1.10973  -0.97550
 Alpha virt. eigenvalues --   -0.63495  -0.56431  -0.56430  -0.39884  -0.39884
 Alpha virt. eigenvalues --   -0.39532  -0.34830  -0.34826  -0.30358  -0.21316
 Alpha virt. eigenvalues --   -0.19588  -0.19584  -0.16678  -0.14266  -0.14253

  Beta  occ. eigenvalues --  -89.60901  -8.68788  -6.64789  -6.64788  -6.64304
  Beta  occ. eigenvalues --   -1.40327  -1.10196  -1.10196
  Beta virt. eigenvalues --   -0.81121  -0.61022  -0.55813  -0.55812  -0.37682
  Beta virt. eigenvalues --   -0.36545  -0.36545  -0.34666  -0.34664  -0.29150
  Beta virt. eigenvalues --   -0.20967  -0.19559  -0.19558  -0.14776  -0.14122

 Mulliken charges and spin densities:
               1          2
     1  S    0.795604   1.075563
     2  H    0.401460  -0.025187
     3  H    0.401464  -0.025188
     4  H    0.401471  -0.025188
 Sum of Mulliken charges =   2.00000   1.00000

 Dipole moment (field-independent basis, Debye):
    X=              0.0000    Y=             -0.0000    Z=              0.0001  Tot=              0.0001
 Quadrupole moment (field-independent basis, Debye-Ang):
   XX=             -3.9632   YY=             -3.9636   ZZ=            -10.0475
   XY=              0.0000   XZ=              0.0000   YZ=             -0.0000

  Exact polarizability:  15.861   0.000  15.861   0.000  -0.000  10.564
 Approx polarizability:  23.025   0.000  23.024   0.000  -0.000  15.159

 ******    1 imaginary frequencies (negative Signs) ******

                      1                      2                      3
                      A                      A                      A
 Frequencies --   -315.2985               987.6391               988.1415
 Red. masses --      1.0999                 1.0429                 1.0429
 Frc consts  --      0.0644                 0.5993                 0.5999
 IR Inten    --    201.3092                 4.7188                 4.7019

                      4                      5                      6
                      A                      A                      A
 Frequencies --   2181.3476              2198.7721              2201.3669
 Red. masses --      1.0082                 1.0609                 1.0606
 Frc consts  --      2.8265                 3.0220                 3.0281
 IR Inten    --      6.5683               867.5905               862.0768

 - Thermochemistry -
 -------------------
 Temperature   298.150 Kelvin.  Pressure   1.00000 Atm.
 Atom     1 has atomic number 16 and mass  31.97207

 Molecular mass:    34.99555 amu.
 Principal axes and moments of inertia in atomic units:
                           1         2         3
     Eigenvalues --    10.73385  10.73440  21.46825
           X            1.00000  -0.00000   0.00000
           Y            0.00000   1.00000   0.00000
           Z           -0.00000  -0.00000   1.00000
 This molecule is an asymmetric top.
 Rotational symmetry number  1.
 Rotational temperatures (Kelvin)      8.06922     8.06881     4.03451
 Rotational constants (GHZ):         168.13549   168.12685    84.06559
    1 imaginary frequencies ignored.
 Zero-point vibrational energy      51183.8 (Joules/Mol)
                                   12.23323 (Kcal/Mol)
 Vibrational temperatures:   1420.99  1421.71  3138.47  3163.54  3167.27
          (Kelvin)

 Zero-point correction=                           0.019495 (Hartree/Particle)
 Thermal correction to Energy=                    0.022405
 Thermal correction to Enthalpy=                  0.023350
 Thermal correction to Gibbs Free Energy=        -0.002179
 Sum of electronic and zero-point Energies=           -398.941694
 Sum of electronic and thermal Energies=              -398.938784
 Sum of electronic and thermal Enthalpies=            -398.937840
 Sum of electronic and thermal Free Energies=         -398.963369

                     E (Thermal)             CV                S
                      KCal/Mol        Cal/Mol-Kelvin    Cal/Mol-Kelvin
 Total                   14.060              6.760             53.730
 Electronic               0.000              0.000              1.377
 Translational            0.889              2.981             36.588
 Rotational               0.889              2.981             15.566
 Vibrational             12.282              0.798              0.198

 Optimization completed.
    -- Stationary point found.
 Normal termination of Gaussian 09 at Wed Aug  3 20:11:31 2016.
