 Gaussian 09, Revision E.01,
 Gaussian 09:  EM64L-G09RevE.01 30-Nov-2015

 ------------------------------
 #p b3lyp/6-311++G(3df,2p) freq
 ------------------------------

 ---------
 b3lyp opt
 ---------
 Symbolic Z-matrix:
 Charge =  2 Multiplicity = 3

                         Standard orientation:
 ---------------------------------------------------------------------
 Center     Atomic      Atomic             Coordinates (Angstroms)
 Number     Number       Type             X           Y           Z
 ---------------------------------------------------------------------
      1         16           0        1.504159   -0.241383   -0.022212
      2         16           0       -1.620650   -0.144430   -0.095302
      3          6           0       -0.059386    0.638617    0.053203
      4          1           0        2.163948    0.625935   -0.847029
      5          1           0       -1.932858   -0.274332    1.241506
      6          1           0       -0.070818    1.732589    0.041323
      7          1           0        2.059908    0.257111    1.125201
 ---------------------------------------------------------------------

 SCF Done:  E(UB3LYP) =  -836.053745007     A.U. after   13 cycles

 The electronic state is 3-A.
 Alpha  occ. eigenvalues --  -89.41243 -89.38621 -10.71325  -8.49089  -8.46793
 Alpha  occ. eigenvalues --   -6.45950  -6.45023  -6.44671  -6.43052  -6.42815
 Alpha  occ. eigenvalues --   -6.42402  -1.32087  -1.25416  -1.08622  -0.94201
 Alpha  occ. eigenvalues --   -0.92918  -0.91630  -0.85715  -0.80782  -0.77810
 Alpha  occ. eigenvalues --   -0.71230
 Alpha virt. eigenvalues --   -0.46295  -0.42245  -0.41757  -0.41212  -0.36697
 Alpha virt. eigenvalues --   -0.31061  -0.28434  -0.27136  -0.26584  -0.25516
 Alpha virt. eigenvalues --   -0.25068  -0.23890  -0.23557  -0.21395  -0.20350

  Beta  occ. eigenvalues --  -89.40604 -89.38624 -10.69900  -8.48489  -8.46787
  Beta  occ. eigenvalues --   -6.44693  -6.44293  -6.43936  -6.43026  -6.42826
  Beta  occ. eigenvalues --   -6.42403  -1.29338  -1.23091  -1.05004  -0.92439
  Beta  occ. eigenvalues --   -0.91368  -0.90055  -0.83206  -0.79685
  Beta virt. eigenvalues --   -0.64147  -0.56773  -0.44276  -0.41453  -0.40694
  Beta virt. eigenvalues --   -0.39450  -0.34929  -0.30349  -0.27233  -0.26756
  Beta virt. eigenvalues --   -0.26014  -0.24856  -0.23437  -0.22977  -0.22453

 Mulliken charges and spin densities:
               1          2
     1  S    0.243020   0.029960
     2  S    0.553238   0.963641
     3  C    0.102577   0.879069
     4  H    0.281289   0.023945
     5  H    0.262980   0.054542
     6  H    0.270616   0.007469
     7  H    0.286280   0.041375
 Sum of Mulliken charges =   2.00000   2.00000

 Dipole moment (field-independent basis, Debye):
    X=              0.7758    Y=              1.3734    Z=              1.3441  Tot=              2.0724
 Quadrupole moment (field-independent basis, Debye-Ang):
   XX=              2.7497   YY=            -23.4933   ZZ=            -22.9976
   XY=              2.5981   XZ=             -2.1138   YZ=             -0.8645

  Exact polarizability:  59.360   2.785  33.870  -1.349  -0.705  34.293
 Approx polarizability:  85.560   5.422  54.155  -1.689  -1.364  56.474

 ******    1 imaginary frequencies (negative Signs) ******

                      1                      2                      3
                      A                      A                      A
 Frequencies --     -5.7772               242.2644               310.2324
 Red. masses --      1.1041                10.9865                 1.4380
 Frc consts  --      0.0000                 0.3799                 0.0815
 IR Inten    --     18.9594                 0.4866                29.4549

                      4                      5                      6
                      A                      A                      A
 Frequencies --    557.5877               586.4288               762.5988
 Red. masses --      1.3860                 2.6001                 3.0518
 Frc consts  --      0.2539                 0.5268                 1.0457
 IR Inten    --     31.4441                 4.6486                 2.6972

                      7                      8                      9
                      A                      A                      A
 Frequencies --    866.1835               867.8297               905.1223
 Red. masses --      1.1298                 1.0712                 1.4021
 Frc consts  --      0.4994                 0.4753                 0.6768
 IR Inten    --     17.6842                 3.5569                16.6468

                     10                     11                     12
                      A                      A                      A
 Frequencies --   1149.8448              1176.8074              2422.5891
 Red. masses --      1.0761                 1.1049                 1.0394
 Frc consts  --      0.8382                 0.9015                 3.5942
 IR Inten    --      4.5040                 4.0381               125.5751

                     13                     14                     15
                      A                      A                      A
 Frequencies --   2491.7887              2513.0131              3056.3379
 Red. masses --      1.0381                 1.0385                 1.0845
 Frc consts  --      3.7976                 3.8640                 5.9686
 IR Inten    --    145.7424               148.2814               125.3494

 - Thermochemistry -
 -------------------
 Temperature   298.150 Kelvin.  Pressure   1.00000 Atm.
 Atom     1 has atomic number 16 and mass  31.97207

 Molecular mass:    79.97544 amu.
 Principal axes and moments of inertia in atomic units:
                           1         2         3
     Eigenvalues --    52.59793 617.52446 642.91038
           X            0.99983   0.01391  -0.01218
           Y           -0.01472   0.99753  -0.06864
           Z            0.01119   0.06880   0.99757
 This molecule is an asymmetric top.
 Rotational symmetry number  1.
 Rotational temperatures (Kelvin)      1.64672     0.14026     0.13472
 Rotational constants (GHZ):          34.31202     2.92254     2.80714
    1 imaginary frequencies ignored.
 Zero-point vibrational energy     107117.4 (Joules/Mol)
                                   25.60167 (Kcal/Mol)
 Warning -- explicit consideration of   4 degrees of freedom as
           vibrations may cause significant error
 Vibrational temperatures:    348.56   446.35   802.24   843.74  1097.21
          (Kelvin)           1246.24  1248.61  1302.27  1654.37  1693.16
                             3485.56  3585.12  3615.66  4397.38

 Zero-point correction=                           0.040799 (Hartree/Particle)
 Thermal correction to Energy=                    0.045193
 Thermal correction to Enthalpy=                  0.046137
 Thermal correction to Gibbs Free Energy=         0.012533
 Sum of electronic and zero-point Energies=           -836.012946
 Sum of electronic and thermal Energies=              -836.008552
 Sum of electronic and thermal Enthalpies=            -836.007608
 Sum of electronic and thermal Free Energies=         -836.041212

                     E (Thermal)             CV                S
                      KCal/Mol        Cal/Mol-Kelvin    Cal/Mol-Kelvin
 Total                   28.359             14.342             70.726
 Electronic               0.000              0.000              2.183
 Translational            0.889              2.981             39.052
 Rotational               0.889              2.981             24.549
 Vibrational             26.582              8.381              4.942
 Vibration     1          0.658              1.776              1.786
 Vibration     2          0.699              1.654              1.361
 Vibration     3          0.913              1.123              0.529
 Vibration     4          0.944              1.061              0.474

 Normal termination of Gaussian 09 at Wed Aug  3 20:35:59 2016.
