 Gaussian 09, Revision E.01,
 Gaussian 09:  EM64L-G09RevE.01 30-Nov-2015

 ------------------------------
 #p b3lyp/6-311++G(3df,2p) freq
 ------------------------------

 ---------
 b3lyp opt
 ---------
 Symbolic Z-matrix:
 Charge =  2 Multiplicity = 1

                         Standard orientation:
 ---------------------------------------------------------------------
 Center     Atomic      Atomic             Coordinates (Angstroms)
 Number     Number       Type             X           Y           Z
 ---------------------------------------------------------------------
      1         16           0       -1.548413   -0.254004   -0.000129
      2         16           0        1.609278   -0.087994   -0.000315
      3          6           0       -0.006279    0.551726   -0.000365
      4          1           0       -0.003606    1.347336    0.815572
      5          1           0        1.360734   -1.433946    0.002325
      6          1           0       -0.003693    1.354942   -0.807870
      7          1           0       -2.289602    0.893288   -0.000737
 ---------------------------------------------------------------------

 SCF Done:  E(RB3LYP) =  -836.051547848     A.U. after   13 cycles

 The electronic state is 1-A.
 Alpha  occ. eigenvalues --  -89.39773 -89.39439 -10.72774  -8.47760  -8.47458
 Alpha  occ. eigenvalues --   -6.43894  -6.43818  -6.43605  -6.43507  -6.43454
 Alpha  occ. eigenvalues --   -6.43151  -1.33059  -1.23769  -1.10468  -0.95080
 Alpha  occ. eigenvalues --   -0.91964  -0.91757  -0.83164  -0.81876  -0.73743
 Alpha virt. eigenvalues --   -0.66312  -0.46071  -0.42662  -0.39186  -0.36841
 Alpha virt. eigenvalues --   -0.35615  -0.34341  -0.29479  -0.27036  -0.26640
 Alpha virt. eigenvalues --   -0.24629  -0.23868  -0.23325  -0.21905  -0.21092

 Mulliken charges:
               1
     1  S    0.426169
     2  S    0.413846
     3  C    0.004775
     4  H    0.312965
     5  H    0.258272
     6  H    0.312092
     7  H    0.271881
 Sum of Mulliken charges =   2.00000

 Dipole moment (field-independent basis, Debye):
    X=             -0.7164    Y=              1.4298    Z=              0.0083  Tot=              1.5993
 Quadrupole moment (field-independent basis, Debye-Ang):
   XX=             -3.3673   YY=            -18.7910   ZZ=            -26.0782
   XY=             -4.3670   XZ=              0.0053   YZ=              0.0067

  Exact polarizability:  92.187  -2.884  39.215   0.002   0.003  29.891
 Approx polarizability: 431.647   5.898  69.371  -0.007   0.022  50.595

 ******    1 imaginary frequencies (negative Signs) ******

                      1                      2                      3
                      A                      A                      A
 Frequencies --   -194.2020               292.1189               355.7269
 Red. masses --      1.1875                 5.6856                 1.0575
 Frc consts  --      0.0264                 0.2859                 0.0788
 IR Inten    --     40.0097                 8.9608                55.0828

                      4                      5                      6
                      A                      A                      A
 Frequencies --    518.7770               600.9205               870.0045
 Red. masses --      1.6324                 5.3958                 1.0197
 Frc consts  --      0.2588                 1.1480                 0.4547
 IR Inten    --      1.6348                11.5830                 0.5650

                      7                      8                      9
                      A                      A                      A
 Frequencies --    879.6765               910.9371               936.0390
 Red. masses --      1.2191                 1.9681                 1.0622
 Frc consts  --      0.5558                 0.9622                 0.5483
 IR Inten    --     47.7166               118.3102               121.0060

                     10                     11                     12
                      A                      A                      A
 Frequencies --   1046.5488              1130.4562              2515.2690
 Red. masses --      1.2432                 1.5027                 1.0396
 Frc consts  --      0.8023                 1.1314                 3.8751
 IR Inten    --     17.8284                39.0722               189.4724

                     13                     14                     15
                      A                      A                      A
 Frequencies --   2530.0147              2601.5389              2679.8279
 Red. masses --      1.0403                 1.0688                 1.0725
 Frc consts  --      3.9233                 4.2618                 4.5379
 IR Inten    --    125.4301               174.9564               306.8769

 - Thermochemistry -
 -------------------
 Temperature   298.150 Kelvin.  Pressure   1.00000 Atm.
 Atom     1 has atomic number 16 and mass  31.97207

 Molecular mass:    79.97544 amu.
 Principal axes and moments of inertia in atomic units:
                           1         2         3
     Eigenvalues --    48.87777 600.03450 639.42658
           X            0.99967  -0.02588   0.00003
           Y            0.02588   0.99967   0.00003
           Z           -0.00003  -0.00003   1.00000
 This molecule is an asymmetric top.
 Rotational symmetry number  1.
 Rotational temperatures (Kelvin)      1.77205     0.14435     0.13546
 Rotational constants (GHZ):          36.92356     3.00773     2.82244
    1 imaginary frequencies ignored.
 Zero-point vibrational energy     106873.5 (Joules/Mol)
                                   25.54338 (Kcal/Mol)
 Warning -- explicit consideration of   4 degrees of freedom as
           vibrations may cause significant error
 Vibrational temperatures:    420.29   511.81   746.40   864.59  1251.74
          (Kelvin)           1265.66  1310.63  1346.75  1505.75  1626.47
                             3618.91  3640.12  3743.03  3855.67

 Zero-point correction=                           0.040706 (Hartree/Particle)
 Thermal correction to Energy=                    0.044964
 Thermal correction to Enthalpy=                  0.045909
 Thermal correction to Gibbs Free Energy=         0.013669
 Sum of electronic and zero-point Energies=           -836.010842
 Sum of electronic and thermal Energies=              -836.006583
 Sum of electronic and thermal Enthalpies=            -836.005639
 Sum of electronic and thermal Free Energies=         -836.037879

                     E (Thermal)             CV                S
                      KCal/Mol        Cal/Mol-Kelvin    Cal/Mol-Kelvin
 Total                   28.216             14.049             67.854
 Electronic               0.000              0.000              0.000
 Translational            0.889              2.981             39.052
 Rotational               0.889              2.981             24.443
 Vibrational             26.438              8.088              4.360
 Vibration     1          0.687              1.688              1.462
 Vibration     2          0.731              1.563              1.141
 Vibration     3          0.874              1.208              0.613
 Vibration     4          0.959              1.030              0.448

 Normal termination of Gaussian 09 at Wed Aug  3 20:35:11 2016.
