 Gaussian 09, Revision E.01,
 Gaussian 09:  EM64L-G09RevE.01 30-Nov-2015

 ------------------------------
 #p b3lyp/6-311++G(3df,2p) freq
 ------------------------------

 ---------
 b3lyp opt
 ---------
 Symbolic Z-matrix:
 Charge =  2 Multiplicity = 1

                         Standard orientation:
 ---------------------------------------------------------------------
 Center     Atomic      Atomic             Coordinates (Angstroms)
 Number     Number       Type             X           Y           Z
 ---------------------------------------------------------------------
      1         16           0       -0.708128   -0.000507   -0.117121
      2          6           0        1.135850    0.000759    0.085707
      3          1           0        1.580206    1.022625   -0.173448
      4          1           0       -0.971945   -1.002607    0.772931
      5          1           0        1.720914   -0.000185   -0.928098
      6          1           0        1.581161   -1.019751   -0.181154
      7          1           0        1.577445   -0.004870    1.104401
      8          1           0       -0.972842    1.008353    0.765061
 ---------------------------------------------------------------------

 SCF Done:  E(RB3LYP) =  -439.041666803     A.U. after   10 cycles

 The electronic state is 1-A.
 Alpha  occ. eigenvalues --  -89.41997 -10.74838  -8.50157  -6.46438  -6.46159
 Alpha  occ. eigenvalues --   -6.45752  -1.34428  -1.23787  -1.00080  -0.99058
 Alpha  occ. eigenvalues --   -0.95272  -0.92596  -0.83538
 Alpha virt. eigenvalues --   -0.50034  -0.48225  -0.45650  -0.42200  -0.38800
 Alpha virt. eigenvalues --   -0.35025  -0.32044  -0.29056  -0.28558  -0.28052
 Alpha virt. eigenvalues --   -0.27252  -0.24754  -0.23186  -0.21212  -0.19790

 Mulliken charges:
               1
     1  S    0.390523
     2  C   -0.133365
     3  H    0.291940
     4  H    0.285911
     5  H    0.298909
     6  H    0.292090
     7  H    0.287977
     8  H    0.286015
 Sum of Mulliken charges =   2.00000

 Dipole moment (field-independent basis, Debye):
    X=              4.2438    Y=             -0.0015    Z=              0.7374  Tot=              4.3074
 Quadrupole moment (field-independent basis, Debye-Ang):
   XX=              0.8671   YY=            -11.6464   ZZ=            -13.5041
   XY=             -0.0230   XZ=             -3.3530   YZ=             -0.0012

  Exact polarizability:  33.140  -0.008  26.276  -1.460  -0.001  24.838
 Approx polarizability:  46.819  -0.014  42.967  -2.480  -0.000  39.149

 ******    1 imaginary frequencies (negative Signs) ******

                      1                      2                      3
                      A                      A                      A
 Frequencies --   -435.1751               159.3745               487.1110
 Red. masses --      1.1521                 1.0265                 1.1289
 Frc consts  --      0.1285                 0.0154                 0.1578
 IR Inten    --    244.6129                58.0816               168.4442

                      4                      5                      6
                      A                      A                      A
 Frequencies --    649.3767               766.2440               773.5451
 Red. masses --      4.3767                 1.0861                 1.0347
 Frc consts  --      1.0874                 0.3757                 0.3648
 IR Inten    --     14.1911                24.3138                 0.2495

                      7                      8                      9
                      A                      A                      A
 Frequencies --    974.8535              1036.9723              1165.4144
 Red. masses --      1.2084                 1.1448                 1.0395
 Frc consts  --      0.6766                 0.7253                 0.8318
 IR Inten    --      0.1636                 0.6130                25.6150

                     10                     11                     12
                      A                      A                      A
 Frequencies --   1197.2139              1309.5277              1393.6024
 Red. masses --      1.0139                 1.2000                 1.0192
 Frc consts  --      0.8562                 1.2124                 1.1662
 IR Inten    --      7.7224                 9.6949                 4.7049

                     13                     14                     15
                      A                      A                      A
 Frequencies --   2445.4680              2525.0722              2527.6830
 Red. masses --      1.0256                 1.0353                 1.0430
 Frc consts  --      3.6136                 3.8892                 3.9262
 IR Inten    --     90.1576               147.2194               141.2600

                     16                     17                     18
                      A                      A                      A
 Frequencies --   2631.3489              2751.0839              2931.9989
 Red. masses --      1.0652                 1.1114                 1.0901
 Frc consts  --      4.3454                 4.9558                 5.5215
 IR Inten    --    130.5772               311.5475               215.4340

 - Thermochemistry -
 -------------------
 Temperature   298.150 Kelvin.  Pressure   1.00000 Atm.
 Atom     1 has atomic number 16 and mass  31.97207

 Molecular mass:    50.01902 amu.
 Principal axes and moments of inertia in atomic units:
                           1         2         3
     Eigenvalues --    28.22570 169.24829 170.58980
           X            0.99901  -0.00036  -0.04454
           Y            0.00027   1.00000  -0.00204
           Z            0.04454   0.00202   0.99901
 This molecule is an asymmetric top.
 Rotational symmetry number  1.
 Rotational temperatures (Kelvin)      3.06862     0.51176     0.50773
 Rotational constants (GHZ):          63.93965    10.66328    10.57942
    1 imaginary frequencies ignored.
 Zero-point vibrational energy     153875.0 (Joules/Mol)
                                   36.77701 (Kcal/Mol)
 Warning -- explicit consideration of   2 degrees of freedom as
           vibrations may cause significant error
 Vibrational temperatures:    229.30   700.84   934.31  1102.45  1112.96
          (Kelvin)           1402.60  1491.97  1676.77  1722.52  1884.12
                             2005.08  3518.48  3633.01  3636.77  3785.92
                             3958.19  4218.49

 Zero-point correction=                           0.058608 (Hartree/Particle)
 Thermal correction to Energy=                    0.062739
 Thermal correction to Enthalpy=                  0.063683
 Thermal correction to Gibbs Free Energy=         0.033566
 Sum of electronic and zero-point Energies=           -438.983059
 Sum of electronic and thermal Energies=              -438.978928
 Sum of electronic and thermal Enthalpies=            -438.977984
 Sum of electronic and thermal Free Energies=         -439.008100

                     E (Thermal)             CV                S
                      KCal/Mol        Cal/Mol-Kelvin    Cal/Mol-Kelvin
 Total                   39.369             12.903             63.386
 Electronic               0.000              0.000              0.000
 Translational            0.889              2.981             37.653
 Rotational               0.889              2.981             21.327
 Vibrational             37.592              6.941              4.406
 Vibration     1          0.621              1.892              2.557
 Vibration     2          0.843              1.279              0.691

 Normal termination of Gaussian 09 at Wed Aug  3 20:50:17 2016.
