 Gaussian 09, Revision E.01,
 Gaussian 09:  EM64L-G09RevE.01 30-Nov-2015

 ------------------------------
 #p b3lyp/6-311++G(3df,2p) freq
 ------------------------------

 ---------
 b3lyp opt
 ---------
 Symbolic Z-matrix:
 Charge =  2 Multiplicity = 1

                         Standard orientation:
 ---------------------------------------------------------------------
 Center     Atomic      Atomic             Coordinates (Angstroms)
 Number     Number       Type             X           Y           Z
 ---------------------------------------------------------------------
      1         16           0       -1.535375   -0.284337    0.000065
      2         16           0        1.628514   -0.100317   -0.000267
      3          6           0        0.003331    0.776038   -0.000126
      4          1           0        0.005766    1.405054    0.890377
      5          1           0       -2.209584    0.341876   -1.001900
      6          1           0        1.450036   -0.995431    1.007058
      7          1           0        0.005378    1.404880   -0.890753
      8          1           0       -2.209392    0.342024    1.002099
      9          1           0        1.447599   -1.000160   -1.002909
 ---------------------------------------------------------------------

 SCF Done:  E(RB3LYP) =  -837.390815681     A.U. after   10 cycles

 The electronic state is 1-A.
 Alpha  occ. eigenvalues --  -89.36242 -89.36198 -10.67973  -8.44512  -8.44501
 Alpha  occ. eigenvalues --   -6.40697  -6.40681  -6.40567  -6.40567  -6.40139
 Alpha  occ. eigenvalues --   -6.40126  -1.28727  -1.22798  -1.09455  -0.93552
 Alpha  occ. eigenvalues --   -0.89963  -0.89693  -0.87259  -0.83620  -0.77825
 Alpha  occ. eigenvalues --   -0.77648
 Alpha virt. eigenvalues --   -0.45680  -0.42564  -0.41121  -0.40004  -0.38221
 Alpha virt. eigenvalues --   -0.36426  -0.29933  -0.28014  -0.27681  -0.25954
 Alpha virt. eigenvalues --   -0.24772  -0.24329  -0.23470  -0.23057  -0.21260

 Mulliken charges:
               1
     1  S    0.226740
     2  S    0.289906
     3  C   -0.057343
     4  H    0.238982
     5  H    0.278527
     6  H    0.252927
     7  H    0.238894
     8  H    0.278502
     9  H    0.252864
 Sum of Mulliken charges =   2.00000

 Dipole moment (field-independent basis, Debye):
    X=             -1.3149    Y=              0.2207    Z=              0.0035  Tot=              1.3333
 Quadrupole moment (field-independent basis, Debye-Ang):
   XX=             -2.0330   YY=            -23.5290   ZZ=            -22.0314
   XY=             -4.5678   XZ=              0.0099   YZ=              0.0023

  Exact polarizability:  57.703  -1.950  39.359   0.004   0.001  38.308
 Approx polarizability:  81.947  -2.303  63.744   0.007   0.004  64.469

 ******    1 imaginary frequencies (negative Signs) ******

                      1                      2                      3
                      A                      A                      A
 Frequencies --   -120.3641               189.9261               242.2021
 Red. masses --      1.0650                 1.1569                 6.2549
 Frc consts  --      0.0091                 0.0246                 0.2162
 IR Inten    --     26.8776                25.8990                 6.3095

                      4                      5                      6
                      A                      A                      A
 Frequencies --    552.6922               654.7695               659.8562
 Red. masses --      4.4825                 1.1045                 4.9396
 Frc consts  --      0.8067                 0.2790                 1.2672
 IR Inten    --      6.1620                 0.0537                 6.8232

                      7                      8                      9
                      A                      A                      A
 Frequencies --    835.6532               844.7672               892.1314
 Red. masses --      1.1261                 1.0240                 1.2927
 Frc consts  --      0.4633                 0.4306                 0.6062
 IR Inten    --      9.8126                 0.0057                 5.3598

                     10                     11                     12
                      A                      A                      A
 Frequencies --   1001.3716              1177.7322              1182.4405
 Red. masses --      1.2921                 1.0352                 1.0422
 Frc consts  --      0.7634                 0.8460                 0.8585
 IR Inten    --     22.8963                 3.5472                11.8280

                     13                     14                     15
                      A                      A                      A
 Frequencies --   1230.9799              1296.7333              1408.7393
 Red. masses --      1.0300                 1.1448                 1.0621
 Frc consts  --      0.9196                 1.1342                 1.2419
 IR Inten    --      1.6479                17.6436                15.2211

                     16                     17                     18
                      A                      A                      A
 Frequencies --   2556.9415              2564.7403              2567.5998
 Red. masses --      1.0347                 1.0428                 1.0350
 Frc consts  --      3.9857                 4.0415                 4.0201
 IR Inten    --    156.7833               112.5371                61.1029

                     19                     20                     21
                      A                      A                      A
 Frequencies --   2579.6811              3065.7072              3134.2520
 Red. masses --      1.0433                 1.0570                 1.1136
 Frc consts  --      4.0906                 5.8533                 6.4455
 IR Inten    --     85.5054                51.3381                57.1956

 - Thermochemistry -
 -------------------
 Temperature   298.150 Kelvin.  Pressure   1.00000 Atm.
 Atom     1 has atomic number 16 and mass  31.97207

 Molecular mass:    81.99109 amu.
 Principal axes and moments of inertia in atomic units:
                           1         2         3
     Eigenvalues --    78.08236 642.73835 680.40950
           X            0.99962  -0.02766   0.00005
           Y            0.02766   0.99962   0.00003
           Z           -0.00005  -0.00003   1.00000
 This molecule is an asymmetric top.
 Rotational symmetry number  1.
 Rotational temperatures (Kelvin)      1.10926     0.13476     0.12730
 Rotational constants (GHZ):          23.11330     2.80789     2.65243
    1 imaginary frequencies ignored.
 Zero-point vibrational energy     171298.8 (Joules/Mol)
                                   40.94139 (Kcal/Mol)
 Warning -- explicit consideration of   3 degrees of freedom as
           vibrations may cause significant error
 Vibrational temperatures:    273.26   348.47   795.20   942.07   949.38
          (Kelvin)           1202.32  1215.43  1283.58  1440.75  1694.49
                             1701.27  1771.10  1865.71  2026.86  3678.86
                             3690.08  3694.20  3711.58  4410.86  4509.48

 Zero-point correction=                           0.065244 (Hartree/Particle)
 Thermal correction to Energy=                    0.069898
 Thermal correction to Enthalpy=                  0.070842
 Thermal correction to Gibbs Free Energy=         0.037487
 Sum of electronic and zero-point Energies=           -837.325571
 Sum of electronic and thermal Energies=              -837.320917
 Sum of electronic and thermal Enthalpies=            -837.319973
 Sum of electronic and thermal Free Energies=         -837.353329

                     E (Thermal)             CV                S
                      KCal/Mol        Cal/Mol-Kelvin    Cal/Mol-Kelvin
 Total                   43.862             15.491             70.203
 Electronic               0.000              0.000              0.000
 Translational            0.889              2.981             39.126
 Rotational               0.889              2.981             25.038
 Vibrational             42.084              9.529              6.038
 Vibration     1          0.633              1.854              2.229
 Vibration     2          0.658              1.776              1.787
 Vibration     3          0.908              1.134              0.539

 Normal termination of Gaussian 09 at Wed Aug  3 20:52:37 2016.
