 Gaussian 09, Revision E.01,
 Gaussian 09:  EM64L-G09RevE.01 30-Nov-2015

 ------------------------------
 #p b3lyp/6-311++G(3df,2p) freq
 ------------------------------

 ---------
 b3lyp opt
 ---------
 Symbolic Z-matrix:
 Charge =  0 Multiplicity = 4

                         Standard orientation:
 ---------------------------------------------------------------------
 Center     Atomic      Atomic             Coordinates (Angstroms)
 Number     Number       Type             X           Y           Z
 ---------------------------------------------------------------------
      1         16           0        1.402569   -0.046992    0.000937
      2         16           0       -1.402577   -0.046983    0.000937
      3          6           0        0.000001   -1.131847   -0.002081
      4          6           0        0.000007    1.030759   -0.003731
      5          1           0        0.000079    2.110129    0.004904
 ---------------------------------------------------------------------

 SCF Done:  E(UB3LYP) =  -873.050055551     A.U. after   18 cycles

 The electronic state is 4-A.
 Alpha  occ. eigenvalues --  -88.89560 -88.89559 -10.26958 -10.25360  -7.97878
 Alpha  occ. eigenvalues --   -7.97876  -5.94289  -5.94289  -5.93868  -5.93868
 Alpha  occ. eigenvalues --   -5.93463  -5.93463  -0.90769  -0.74712  -0.67939
 Alpha  occ. eigenvalues --   -0.52952  -0.47854  -0.45114  -0.41861  -0.35296
 Alpha  occ. eigenvalues --   -0.30075  -0.28788  -0.26286  -0.15483
 Alpha virt. eigenvalues --   -0.07997   0.00083   0.00590   0.01790   0.02854
 Alpha virt. eigenvalues --    0.03856   0.04174   0.06363   0.06479   0.07201
 Alpha virt. eigenvalues --    0.08316   0.08816   0.11067   0.11761   0.11865

  Beta  occ. eigenvalues --  -88.89392 -88.89392 -10.24153 -10.23931  -7.97716
  Beta  occ. eigenvalues --   -7.97713  -5.94079  -5.94078  -5.93812  -5.93812
  Beta  occ. eigenvalues --   -5.93013  -5.93012  -0.88160  -0.73484  -0.63112
  Beta  occ. eigenvalues --   -0.48890  -0.44984  -0.43383  -0.36527  -0.34004
  Beta  occ. eigenvalues --   -0.26359
  Beta virt. eigenvalues --   -0.14245  -0.10461  -0.05864  -0.03252   0.00258
  Beta virt. eigenvalues --    0.01185   0.02670   0.03423   0.04347   0.04414
  Beta virt. eigenvalues --    0.06874   0.07155   0.07252   0.09308   0.10093

 Mulliken charges and spin densities:
               1          2
     1  S   -0.297802   0.288958
     2  S   -0.297794   0.288940
     3  C    0.247988   1.593224
     4  C    0.152005   0.821799
     5  H    0.195603   0.007080
 Sum of Mulliken charges =  -0.00000   3.00000

 Dipole moment (field-independent basis, Debye):
    X=              0.0000    Y=              1.1151    Z=              0.0088  Tot=              1.1151
 Quadrupole moment (field-independent basis, Debye-Ang):
   XX=            -38.0717   YY=            -33.5485   ZZ=            -40.6371
   XY=              0.0002   XZ=              0.0000   YZ=              0.0202

  Exact polarizability:  75.929   0.000  56.819  -0.000  -0.005  44.817
 Approx polarizability: 125.447   0.000 104.300   0.000  -0.002  67.330

 ******    1 imaginary frequencies (negative Signs) ******

                      1                      2                      3
                      A                      A                      A
 Frequencies --   -255.0329               231.9133               464.8546
 Red. masses --      2.0346                 2.3167                20.7893
 Frc consts  --      0.0780                 0.0734                 2.6468
 IR Inten    --     28.4970                 9.2438                 0.0734

                      4                      5                      6
                      A                      A                      A
 Frequencies --    632.4102               703.1151               804.0321
 Red. masses --     11.1779                 7.6919                 9.1224
 Frc consts  --      2.6340                 2.2405                 3.4746
 IR Inten    --      3.5458                 1.3892                 0.0003

                      7                      8                      9
                      A                      A                      A
 Frequencies --    817.6030              1100.8762              3205.3814
 Red. masses --      5.6042                 1.2683                 1.0892
 Frc consts  --      2.2072                 0.9056                 6.5936
 IR Inten    --      6.6524                 0.1787                 1.3566

 - Thermochemistry -
 -------------------
 Temperature   298.150 Kelvin.  Pressure   1.00000 Atm.
 Atom     1 has atomic number 16 and mass  31.97207

 Molecular mass:    88.95197 amu.
 Principal axes and moments of inertia in atomic units:
                           1         2         3
     Eigenvalues --   116.78204 449.21080 565.99073
           X            1.00000   0.00000   0.00000
           Y           -0.00000   1.00000   0.00032
           Z           -0.00000  -0.00032   1.00000
 This molecule is an asymmetric top.
 Rotational symmetry number  1.
 Rotational temperatures (Kelvin)      0.74167     0.19281     0.15303
 Rotational constants (GHZ):          15.45393     4.01758     3.18864
    1 imaginary frequencies ignored.
 Zero-point vibrational energy      47612.5 (Joules/Mol)
                                   11.37966 (Kcal/Mol)
 Warning -- explicit consideration of   2 degrees of freedom as
           vibrations may cause significant error
 Vibrational temperatures:    333.67   668.82   909.90  1011.62  1156.82
          (Kelvin)           1176.35  1583.91  4611.82

 Zero-point correction=                           0.018135 (Hartree/Particle)
 Thermal correction to Energy=                    0.022161
 Thermal correction to Enthalpy=                  0.023105
 Thermal correction to Gibbs Free Energy=        -0.010534
 Sum of electronic and zero-point Energies=           -873.031921
 Sum of electronic and thermal Energies=              -873.027895
 Sum of electronic and thermal Enthalpies=            -873.026950
 Sum of electronic and thermal Free Energies=         -873.060589

                     E (Thermal)             CV                S
                      KCal/Mol        Cal/Mol-Kelvin    Cal/Mol-Kelvin
 Total                   13.906             12.415             70.799
 Electronic               0.000              0.000              2.755
 Translational            0.889              2.981             39.369
 Rotational               0.889              2.981             24.899
 Vibrational             12.129              6.453              3.775
 Vibration     1          0.653              1.792              1.864
 Vibration     2          0.822              1.328              0.752

 Normal termination of Gaussian 09 at Wed Aug  3 21:00:06 2016.
