 Gaussian 09, Revision E.01,
 Gaussian 09:  EM64L-G09RevE.01 30-Nov-2015

 ------------------------------
 #p b3lyp/6-311++G(3df,2p) freq
 ------------------------------

 ---------
 b3lyp opt
 ---------
 Symbolic Z-matrix:
 Charge =  1 Multiplicity = 1

                         Standard orientation:
 ---------------------------------------------------------------------
 Center     Atomic      Atomic             Coordinates (Angstroms)
 Number     Number       Type             X           Y           Z
 ---------------------------------------------------------------------
      1         16           0        0.000235   -0.349750   -0.000000
      2          6           0        0.000235    1.224127    0.000000
      3          1           0       -0.005167   -1.748766   -0.000000
 ---------------------------------------------------------------------

 SCF Done:  E(RB3LYP) =  -436.410953135     A.U. after   11 cycles

 The electronic state is 1-A'.
 Alpha  occ. eigenvalues --  -89.22646 -10.62372  -8.31488  -6.27577  -6.27346
 Alpha  occ. eigenvalues --   -6.27346  -1.14984  -0.92511  -0.64751  -0.64750
 Alpha  occ. eigenvalues --   -0.64384
 Alpha virt. eigenvalues --   -0.40158  -0.39366  -0.39364  -0.18964  -0.11850
 Alpha virt. eigenvalues --   -0.11850  -0.10305  -0.07541  -0.06725  -0.06725
 Alpha virt. eigenvalues --   -0.05350  -0.05349  -0.03215  -0.01371   0.00415

 Mulliken charges:
               1
     1  S    0.416517
     2  C    0.247991
     3  H    0.335492
 Sum of Mulliken charges =   1.00000

 Dipole moment (field-independent basis, Debye):
    X=             -0.0099    Y=             -2.6215    Z=             -0.0000  Tot=              2.6216
 Quadrupole moment (field-independent basis, Debye-Ang):
   XX=            -16.3664   YY=             -8.6054   ZZ=            -16.3665
   XY=              0.0115   XZ=              0.0000   YZ=             -0.0000

  Exact polarizability:  19.333   0.024  41.755   0.000  -0.000  19.325
 Approx polarizability:  31.238   0.015 122.211   0.000   0.000  31.238

 ******    1 imaginary frequencies (negative Signs) ******

                      1                      2                      3
                     A'                     A'                     A'
 Frequencies --   -516.0997              1167.7422              2247.4054
 Red. masses --      1.1773                12.9241                 1.0387
 Frc consts  --      0.1848                10.3835                 3.0909
 IR Inten    --    148.5718               161.5390               279.6380

 - Thermochemistry -
 -------------------
 Temperature   298.150 Kelvin.  Pressure   1.00000 Atm.
 Atom     1 has atomic number 16 and mass  31.97207

 Molecular mass:    44.97990 amu.
 Principal axes and moments of inertia in atomic units:
                           1         2         3
     Eigenvalues --     0.00009  88.94540  88.94548
           X            0.00039   1.00000   0.00000
           Y            1.00000  -0.00039  -0.00000
           Z            0.00000  -0.00000   1.00000
 This molecule is an asymmetric top.
 Rotational symmetry number  1.
 Rotational temperatures (Kelvin) 972125.28276     0.97379     0.97379
 Rotational constants (GHZ):      ************    20.29044    20.29042
    1 imaginary frequencies ignored.
 Zero-point vibrational energy      20427.1 (Joules/Mol)
                                    4.88220 (Kcal/Mol)
 Vibrational temperatures:   1680.12  3233.51
          (Kelvin)

 Zero-point correction=                           0.007780 (Hartree/Particle)
 Thermal correction to Energy=                    0.010632
 Thermal correction to Enthalpy=                  0.011576
 Thermal correction to Gibbs Free Energy=        -0.009728
 Sum of electronic and zero-point Energies=           -436.403173
 Sum of electronic and thermal Energies=              -436.400321
 Sum of electronic and thermal Enthalpies=            -436.399377
 Sum of electronic and thermal Free Energies=         -436.420682

                     E (Thermal)             CV                S
                      KCal/Mol        Cal/Mol-Kelvin    Cal/Mol-Kelvin
 Total                    6.672              6.193             44.840
 Electronic               0.000              0.000              0.000
 Translational            0.889              2.981             37.337
 Rotational               0.889              2.981              7.455
 Vibrational              4.894              0.231              0.048

 Normal termination of Gaussian 09 at Wed Aug  3 20:29:38 2016.
