 Gaussian 09, Revision E.01,
 Gaussian 09:  EM64L-G09RevE.01 30-Nov-2015

 ------------------------------
 #p b3lyp/6-311++G(3df,2p) freq
 ------------------------------

 ---------
 b3lyp opt
 ---------
 Symbolic Z-matrix:
 Charge =  1 Multiplicity = 3

                         Standard orientation:
 ---------------------------------------------------------------------
 Center     Atomic      Atomic             Coordinates (Angstroms)
 Number     Number       Type             X           Y           Z
 ---------------------------------------------------------------------
      1         16           0        0.003139    0.884174    0.000000
      2         16           0        0.003139   -1.025079   -0.000000
      3          1           0       -0.100442    2.254473    0.000000
 ---------------------------------------------------------------------

 SCF Done:  E(UB3LYP) =  -796.605474465     A.U. after   15 cycles

 The electronic state is 3-A".
 Alpha  occ. eigenvalues --  -89.20881 -89.19035  -8.28646  -8.27577  -6.25043
 Alpha  occ. eigenvalues --   -6.24711  -6.24705  -6.23719  -6.23709  -6.23684
 Alpha  occ. eigenvalues --   -1.12667  -0.96122  -0.74853  -0.64632  -0.64600
 Alpha  occ. eigenvalues --   -0.52160  -0.52060
 Alpha virt. eigenvalues --   -0.41188  -0.18123  -0.16750  -0.12205  -0.12182
 Alpha virt. eigenvalues --   -0.11371  -0.08392  -0.08392  -0.07633  -0.07552
 Alpha virt. eigenvalues --   -0.06364  -0.06359  -0.03895  -0.02179   0.02346

  Beta  occ. eigenvalues --  -89.20069 -89.18397  -8.27921  -8.26985  -6.24613
  Beta  occ. eigenvalues --   -6.23318  -6.23220  -6.23210  -6.22583  -6.22548
  Beta  occ. eigenvalues --   -1.09764  -0.91540  -0.72505  -0.59555  -0.59494
  Beta virt. eigenvalues --   -0.40659  -0.40565  -0.39252  -0.17713  -0.15727
  Beta virt. eigenvalues --   -0.11561  -0.11525  -0.11027  -0.06167  -0.06105
  Beta virt. eigenvalues --   -0.05898  -0.05898  -0.05363  -0.05263  -0.03586

 Mulliken charges and spin densities:
               1          2
     1  S    0.210643   0.904645
     2  S    0.404937   1.131389
     3  H    0.384419  -0.036035
 Sum of Mulliken charges =   1.00000   2.00000

 Dipole moment (field-independent basis, Debye):
    X=             -0.1821    Y=              1.9947    Z=              0.0000  Tot=              2.0030
 Quadrupole moment (field-independent basis, Debye-Ang):
   XX=            -23.4560   YY=             -7.8890   ZZ=            -23.5211
   XY=             -0.5619   XZ=             -0.0000   YZ=              0.0000

  Exact polarizability:  24.697  -0.204  56.193   0.000  -0.000  24.722
 Approx polarizability:  39.571  -0.931 132.996  -0.000   0.000  39.693

 ******    1 imaginary frequencies (negative Signs) ******

                      1                      2                      3
                     A'                     A'                     A'
 Frequencies --  -1265.6875               668.8474              2425.2297
 Red. masses --      1.1142                20.4395                 1.0420
 Frc consts  --      1.0517                 5.3873                 3.6111
 IR Inten    --    147.6724                 8.6320               582.7322

 - Thermochemistry -
 -------------------
 Temperature   298.150 Kelvin.  Pressure   1.00000 Atm.
 Atom     1 has atomic number 16 and mass  31.97207

 Molecular mass:    64.95197 amu.
 Principal axes and moments of inertia in atomic units:
                           1         2         3
     Eigenvalues --     0.03481 227.25178 227.28659
           X           -0.00376   0.99999   0.00000
           Y            0.99999   0.00376   0.00000
           Z           -0.00000  -0.00000   1.00000
 This molecule is an asymmetric top.
 Rotational symmetry number  1.
 Rotational temperatures (Kelvin)   2488.18653     0.38114     0.38108
 Rotational constants (GHZ):       51845.45690     7.94159     7.94038
    1 imaginary frequencies ignored.
 Zero-point vibrational energy      18506.7 (Joules/Mol)
                                    4.42321 (Kcal/Mol)
 Vibrational temperatures:    962.32  3489.36
          (Kelvin)

 Zero-point correction=                           0.007049 (Hartree/Particle)
 Thermal correction to Energy=                    0.010007
 Thermal correction to Enthalpy=                  0.010951
 Thermal correction to Gibbs Free Energy=        -0.015756
 Sum of electronic and zero-point Energies=           -796.598426
 Sum of electronic and thermal Energies=              -796.595467
 Sum of electronic and thermal Enthalpies=            -796.594523
 Sum of electronic and thermal Free Energies=         -796.621230

                     E (Thermal)             CV                S
                      KCal/Mol        Cal/Mol-Kelvin    Cal/Mol-Kelvin
 Total                    6.280              6.854             56.210
 Electronic               0.000              0.000              2.183
 Translational            0.889              2.981             38.432
 Rotational               0.889              2.981             15.249
 Vibrational              4.502              0.892              0.345

 Normal termination of Gaussian 09 at Wed Aug  3 20:30:56 2016.
