 Gaussian 09, Revision E.01,
 Gaussian 09:  EM64L-G09RevE.01 30-Nov-2015

 ------------------------------
 #p b3lyp/6-311++G(3df,2p) freq
 ------------------------------

 ---------
 b3lyp opt
 ---------
 Symbolic Z-matrix:
 Charge =  2 Multiplicity = 2

                         Standard orientation:
 ---------------------------------------------------------------------
 Center     Atomic      Atomic             Coordinates (Angstroms)
 Number     Number       Type             X           Y           Z
 ---------------------------------------------------------------------
      1         16           0        0.003486    0.848184    0.000000
      2         16           0        0.003486   -0.992625   -0.000000
      3          1           0       -0.111553    2.311053    0.000000
 ---------------------------------------------------------------------

 SCF Done:  E(UB3LYP) =  -795.981802065     A.U. after   17 cycles

 The electronic state is 2-A'.
 Alpha  occ. eigenvalues --  -89.54377 -89.52380  -8.61574  -8.60446  -6.57801
 Alpha  occ. eigenvalues --   -6.57746  -6.57511  -6.56717  -6.56444  -6.56412
 Alpha  occ. eigenvalues --   -1.43742  -1.23246  -1.02919  -0.93987  -0.92550
 Alpha  occ. eigenvalues --   -0.79763
 Alpha virt. eigenvalues --   -0.72603  -0.68376  -0.42583  -0.38449  -0.36317
 Alpha virt. eigenvalues --   -0.36231  -0.34183  -0.34088  -0.28189  -0.26678
 Alpha virt. eigenvalues --   -0.26587  -0.22738  -0.22518  -0.20515  -0.20348

  Beta  occ. eigenvalues --  -89.53940 -89.52040  -8.61186  -8.60129  -6.57565
  Beta  occ. eigenvalues --   -6.57510  -6.56530  -6.56222  -6.56150  -6.55405
  Beta  occ. eigenvalues --   -1.42327  -1.20701  -1.01611  -0.91929  -0.89380
  Beta virt. eigenvalues --   -0.71584  -0.68608  -0.67418  -0.41794  -0.38081
  Beta virt. eigenvalues --   -0.36031  -0.34432  -0.32767  -0.32695  -0.27923
  Beta virt. eigenvalues --   -0.26566  -0.25724  -0.22432  -0.21927  -0.20333

 Mulliken charges and spin densities:
               1          2
     1  S    0.640599   0.448169
     2  S    0.839052   0.562977
     3  H    0.520350  -0.011146
 Sum of Mulliken charges =   2.00000   1.00000

 Dipole moment (field-independent basis, Debye):
    X=             -0.2463    Y=              2.9340    Z=              0.0000  Tot=              2.9443
 Quadrupole moment (field-independent basis, Debye-Ang):
   XX=            -20.7677   YY=              3.1229   ZZ=            -18.8959
   XY=             -0.7385   XZ=             -0.0000   YZ=              0.0000

  Exact polarizability:  19.586  -0.236  47.504  -0.000  -0.000  19.331
 Approx polarizability:  30.534  -0.726 134.987  -0.000   0.000  32.386

 ******    1 imaginary frequencies (negative Signs) ******

                      1                      2                      3
                     A'                     A'                     A'
 Frequencies --  -1174.7174               762.9590              1783.5348
 Red. masses --      1.1262                19.4605                 1.0447
 Frc consts  --      0.9156                 6.6743                 1.9579
 IR Inten    --    231.4020                 4.3693              1260.3680

 - Thermochemistry -
 -------------------
 Temperature   298.150 Kelvin.  Pressure   1.00000 Atm.
 Atom     1 has atomic number 16 and mass  31.97207

 Molecular mass:    64.95197 amu.
 Principal axes and moments of inertia in atomic units:
                           1         2         3
     Eigenvalues --     0.04247 213.57397 213.61644
           X           -0.00455   0.99999   0.00000
           Y            0.99999   0.00455   0.00000
           Z           -0.00000  -0.00000   1.00000
 This molecule is an asymmetric top.
 Rotational symmetry number  1.
 Rotational temperatures (Kelvin)   2039.38026     0.40554     0.40546
 Rotational constants (GHZ):       42493.84038     8.45019     8.44851
    1 imaginary frequencies ignored.
 Zero-point vibrational energy      15231.4 (Joules/Mol)
                                    3.64040 (Kcal/Mol)
 Vibrational temperatures:   1097.73  2566.11
          (Kelvin)

 Zero-point correction=                           0.005801 (Hartree/Particle)
 Thermal correction to Energy=                    0.008725
 Thermal correction to Enthalpy=                  0.009669
 Thermal correction to Gibbs Free Energy=        -0.016642
 Sum of electronic and zero-point Energies=           -795.976001
 Sum of electronic and thermal Energies=              -795.973077
 Sum of electronic and thermal Enthalpies=            -795.972133
 Sum of electronic and thermal Free Energies=         -795.998444

                     E (Thermal)             CV                S
                      KCal/Mol        Cal/Mol-Kelvin    Cal/Mol-Kelvin
 Total                    5.475              6.702             55.376
 Electronic               0.000              0.000              1.377
 Translational            0.889              2.981             38.432
 Rotational               0.889              2.981             15.324
 Vibrational              3.698              0.741              0.243

 Normal termination of Gaussian 09 at Wed Aug  3 20:30:57 2016.
