 Gaussian 09, Revision E.01,
 Gaussian 09:  EM64L-G09RevE.01 30-Nov-2015

 ------------------------------
 #p b3lyp/6-311++G(3df,2p) freq
 ------------------------------

 ---------
 b3lyp opt
 ---------
 Symbolic Z-matrix:
 Charge =  0 Multiplicity = 2

                         Standard orientation:
 ---------------------------------------------------------------------
 Center     Atomic      Atomic             Coordinates (Angstroms)
 Number     Number       Type             X           Y           Z
 ---------------------------------------------------------------------
      1         16           0        0.001179    0.937317    0.000000
      2         16           0        0.001179   -1.079303   -0.000000
      3          1           0       -0.037737    2.271776    0.000000
 ---------------------------------------------------------------------

 SCF Done:  E(UB3LYP) =  -796.918484129     A.U. after   19 cycles

 The electronic state is 2-A".
 Alpha  occ. eigenvalues --  -88.90600 -88.88904  -7.98651  -7.97652  -5.95373
 Alpha  occ. eigenvalues --   -5.94980  -5.93991  -5.93976  -5.93766  -5.93116
 Alpha  occ. eigenvalues --   -0.81879  -0.68334  -0.47353  -0.36566  -0.34172
 Alpha  occ. eigenvalues --   -0.26005  -0.23280
 Alpha virt. eigenvalues --   -0.16183  -0.00661   0.03397   0.03546   0.04544
 Alpha virt. eigenvalues --    0.04866   0.07531   0.07728   0.10590   0.13387
 Alpha virt. eigenvalues --    0.15494   0.16840   0.16974   0.17014   0.19268

  Beta  occ. eigenvalues --  -88.90215 -88.88614  -7.98305  -7.97384  -5.95173
  Beta  occ. eigenvalues --   -5.93808  -5.93764  -5.93554  -5.93110  -5.92949
  Beta  occ. eigenvalues --   -0.80368  -0.66137  -0.46363  -0.33608  -0.32120
  Beta  occ. eigenvalues --   -0.22460
  Beta virt. eigenvalues --   -0.16013  -0.15249  -0.00588   0.03547   0.03750
  Beta virt. eigenvalues --    0.04756   0.04851   0.07730   0.07986   0.10797
  Beta virt. eigenvalues --    0.13643   0.16988   0.17405   0.18149   0.18193

 Mulliken charges and spin densities:
               1          2
     1  S   -0.204986   0.440833
     2  S   -0.073594   0.581036
     3  H    0.278579  -0.021869
 Sum of Mulliken charges =  -0.00000   1.00000

 Dipole moment (field-independent basis, Debye):
    X=             -0.0584    Y=              1.5138    Z=              0.0000  Tot=              1.5149
 Quadrupole moment (field-independent basis, Debye-Ang):
   XX=            -29.7055   YY=            -19.5729   ZZ=            -27.1520
   XY=             -0.3242   XZ=              0.0000   YZ=              0.0000

  Exact polarizability:  35.759  -0.152  68.858   0.000  -0.001  32.563
 Approx polarizability:  54.853  -0.942 139.944  -0.000   0.000  52.660

 ******    1 imaginary frequencies (negative Signs) ******

                      1                      2                      3
                     A'                     A'                     A'
 Frequencies --  -1794.9551               538.4947              2718.1773
 Red. masses --      1.1060                20.6808                 1.0414
 Frc consts  --      2.0994                 3.5333                 4.5334
 IR Inten    --     98.2024                12.4314               226.5130

 - Thermochemistry -
 -------------------
 Temperature   298.150 Kelvin.  Pressure   1.00000 Atm.
 Atom     1 has atomic number 16 and mass  31.97207

 Molecular mass:    64.95197 amu.
 Principal axes and moments of inertia in atomic units:
                           1         2         3
     Eigenvalues --     0.00495 251.60705 251.61200
           X           -0.00128   1.00000   0.00000
           Y            1.00000   0.00128   0.00000
           Z            0.00000   0.00000   1.00000
 This molecule is an asymmetric top.
 Rotational symmetry number  1.
 Rotational temperatures (Kelvin)  17492.93263     0.34424     0.34424
 Rotational constants (GHZ):      364494.00972     7.17286     7.17272
    1 imaginary frequencies ignored.
 Zero-point vibrational energy      19479.2 (Joules/Mol)
                                    4.65565 (Kcal/Mol)
 Warning -- explicit consideration of   1 degrees of freedom as
           vibrations may cause significant error
 Vibrational temperatures:    774.77  3910.85
          (Kelvin)

 Zero-point correction=                           0.007419 (Hartree/Particle)
 Thermal correction to Energy=                    0.010449
 Thermal correction to Enthalpy=                  0.011393
 Thermal correction to Gibbs Free Energy=        -0.014212
 Sum of electronic and zero-point Energies=           -796.911065
 Sum of electronic and thermal Energies=              -796.908035
 Sum of electronic and thermal Enthalpies=            -796.907091
 Sum of electronic and thermal Free Energies=         -796.932697

                     E (Thermal)             CV                S
                      KCal/Mol        Cal/Mol-Kelvin    Cal/Mol-Kelvin
 Total                    6.557              7.127             53.892
 Electronic               0.000              0.000              1.377
 Translational            0.889              2.981             38.432
 Rotational               0.889              2.981             13.514
 Vibrational              4.779              1.166              0.569
 Vibration     1          0.894              1.165              0.569

 Normal termination of Gaussian 09 at Wed Aug  3 20:30:07 2016.
