 Gaussian 09, Revision E.01,
 Gaussian 09:  EM64L-G09RevE.01 30-Nov-2015

 ------------------------------
 #p b3lyp/6-311++G(3df,2p) freq
 ------------------------------

 ---------
 b3lyp opt
 ---------
 Symbolic Z-matrix:
 Charge =  1 Multiplicity = 1

                         Standard orientation:
 ---------------------------------------------------------------------
 Center     Atomic      Atomic             Coordinates (Angstroms)
 Number     Number       Type             X           Y           Z
 ---------------------------------------------------------------------
      1         16           0        0.003248    0.887244   -0.000000
      2         16           0        0.003248   -1.028888   -0.000000
      3          1           0       -0.103940    2.266315    0.000000
 ---------------------------------------------------------------------

 SCF Done:  E(RB3LYP) =  -796.567843745     A.U. after   12 cycles

 The electronic state is 1-A'.
 Alpha  occ. eigenvalues --  -89.20761 -89.19456  -8.28520  -8.27929  -6.25071
 Alpha  occ. eigenvalues --   -6.24959  -6.24404  -6.24128  -6.23439  -6.23192
 Alpha  occ. eigenvalues --   -1.11279  -0.93932  -0.73871  -0.62696  -0.61692
 Alpha  occ. eigenvalues --   -0.48609
 Alpha virt. eigenvalues --   -0.44677  -0.40664  -0.18054  -0.16567  -0.12333
 Alpha virt. eigenvalues --   -0.11552  -0.11251  -0.07340  -0.07323  -0.07213
 Alpha virt. eigenvalues --   -0.06562  -0.06231  -0.05865  -0.03921  -0.02156

 Mulliken charges:
               1
     1  S    0.223345
     2  S    0.392453
     3  H    0.384202
 Sum of Mulliken charges =   1.00000

 Dipole moment (field-independent basis, Debye):
    X=             -0.2221    Y=              2.0793    Z=             -0.0000  Tot=              2.0911
 Quadrupole moment (field-independent basis, Debye-Ang):
   XX=            -25.7317   YY=             -7.9911   ZZ=            -21.4946
   XY=             -0.8502   XZ=              0.0000   YZ=              0.0000

  Exact polarizability:  26.037  -0.402  55.302   0.000  -0.000  23.996
 Approx polarizability:  40.229  -1.558 143.860  -0.000   0.000  41.444

 ******    1 imaginary frequencies (negative Signs) ******

                      1                      2                      3
                     A'                     A'                     A'
 Frequencies --  -1670.6844               652.3596              2341.3032
 Red. masses --      1.1147                20.5039                 1.0418
 Frc consts  --      1.8331                 5.1412                 3.3646
 IR Inten    --    214.7585                 6.7433               521.0594

 - Thermochemistry -
 -------------------
 Temperature   298.150 Kelvin.  Pressure   1.00000 Atm.
 Atom     1 has atomic number 16 and mass  31.97207

 Molecular mass:    64.95197 amu.
 Principal axes and moments of inertia in atomic units:
                           1         2         3
     Eigenvalues --     0.03727 228.95608 228.99334
           X           -0.00388   0.99999   0.00000
           Y            0.99999   0.00388   0.00000
           Z            0.00000   0.00000   1.00000
 This molecule is an asymmetric top.
 Rotational symmetry number  1.
 Rotational temperatures (Kelvin)   2324.13550     0.37830     0.37824
 Rotational constants (GHZ):       48427.18397     7.88248     7.88120
    1 imaginary frequencies ignored.
 Zero-point vibrational energy      17906.1 (Joules/Mol)
                                    4.27966 (Kcal/Mol)
 Vibrational temperatures:    938.60  3368.61
          (Kelvin)

 Zero-point correction=                           0.006820 (Hartree/Particle)
 Thermal correction to Energy=                    0.009786
 Thermal correction to Enthalpy=                  0.010730
 Thermal correction to Gibbs Free Energy=        -0.014990
 Sum of electronic and zero-point Energies=           -796.561024
 Sum of electronic and thermal Energies=              -796.558058
 Sum of electronic and thermal Enthalpies=            -796.557113
 Sum of electronic and thermal Free Energies=         -796.582833

                     E (Thermal)             CV                S
                      KCal/Mol        Cal/Mol-Kelvin    Cal/Mol-Kelvin
 Total                    6.141              6.888             54.132
 Electronic               0.000              0.000              0.000
 Translational            0.889              2.981             38.432
 Rotational               0.889              2.981             15.332
 Vibrational              4.363              0.926              0.368

 Normal termination of Gaussian 09 at Wed Aug  3 20:30:30 2016.
