 Gaussian 09, Revision E.01,
 Gaussian 09:  EM64L-G09RevE.01 30-Nov-2015

 ------------------------------
 #p b3lyp/6-311++G(3df,2p) freq
 ------------------------------

 ---------
 b3lyp opt
 ---------
 Symbolic Z-matrix:
 Charge =  1 Multiplicity = 1

                         Standard orientation:
 ---------------------------------------------------------------------
 Center     Atomic      Atomic             Coordinates (Angstroms)
 Number     Number       Type             X           Y           Z
 ---------------------------------------------------------------------
      1         16           0        0.001086    0.884224    0.000000
      2         16           0        0.001086   -1.025026   -0.000000
      3          1           0       -0.034748    2.252826    0.000000
 ---------------------------------------------------------------------

 SCF Done:  E(RB3LYP) =  -796.565974947     A.U. after   12 cycles

 The electronic state is 1-A'.
 Alpha  occ. eigenvalues --  -89.20767 -89.19361  -8.28531  -8.27901  -6.25089
 Alpha  occ. eigenvalues --   -6.24971  -6.24392  -6.24104  -6.23439  -6.23149
 Alpha  occ. eigenvalues --   -1.11531  -0.94147  -0.74022  -0.62841  -0.61807
 Alpha  occ. eigenvalues --   -0.48517
 Alpha virt. eigenvalues --   -0.44653  -0.40573  -0.18091  -0.16321  -0.12392
 Alpha virt. eigenvalues --   -0.11564  -0.11263  -0.07386  -0.07343  -0.07258
 Alpha virt. eigenvalues --   -0.06480  -0.06229  -0.05848  -0.03798  -0.02092

 Mulliken charges:
               1
     1  S    0.218191
     2  S    0.388724
     3  H    0.393085
 Sum of Mulliken charges =   1.00000

 Dipole moment (field-independent basis, Debye):
    X=             -0.0766    Y=              2.0963    Z=             -0.0000  Tot=              2.0977
 Quadrupole moment (field-independent basis, Debye-Ang):
   XX=            -25.7813   YY=             -8.0171   ZZ=            -21.4467
   XY=             -0.2906   XZ=             -0.0000   YZ=              0.0000

  Exact polarizability:  26.072  -0.110  54.092  -0.000   0.000  23.950
 Approx polarizability:  40.677  -0.452 139.414  -0.000   0.000  41.280

 ******    1 imaginary frequencies (negative Signs) ******

                      1                      2                      3
                     A'                     A'                     A'
 Frequencies --  -1787.3939               666.9909              2472.2231
 Red. masses --      1.1140                20.4183                 1.0421
 Frc consts  --      2.0969                 5.3519                 3.7525
 IR Inten    --    212.6403                 7.3875               620.3115

 - Thermochemistry -
 -------------------
 Temperature   298.150 Kelvin.  Pressure   1.00000 Atm.
 Atom     1 has atomic number 16 and mass  31.97207

 Molecular mass:    64.95197 amu.
 Principal axes and moments of inertia in atomic units:
                           1         2         3
     Eigenvalues --     0.00417 227.22029 227.22445
           X           -0.00130   1.00000   0.00000
           Y            1.00000   0.00130   0.00000
           Z           -0.00000  -0.00000   1.00000
 This molecule is an asymmetric top.
 Rotational symmetry number  1.
 Rotational temperatures (Kelvin)  20786.47534     0.38119     0.38118
 Rotational constants (GHZ):      433120.38645     7.94269     7.94255
    1 imaginary frequencies ignored.
 Zero-point vibrational energy      18776.7 (Joules/Mol)
                                    4.48773 (Kcal/Mol)
 Vibrational temperatures:    959.65  3556.97
          (Kelvin)

 Zero-point correction=                           0.007152 (Hartree/Particle)
 Thermal correction to Energy=                    0.010111
 Thermal correction to Enthalpy=                  0.011055
 Thermal correction to Gibbs Free Energy=        -0.013613
 Sum of electronic and zero-point Energies=           -796.558823
 Sum of electronic and thermal Energies=              -796.555864
 Sum of electronic and thermal Enthalpies=            -796.554920
 Sum of electronic and thermal Free Energies=         -796.579588

                     E (Thermal)             CV                S
                      KCal/Mol        Cal/Mol-Kelvin    Cal/Mol-Kelvin
 Total                    6.345              6.857             51.919
 Electronic               0.000              0.000              0.000
 Translational            0.889              2.981             38.432
 Rotational               0.889              2.981             13.140
 Vibrational              4.567              0.896              0.348

 Normal termination of Gaussian 09 at Wed Aug  3 20:30:29 2016.
