 Gaussian 09, Revision E.01,
 Gaussian 09:  EM64L-G09RevE.01 30-Nov-2015

 ------------------------------
 #p b3lyp/6-311++G(3df,2p) freq
 ------------------------------

 ---------
 b3lyp opt
 ---------
 Symbolic Z-matrix:
 Charge =  0 Multiplicity = 2

                         Standard orientation:
 ---------------------------------------------------------------------
 Center     Atomic      Atomic             Coordinates (Angstroms)
 Number     Number       Type             X           Y           Z
 ---------------------------------------------------------------------
      1         16           0        0.003689    0.943798   -0.000000
      2         16           0        0.003689   -1.086883   -0.000000
      3          1           0       -0.118060    2.289361    0.000000
 ---------------------------------------------------------------------

 SCF Done:  E(UB3LYP) =  -796.920914182     A.U. after   17 cycles

 The electronic state is 2-A".
 Alpha  occ. eigenvalues --  -88.90647 -88.89086  -7.98692  -7.97751  -5.95406
 Alpha  occ. eigenvalues --   -5.95020  -5.94070  -5.94065  -5.93819  -5.93237
 Alpha  occ. eigenvalues --   -0.81538  -0.68187  -0.47181  -0.36416  -0.34050
 Alpha  occ. eigenvalues --   -0.26103  -0.23477
 Alpha virt. eigenvalues --   -0.16378  -0.00679   0.03297   0.03499   0.04568
 Alpha virt. eigenvalues --    0.04864   0.07516   0.07715   0.10465   0.13199
 Alpha virt. eigenvalues --    0.15527   0.16180   0.17012   0.17047   0.19651

  Beta  occ. eigenvalues --  -88.90262 -88.88796  -7.98345  -7.97482  -5.95205
  Beta  occ. eigenvalues --   -5.93902  -5.93805  -5.93606  -5.93182  -5.93069
  Beta  occ. eigenvalues --   -0.80009  -0.65954  -0.46231  -0.33481  -0.31943
  Beta  occ. eigenvalues --   -0.22661
  Beta virt. eigenvalues --   -0.16123  -0.15456  -0.00595   0.03476   0.03680
  Beta virt. eigenvalues --    0.04783   0.04861   0.07729   0.07967   0.10674
  Beta virt. eigenvalues --    0.13455   0.16311   0.17421   0.18188   0.18244

 Mulliken charges and spin densities:
               1          2
     1  S   -0.195009   0.441027
     2  S   -0.068606   0.581285
     3  H    0.263615  -0.022312
 Sum of Mulliken charges =  -0.00000   1.00000

 Dipole moment (field-independent basis, Debye):
    X=             -0.1707    Y=              1.4676    Z=              0.0000  Tot=              1.4775
 Quadrupole moment (field-independent basis, Debye-Ang):
   XX=            -29.6182   YY=            -19.6966   ZZ=            -27.2242
   XY=             -0.9735   XZ=              0.0000   YZ=              0.0000

  Exact polarizability:  35.694  -0.571  70.970  -0.000  -0.000  32.671
 Approx polarizability:  54.236  -3.242 146.160  -0.000   0.000  52.629

 ******    1 imaginary frequencies (negative Signs) ******

                      1                      2                      3
                     A'                     A'                     A'
 Frequencies --  -1634.0590               513.7088              2554.8316
 Red. masses --      1.1063                20.7466                 1.0413
 Frc consts  --      1.7404                 3.2258                 4.0044
 IR Inten    --     92.6188                10.4718               150.1115

 - Thermochemistry -
 -------------------
 Temperature   298.150 Kelvin.  Pressure   1.00000 Atm.
 Atom     1 has atomic number 16 and mass  31.97207

 Molecular mass:    64.95197 amu.
 Principal axes and moments of inertia in atomic units:
                           1         2         3
     Eigenvalues --     0.04845 255.16142 255.20987
           X           -0.00399   0.99999   0.00000
           Y            0.99999   0.00399   0.00000
           Z            0.00000   0.00000   1.00000
 This molecule is an asymmetric top.
 Rotational symmetry number  1.
 Rotational temperatures (Kelvin)   1787.54329     0.33945     0.33938
 Rotational constants (GHZ):       37246.40316     7.07294     7.07160
    1 imaginary frequencies ignored.
 Zero-point vibrational energy      18353.9 (Joules/Mol)
                                    4.38670 (Kcal/Mol)
 Warning -- explicit consideration of   1 degrees of freedom as
           vibrations may cause significant error
 Vibrational temperatures:    739.11  3675.83
          (Kelvin)

 Zero-point correction=                           0.006991 (Hartree/Particle)
 Thermal correction to Energy=                    0.010037
 Thermal correction to Enthalpy=                  0.010982
 Thermal correction to Gibbs Free Energy=        -0.015741
 Sum of electronic and zero-point Energies=           -796.913924
 Sum of electronic and thermal Energies=              -796.910877
 Sum of electronic and thermal Enthalpies=            -796.909933
 Sum of electronic and thermal Free Energies=         -796.936655

                     E (Thermal)             CV                S
                      KCal/Mol        Cal/Mol-Kelvin    Cal/Mol-Kelvin
 Total                    6.299              7.183             56.242
 Electronic               0.000              0.000              1.377
 Translational            0.889              2.981             38.432
 Rotational               0.889              2.981             15.808
 Vibrational              4.521              1.221              0.625
 Vibration     1          0.869              1.220              0.625

 Normal termination of Gaussian 09 at Wed Aug  3 20:30:35 2016.
