 Gaussian 09, Revision E.01,
 Gaussian 09:  EM64L-G09RevE.01 30-Nov-2015

 ------------------------------
 #p b3lyp/6-311++G(3df,2p) freq
 ------------------------------

 ---------
 b3lyp opt
 ---------
 Symbolic Z-matrix:
 Charge =  0 Multiplicity = 2

                         Standard orientation:
 ---------------------------------------------------------------------
 Center     Atomic      Atomic             Coordinates (Angstroms)
 Number     Number       Type             X           Y           Z
 ---------------------------------------------------------------------
      1         16           0        0.005737    0.952109    0.000000
      2         16           0        0.005737   -1.096639   -0.000000
      3          1           0       -0.183596    2.312479    0.000000
 ---------------------------------------------------------------------

 SCF Done:  E(UB3LYP) =  -796.924077311     A.U. after   21 cycles

 The electronic state is 2-A".
 Alpha  occ. eigenvalues --  -88.90682 -88.89368  -7.98721  -7.97922  -5.95421
 Alpha  occ. eigenvalues --   -5.95053  -5.94233  -5.94197  -5.93866  -5.93442
 Alpha  occ. eigenvalues --   -0.81111  -0.67998  -0.46926  -0.36234  -0.33913
 Alpha  occ. eigenvalues --   -0.26231  -0.23757
 Alpha virt. eigenvalues --   -0.16589  -0.00703   0.03145   0.03460   0.04596
 Alpha virt. eigenvalues --    0.04859   0.07507   0.07695   0.10305   0.12926
 Alpha virt. eigenvalues --    0.15467   0.15576   0.17042   0.17072   0.20049

  Beta  occ. eigenvalues --  -88.90295 -88.89079  -7.98374  -7.97654  -5.95217
  Beta  occ. eigenvalues --   -5.94066  -5.93835  -5.93652  -5.93314  -5.93276
  Beta  occ. eigenvalues --   -0.79560  -0.65715  -0.46022  -0.33341  -0.31730
  Beta  occ. eigenvalues --   -0.22947
  Beta virt. eigenvalues --   -0.16264  -0.15686  -0.00613   0.03354   0.03615
  Beta virt. eigenvalues --    0.04811   0.04861   0.07715   0.07951   0.10522
  Beta virt. eigenvalues --    0.13177   0.15576   0.17448   0.18220   0.18274

 Mulliken charges and spin densities:
               1          2
     1  S   -0.179263   0.439052
     2  S   -0.062437   0.583569
     3  H    0.241701  -0.022621
 Sum of Mulliken charges =  -0.00000   1.00000

 Dipole moment (field-independent basis, Debye):
    X=             -0.2386    Y=              1.4026    Z=             -0.0000  Tot=              1.4228
 Quadrupole moment (field-independent basis, Debye-Ang):
   XX=            -29.4763   YY=            -19.9371   ZZ=            -27.3158
   XY=             -1.4110   XZ=              0.0000   YZ=              0.0000

  Exact polarizability:  35.613  -1.136  73.878   0.000   0.000  32.791
 Approx polarizability:  53.518  -5.555 154.973  -0.000   0.000  52.549

 ******    1 imaginary frequencies (negative Signs) ******

                      1                      2                      3
                     A'                     A'                     A'
 Frequencies --  -1366.7552               482.0644              2326.2265
 Red. masses --      1.1068                20.9036                 1.0408
 Frc consts  --      1.2182                 2.8621                 3.3184
 IR Inten    --     81.4247                 8.1235                72.6601

 - Thermochemistry -
 -------------------
 Temperature   298.150 Kelvin.  Pressure   1.00000 Atm.
 Atom     1 has atomic number 16 and mass  31.97207

 Molecular mass:    64.95197 amu.
 Principal axes and moments of inertia in atomic units:
                           1         2         3
     Eigenvalues --     0.11716 259.77557 259.89273
           X           -0.00616   0.99998   0.00000
           Y            0.99998   0.00616   0.00000
           Z           -0.00000  -0.00000   1.00000
 This molecule is an asymmetric top.
 Rotational symmetry number  1.
 Rotational temperatures (Kelvin)    739.30544     0.33342     0.33327
 Rotational constants (GHZ):       15404.64424     6.94731     6.94418
    1 imaginary frequencies ignored.
 Zero-point vibrational energy      16797.3 (Joules/Mol)
                                    4.01465 (Kcal/Mol)
 Warning -- explicit consideration of   1 degrees of freedom as
           vibrations may cause significant error
 Vibrational temperatures:    693.58  3346.92
          (Kelvin)

 Zero-point correction=                           0.006398 (Hartree/Particle)
 Thermal correction to Energy=                    0.009468
 Thermal correction to Enthalpy=                  0.010412
 Thermal correction to Gibbs Free Energy=        -0.016782
 Sum of electronic and zero-point Energies=           -796.917680
 Sum of electronic and thermal Energies=              -796.914609
 Sum of electronic and thermal Enthalpies=            -796.913665
 Sum of electronic and thermal Free Energies=         -796.940859

                     E (Thermal)             CV                S
                      KCal/Mol        Cal/Mol-Kelvin    Cal/Mol-Kelvin
 Total                    5.941              7.255             57.235
 Electronic               0.000              0.000              1.377
 Translational            0.889              2.981             38.432
 Rotational               0.889              2.981             16.721
 Vibrational              4.164              1.293              0.705
 Vibration     1          0.838              1.290              0.705

 Normal termination of Gaussian 09 at Wed Aug  3 20:30:08 2016.
