 Gaussian 09, Revision E.01,
 Gaussian 09:  EM64L-G09RevE.01 30-Nov-2015

 ------------------------------
 #p b3lyp/6-311++G(3df,2p) freq
 ------------------------------

 ---------
 b3lyp opt
 ---------
 Symbolic Z-matrix:
 Charge =  1 Multiplicity = 1

                         Standard orientation:
 ---------------------------------------------------------------------
 Center     Atomic      Atomic             Coordinates (Angstroms)
 Number     Number       Type             X           Y           Z
 ---------------------------------------------------------------------
      1         16           0        0.005225    0.891091    0.000000
      2         16           0        0.005225   -1.034008   -0.000000
      3          1           0       -0.167203    2.286659    0.000000
 ---------------------------------------------------------------------

 SCF Done:  E(RB3LYP) =  -796.570694911     A.U. after   12 cycles

 The electronic state is 1-A'.
 Alpha  occ. eigenvalues --  -89.20733 -89.19630  -8.28490  -8.28000  -6.25026
 Alpha  occ. eigenvalues --   -6.24927  -6.24447  -6.24192  -6.23429  -6.23289
 Alpha  occ. eigenvalues --   -1.10943  -0.93600  -0.73619  -0.62508  -0.61554
 Alpha  occ. eigenvalues --   -0.48759
 Alpha virt. eigenvalues --   -0.44704  -0.40760  -0.18003  -0.16959  -0.12253
 Alpha virt. eigenvalues --   -0.11536  -0.11230  -0.07309  -0.07269  -0.07168
 Alpha virt. eigenvalues --   -0.06700  -0.06236  -0.05883  -0.04091  -0.02234

 Mulliken charges:
               1
     1  S    0.232797
     2  S    0.397893
     3  H    0.369310
 Sum of Mulliken charges =   1.00000

 Dipole moment (field-independent basis, Debye):
    X=             -0.3378    Y=              2.0482    Z=             -0.0000  Tot=              2.0759
 Quadrupole moment (field-independent basis, Debye-Ang):
   XX=            -25.6371   YY=             -8.0070   ZZ=            -21.5638
   XY=             -1.3102   XZ=             -0.0000   YZ=              0.0000

  Exact polarizability:  25.995  -0.853  57.259   0.000   0.000  24.021
 Approx polarizability:  39.578  -3.018 150.889  -0.000   0.000  41.657

 ******    1 imaginary frequencies (negative Signs) ******

                      1                      2                      3
                     A'                     A'                     A'
 Frequencies --  -1461.5998               632.8907              2121.5013
 Red. masses --      1.1161                20.6667                 1.0410
 Frc consts  --      1.4048                 4.8773                 2.7606
 IR Inten    --    211.3421                 5.8543               371.7546

 - Thermochemistry -
 -------------------
 Temperature   298.150 Kelvin.  Pressure   1.00000 Atm.
 Atom     1 has atomic number 16 and mass  31.97207

 Molecular mass:    64.95197 amu.
 Principal axes and moments of inertia in atomic units:
                           1         2         3
     Eigenvalues --     0.09637 231.27691 231.37327
           X           -0.00623   0.99998   0.00000
           Y            0.99998   0.00623   0.00000
           Z           -0.00000  -0.00000   1.00000
 This molecule is an asymmetric top.
 Rotational symmetry number  1.
 Rotational temperatures (Kelvin)    898.80561     0.37450     0.37435
 Rotational constants (GHZ):       18728.09242     7.80338     7.80013
    1 imaginary frequencies ignored.
 Zero-point vibrational energy      16474.9 (Joules/Mol)
                                    3.93760 (Kcal/Mol)
 Vibrational temperatures:    910.59  3052.36
          (Kelvin)

 Zero-point correction=                           0.006275 (Hartree/Particle)
 Thermal correction to Energy=                    0.009251
 Thermal correction to Enthalpy=                  0.010195
 Thermal correction to Gibbs Free Energy=        -0.015997
 Sum of electronic and zero-point Energies=           -796.564420
 Sum of electronic and thermal Energies=              -796.561444
 Sum of electronic and thermal Enthalpies=            -796.560500
 Sum of electronic and thermal Free Energies=         -796.586692

                     E (Thermal)             CV                S
                      KCal/Mol        Cal/Mol-Kelvin    Cal/Mol-Kelvin
 Total                    5.805              6.932             55.125
 Electronic               0.000              0.000              0.000
 Translational            0.889              2.981             38.432
 Rotational               0.889              2.981             16.296
 Vibrational              4.027              0.970              0.397

 Normal termination of Gaussian 09 at Wed Aug  3 20:30:30 2016.
