 Gaussian 09, Revision E.01,
 Gaussian 09:  EM64L-G09RevE.01 30-Nov-2015

 ---------------------------------------------
 #p b3lyp/6-311++G(3df,2p) freq symmetry=Loose
 ---------------------------------------------

 ---------
 b3lyp opt
 ---------
 Symbolic Z-matrix:
 Charge =  2 Multiplicity = 4

                         Standard orientation:
 ---------------------------------------------------------------------
 Center     Atomic      Atomic             Coordinates (Angstroms)
 Number     Number       Type             X           Y           Z
 ---------------------------------------------------------------------
      1          7           0       -1.189243   -0.236126    0.000000
      2          6           0        0.000000    0.099767    0.000000
      3          6           0        1.387450    0.175713    0.000000
 ---------------------------------------------------------------------

 SCF Done:  E(UB3LYP) =  -129.515896844     A.U. after   26 cycles

 The electronic state is 4-A".
 Alpha  occ. eigenvalues --  -15.13323 -11.08707 -10.99487  -1.63781  -1.46591
 Alpha  occ. eigenvalues --   -1.13314  -1.09481  -1.07420  -1.05880  -0.95422
 Alpha virt. eigenvalues --   -0.86399  -0.64177  -0.62839  -0.47868  -0.36082
 Alpha virt. eigenvalues --   -0.30629  -0.30302  -0.28940  -0.24826  -0.24134
 Alpha virt. eigenvalues --   -0.24018  -0.22645  -0.22529  -0.18921  -0.14042

  Beta  occ. eigenvalues --  -15.11209 -11.04710 -10.98773  -1.58719  -1.39996
  Beta  occ. eigenvalues --   -1.04642  -1.01912
  Beta virt. eigenvalues --   -0.92760  -0.84610  -0.77944  -0.76807  -0.57103
  Beta virt. eigenvalues --   -0.55614  -0.43796  -0.32472  -0.29985  -0.29625
  Beta virt. eigenvalues --   -0.27306  -0.23645  -0.22854  -0.22732  -0.22045

 Mulliken charges and spin densities:
               1          2
     1  N    0.009255   0.902869
     2  C    0.964968   0.297612
     3  C    1.025778   1.799519
 Sum of Mulliken charges =   2.00000   3.00000

 Dipole moment (field-independent basis, Debye):
    X=              3.4122    Y=              0.8275    Z=              0.0000  Tot=              3.5112
 Quadrupole moment (field-independent basis, Debye-Ang):
   XX=              2.7310   YY=            -10.1031   ZZ=            -12.4282
   XY=              1.3726   XZ=              0.0000   YZ=              0.0000

  Exact polarizability:  37.709   4.617  12.567  -0.000  -0.000  15.206
 Approx polarizability:  78.881  14.052  19.465  -0.000  -0.000  13.715

                      1                      2                      3
                     A'                     A'                     A'
 Frequencies --    278.7332               787.2225              1278.3864
 Red. masses --     12.3549                12.9150                12.1760
 Frc consts  --      0.5655                 4.7156                11.7241
 IR Inten    --     17.9211               230.2747                22.4092

 - Thermochemistry -
 -------------------
 Temperature   298.150 Kelvin.  Pressure   1.00000 Atm.
 Atom     1 has atomic number  7 and mass  14.00307

 Molecular mass:    38.00307 amu.
 Principal axes and moments of inertia in atomic units:
                           1         2         3
     Eigenvalues --     0.60783 157.14546 157.75328
           X            0.98737  -0.15845   0.00000
           Y            0.15845   0.98737   0.00000
           Z            0.00000   0.00000   1.00000
 This molecule is an asymmetric top.
 Rotational symmetry number  1.
 Rotational temperatures (Kelvin)    142.49783     0.55117     0.54905
 Rotational constants (GHZ):        2969.17654    11.48453    11.44028
 Zero-point vibrational energy      14022.3 (Joules/Mol)
                                    3.35141 (Kcal/Mol)
 Warning -- explicit consideration of   1 degrees of freedom as
           vibrations may cause significant error
 Vibrational temperatures:    401.03  1132.64  1839.31
          (Kelvin)

 Zero-point correction=                           0.005341 (Hartree/Particle)
 Thermal correction to Energy=                    0.008715
 Thermal correction to Enthalpy=                  0.009659
 Thermal correction to Gibbs Free Energy=        -0.018250
 Sum of electronic and zero-point Energies=           -129.510556
 Sum of electronic and thermal Energies=              -129.507182
 Sum of electronic and thermal Enthalpies=            -129.506237
 Sum of electronic and thermal Free Energies=         -129.534147

                     E (Thermal)             CV                S
                      KCal/Mol        Cal/Mol-Kelvin    Cal/Mol-Kelvin
 Total                    5.469              8.505             58.740
 Electronic               0.000              0.000              2.755
 Translational            0.889              2.981             36.834
 Rotational               0.889              2.981             17.362
 Vibrational              3.691              2.544              1.789
 Vibration     1          0.679              1.713              1.541

 Normal termination of Gaussian 09 at Tue Aug 16 17:40:58 2016.
