 Gaussian 09, Revision E.01,
 Gaussian 09:  EM64L-G09RevE.01 30-Nov-2015

 ---------------------------------------------
 #p b3lyp/6-311++G(3df,2p) freq symmetry=Loose
 ---------------------------------------------

 ---------
 b3lyp opt
 ---------
 Symbolic Z-matrix:
 Charge =  0 Multiplicity = 2

                         Standard orientation:
 ---------------------------------------------------------------------
 Center     Atomic      Atomic             Coordinates (Angstroms)
 Number     Number       Type             X           Y           Z
 ---------------------------------------------------------------------
      1          6           0       -0.000000   -0.000000    1.254106
      2          6           0        0.000000    0.000000   -1.254041
      3          7           0       -0.000000    0.000000   -0.000055
 ---------------------------------------------------------------------

 SCF Done:  E(UB3LYP) =  -130.798685563     A.U. after   11 cycles

 Unable to determine electronic state:  partially filled degenerate orbitals.
 Alpha  occ. eigenvalues --  -14.42300 -10.30837 -10.30832  -1.03501  -0.82042
 Alpha  occ. eigenvalues --   -0.47687  -0.46689  -0.41165  -0.37184  -0.25872
 Alpha virt. eigenvalues --   -0.17420  -0.01654  -0.00465   0.01072   0.05156
 Alpha virt. eigenvalues --    0.06123   0.07134   0.07371   0.09362   0.09633
 Alpha virt. eigenvalues --    0.12456   0.18212   0.19018   0.19355   0.25994

  Beta  occ. eigenvalues --  -14.42660 -10.29903 -10.29899  -1.03020  -0.80031
  Beta  occ. eigenvalues --   -0.46705  -0.45558  -0.38920  -0.35478
  Beta virt. eigenvalues --   -0.16203  -0.13215  -0.00295   0.00728   0.01254
  Beta virt. eigenvalues --    0.05280   0.07390   0.07484   0.08808   0.09704
  Beta virt. eigenvalues --    0.10055   0.12555   0.18391   0.18949   0.19370

 Mulliken charges and spin densities:
               1          2
     1  C    0.086346   0.585339
     2  C    0.086394   0.584854
     3  N   -0.172740  -0.170194
 Sum of Mulliken charges =   0.00000   1.00000

 Dipole moment (field-independent basis, Debye):
    X=             -0.0000    Y=             -0.0000    Z=              0.0003  Tot=              0.0003
 Quadrupole moment (field-independent basis, Debye-Ang):
   XX=            -17.3888   YY=            -15.6253   ZZ=            -22.6542
   XY=              0.0000   XZ=              0.0000   YZ=              0.0000

  Exact polarizability:  22.749  -0.000  22.557  -0.000  -0.000  46.007
 Approx polarizability:  29.407   0.000  33.770  -0.000  -0.000  80.648

                      1                      2                      3
                     PI                     PI                     SG
 Frequencies --    310.1390               446.0124              1242.5184
 Red. masses --     13.1917                13.1917                12.0000
 Frc consts  --      0.7476                 1.5461                10.9153
 IR Inten    --     10.7230                 3.0852                 0.0007

                      4
                     SG
 Frequencies --   1391.8714
 Red. masses --     13.1917
 Frc consts  --     15.0574
 IR Inten    --     57.0020

 - Thermochemistry -
 -------------------
 Temperature   298.150 Kelvin.  Pressure   1.00000 Atm.
 Atom     1 has atomic number  6 and mass  12.00000

 Molecular mass:    38.00307 amu.
 Principal axes and moments of inertia in atomic units:
                           1         2         3
     Eigenvalues --     0.00000 134.78918 134.78918
           X           -0.00000   0.24251   0.97015
           Y           -0.00000   0.97015  -0.24251
           Z            1.00000   0.00000   0.00000
 This molecule is a prolate symmetric top.
 Rotational symmetry number  1.
 Rotational temperature (Kelvin)      0.64259
 Rotational constant (GHZ):          13.389362
 Zero-point vibrational energy      20279.9 (Joules/Mol)
                                    4.84702 (Kcal/Mol)
 Warning -- explicit consideration of   2 degrees of freedom as
           vibrations may cause significant error
 Vibrational temperatures:    446.22   641.71  1787.70  2002.59
          (Kelvin)

 Zero-point correction=                           0.007724 (Hartree/Particle)
 Thermal correction to Energy=                    0.010781
 Thermal correction to Enthalpy=                  0.011726
 Thermal correction to Gibbs Free Energy=        -0.014227
 Sum of electronic and zero-point Energies=           -130.790961
 Sum of electronic and thermal Energies=              -130.787904
 Sum of electronic and thermal Enthalpies=            -130.786960
 Sum of electronic and thermal Free Energies=         -130.812913

                     E (Thermal)             CV                S
                      KCal/Mol        Cal/Mol-Kelvin    Cal/Mol-Kelvin
 Total                    6.765              8.280             54.623
 Electronic               0.000              0.000              1.377
 Translational            0.889              2.981             36.834
 Rotational               0.592              1.987             14.188
 Vibrational              5.284              3.312              2.223
 Vibration     1          0.699              1.654              1.362
 Vibration     2          0.805              1.370              0.808

 Normal termination of Gaussian 09 at Tue Aug 16 17:39:19 2016.
