 Gaussian 09, Revision E.01,
 Gaussian 09:  EM64L-G09RevE.01 30-Nov-2015

 ---------------------------------------------
 #p b3lyp/6-311++G(3df,2p) freq symmetry=Loose
 ---------------------------------------------

 ---------
 b3lyp opt
 ---------
 Symbolic Z-matrix:
 Charge =  2 Multiplicity = 4

                         Standard orientation:
 ---------------------------------------------------------------------
 Center     Atomic      Atomic             Coordinates (Angstroms)
 Number     Number       Type             X           Y           Z
 ---------------------------------------------------------------------
      1          6           0        0.000000    0.000000   -0.027329
      2          6           0        0.000000    0.000000   -1.422261
      3          7           0        0.000000    0.000000    1.242506
 ---------------------------------------------------------------------

 SCF Done:  E(UB3LYP) =  -129.530752633     A.U. after   16 cycles

 Unable to determine electronic state:  an orbital has unidentified symmetry.
 Alpha  occ. eigenvalues --  -15.12547 -11.08639 -11.00921  -1.62894  -1.46854
 Alpha  occ. eigenvalues --   -1.12073  -1.09828  -1.05857  -1.04440  -0.96483
 Alpha virt. eigenvalues --   -0.85091  -0.67009  -0.62255  -0.51111  -0.36531
 Alpha virt. eigenvalues --   -0.30773  -0.30377  -0.28850  -0.24534  -0.24407
 Alpha virt. eigenvalues --   -0.24280  -0.22860  -0.22429  -0.19315  -0.13268

  Beta  occ. eigenvalues --  -15.11035 -11.04703 -10.99903  -1.57937  -1.39977
  Beta  occ. eigenvalues --   -1.04179  -1.02949
  Beta virt. eigenvalues --   -0.91098  -0.84757  -0.80644  -0.74701  -0.58775
  Beta virt. eigenvalues --   -0.53938  -0.46905  -0.33308  -0.30188  -0.29441
  Beta virt. eigenvalues --   -0.27398  -0.23788  -0.22954  -0.22763  -0.22152

 Mulliken charges and spin densities:
               1          2
     1  C    0.933039   0.526116
     2  C    1.030717   1.721018
     3  N    0.036245   0.752865
 Sum of Mulliken charges =   2.00000   3.00000

 Dipole moment (field-independent basis, Debye):
    X=              0.0000    Y=              0.0000    Z=             -3.9028  Tot=              3.9028
 Quadrupole moment (field-independent basis, Debye-Ang):
   XX=            -11.3355   YY=            -11.1799   ZZ=              2.1179
   XY=              0.0000   XZ=              0.0000   YZ=              0.0000

  Exact polarizability:  12.063  -0.000  11.477   0.000  -0.000  32.694
 Approx polarizability:  16.122  -0.000  14.455  -0.000  -0.000  87.330

                      1                      2                      3
                     PI                     PI                     SG
 Frequencies --    320.7405               355.7114               984.4166
 Red. masses --     12.2822                12.2822                12.4593
 Frc consts  --      0.7444                 0.9156                 7.1138
 IR Inten    --      0.1311                 8.9869                36.6995

                      4
                     SG
 Frequencies --   1480.9227
 Red. masses --     12.6779
 Frc consts  --     16.3819
 IR Inten    --    202.0862

 - Thermochemistry -
 -------------------
 Temperature   298.150 Kelvin.  Pressure   1.00000 Atm.
 Atom     1 has atomic number  6 and mass  12.00000

 Molecular mass:    38.00307 amu.
 Principal axes and moments of inertia in atomic units:
                           1         2         3
     Eigenvalues --     0.00000 163.91588 163.91588
           X            0.00000  -0.00000   1.00000
           Y            0.00000   1.00000   0.00000
           Z            1.00000   0.00000   0.00000
 This molecule is a prolate symmetric top.
 Rotational symmetry number  1.
 Rotational temperature (Kelvin)      0.52840
 Rotational constant (GHZ):          11.010167
 Zero-point vibrational energy      18792.1 (Joules/Mol)
                                    4.49142 (Kcal/Mol)
 Warning -- explicit consideration of   2 degrees of freedom as
           vibrations may cause significant error
 Vibrational temperatures:    461.47   511.79  1416.35  2130.71
          (Kelvin)

 Zero-point correction=                           0.007158 (Hartree/Particle)
 Thermal correction to Energy=                    0.010312
 Thermal correction to Enthalpy=                  0.011256
 Thermal correction to Gibbs Free Energy=        -0.015696
 Sum of electronic and zero-point Energies=           -129.523595
 Sum of electronic and thermal Energies=              -129.520440
 Sum of electronic and thermal Enthalpies=            -129.519496
 Sum of electronic and thermal Free Energies=         -129.546448

                     E (Thermal)             CV                S
                      KCal/Mol        Cal/Mol-Kelvin    Cal/Mol-Kelvin
 Total                    6.471              8.640             56.726
 Electronic               0.000              0.000              2.755
 Translational            0.889              2.981             36.834
 Rotational               0.592              1.987             14.577
 Vibrational              4.990              3.672              2.559
 Vibration     1          0.706              1.634              1.306
 Vibration     2          0.731              1.564              1.141

 Normal termination of Gaussian 09 at Tue Aug 16 17:39:11 2016.
