 Gaussian 09, Revision E.01,
 Gaussian 09:  EM64L-G09RevE.01 30-Nov-2015

 ---------------------------------------------
 #p b3lyp/6-311++G(3df,2p) freq symmetry=Loose
 ---------------------------------------------

 ---------
 b3lyp opt
 ---------
 Symbolic Z-matrix:
 Charge =  2 Multiplicity = 2

                         Standard orientation:
 ---------------------------------------------------------------------
 Center     Atomic      Atomic             Coordinates (Angstroms)
 Number     Number       Type             X           Y           Z
 ---------------------------------------------------------------------
      1          7           0        0.000000    0.000000    0.050535
      2          6           0        0.000000    0.000000   -1.292299
      3          6           0        0.000000    0.000000    1.233340
 ---------------------------------------------------------------------

 SCF Done:  E(UB3LYP) =  -129.648215502     A.U. after   14 cycles

 The electronic state is 2-SG.
 Alpha  occ. eigenvalues --  -15.07530 -11.08706 -11.05497  -1.68209  -1.46393
 Alpha  occ. eigenvalues --   -1.11814  -1.09184  -1.09184  -0.99606
 Alpha virt. eigenvalues --   -0.80410  -0.80410  -0.61023  -0.61023  -0.42070
 Alpha virt. eigenvalues --   -0.37558  -0.30223  -0.30223  -0.28323  -0.24928
 Alpha virt. eigenvalues --   -0.22493  -0.22493  -0.21834  -0.21834  -0.21508

  Beta  occ. eigenvalues --  -15.07592 -11.06048 -11.05424  -1.67572  -1.45440
  Beta  occ. eigenvalues --   -1.08665  -1.08665  -0.99215
  Beta virt. eigenvalues --   -0.87604  -0.78297  -0.78297  -0.58611  -0.58611
  Beta virt. eigenvalues --   -0.41886  -0.36512  -0.30076  -0.30076  -0.27171
  Beta virt. eigenvalues --   -0.24433  -0.22337  -0.22337  -0.21628  -0.21628

 Mulliken charges and spin densities:
               1          2
     1  N    0.099399  -0.195768
     2  C    0.808335   0.029451
     3  C    1.092266   1.166317
 Sum of Mulliken charges =   2.00000   1.00000

 Dipole moment (field-independent basis, Debye):
    X=              0.0000    Y=              0.0000    Z=              1.5469  Tot=              1.5469
 Quadrupole moment (field-independent basis, Debye-Ang):
   XX=            -11.2256   YY=            -11.2256   ZZ=              2.3262
   XY=              0.0000   XZ=              0.0000   YZ=              0.0000

  Exact polarizability:  12.830   0.000  12.830  -0.000   0.000  39.023
 Approx polarizability:  18.108  -0.000  18.108  -0.000  -0.000  92.236

                      1                      2                      3
                     PI                     PI                     SG
 Frequencies --    156.7398               156.7417              1057.1641
 Red. masses --     13.1898                13.1898                12.2397
 Frc consts  --      0.1909                 0.1909                 8.0594
 IR Inten    --     13.4224                13.4226               156.6081

                      4
                     SG
 Frequencies --   1898.5444
 Red. masses --     12.9137
 Frc consts  --     27.4247
 IR Inten    --     95.2999

 - Thermochemistry -
 -------------------
 Temperature   298.150 Kelvin.  Pressure   1.00000 Atm.
 Atom     1 has atomic number  7 and mass  14.00307

 Molecular mass:    38.00307 amu.
 Principal axes and moments of inertia in atomic units:
                           1         2         3
     Eigenvalues --     0.00000 136.87796 136.87796
           X            0.00000  -0.00000   1.00000
           Y            0.00000   1.00000   0.00000
           Z            1.00000   0.00000   0.00000
 This molecule is a prolate symmetric top.
 Rotational symmetry number  1.
 Rotational temperature (Kelvin)      0.63278
 Rotational constant (GHZ):          13.185039
 Zero-point vibrational energy      19554.1 (Joules/Mol)
                                    4.67354 (Kcal/Mol)
 Warning -- explicit consideration of   2 degrees of freedom as
           vibrations may cause significant error
 Vibrational temperatures:    225.51   225.52  1521.02  2731.58
          (Kelvin)

 Zero-point correction=                           0.007448 (Hartree/Particle)
 Thermal correction to Energy=                    0.011102
 Thermal correction to Enthalpy=                  0.012046
 Thermal correction to Gibbs Free Energy=        -0.015361
 Sum of electronic and zero-point Energies=           -129.640768
 Sum of electronic and thermal Energies=              -129.637113
 Sum of electronic and thermal Enthalpies=            -129.636169
 Sum of electronic and thermal Free Energies=         -129.663577

                     E (Thermal)             CV                S
                      KCal/Mol        Cal/Mol-Kelvin    Cal/Mol-Kelvin
 Total                    6.967              9.094             57.684
 Electronic               0.000              0.000              1.377
 Translational            0.889              2.981             36.834
 Rotational               0.592              1.987             14.219
 Vibrational              5.485              4.126              5.254
 Vibration     1          0.620              1.895              2.589
 Vibration     2          0.620              1.895              2.589

 Optimization completed.
    -- Stationary point found.
 Normal termination of Gaussian 09 at Tue Aug 16 17:39:13 2016.
