 Gaussian 09, Revision E.01,
 Gaussian 09:  EM64L-G09RevE.01 30-Nov-2015

 ---------------------------------------------
 #p b3lyp/6-311++G(3df,2p) freq symmetry=Loose
 ---------------------------------------------

 ---------
 b3lyp opt
 ---------
 Symbolic Z-matrix:
 Charge =  0 Multiplicity = 2

                         Standard orientation:
 ---------------------------------------------------------------------
 Center     Atomic      Atomic             Coordinates (Angstroms)
 Number     Number       Type             X           Y           Z
 ---------------------------------------------------------------------
      1          6           0       -0.000000   -0.000000    1.386261
      2          6           0        0.000000    0.000000   -0.001781
      3          7           0       -0.000000    0.000000   -1.186697
 ---------------------------------------------------------------------

 SCF Done:  E(UB3LYP) =  -130.795136345     A.U. after   14 cycles

 Unable to determine electronic state:  partially filled degenerate orbitals.
 Alpha  occ. eigenvalues --  -14.41053 -10.31808 -10.26301  -0.97901  -0.78563
 Alpha  occ. eigenvalues --   -0.45504  -0.44264  -0.42603  -0.37417  -0.29429
 Alpha virt. eigenvalues --   -0.20501  -0.00053   0.02540   0.03437   0.04931
 Alpha virt. eigenvalues --    0.05536   0.05926   0.08705   0.09997   0.10174
 Alpha virt. eigenvalues --    0.14463   0.17138   0.20057   0.20204   0.22958

  Beta  occ. eigenvalues --  -14.40252 -10.30648 -10.26551  -0.96659  -0.75778
  Beta  occ. eigenvalues --   -0.44181  -0.42272  -0.40795  -0.35494
  Beta virt. eigenvalues --   -0.19229  -0.15976   0.00143   0.03503   0.04370
  Beta virt. eigenvalues --    0.05066   0.06169   0.07314   0.08777   0.10244
  Beta virt. eigenvalues --    0.10778   0.14624   0.17503   0.20293   0.20686

 Mulliken charges and spin densities:
               1          2
     1  C   -0.040823   0.773131
     2  C    0.772907  -0.149501
     3  N   -0.732083   0.376370
 Sum of Mulliken charges =  -0.00000   1.00000

 Dipole moment (field-independent basis, Debye):
    X=              0.0000    Y=             -0.0000    Z=              0.2371  Tot=              0.2371
 Quadrupole moment (field-independent basis, Debye-Ang):
   XX=            -17.1259   YY=            -15.4772   ZZ=            -22.2265
   XY=             -0.0000   XZ=              0.0000   YZ=             -0.0000

  Exact polarizability:  21.680  -0.000  21.325  -0.000   0.000  43.584
 Approx polarizability:  27.572   0.000  31.187   0.000  -0.000  89.512

                      1                      2                      3
                     PI                     PI                     SG
 Frequencies --    328.7422               439.3891              1009.1130
 Red. masses --     12.3003                12.3003                12.4077
 Frc consts  --      0.7832                 1.3991                 7.4443
 IR Inten    --     27.8166                15.1515                86.2811

                      4
                     SG
 Frequencies --   1961.1614
 Red. masses --     12.7318
 Frc consts  --     28.8514
 IR Inten    --    116.4093

 - Thermochemistry -
 -------------------
 Temperature   298.150 Kelvin.  Pressure   1.00000 Atm.
 Atom     1 has atomic number  6 and mass  12.00000

 Molecular mass:    38.00307 amu.
 Principal axes and moments of inertia in atomic units:
                           1         2         3
     Eigenvalues --     0.00000 152.77185 152.77185
           X           -0.00000   0.00785   0.99997
           Y           -0.00000   0.99997  -0.00785
           Z            1.00000   0.00000   0.00000
 This molecule is a prolate symmetric top.
 Rotational symmetry number  1.
 Rotational temperature (Kelvin)      0.56695
 Rotational constant (GHZ):          11.813310
 Zero-point vibrational energy      22360.6 (Joules/Mol)
                                    5.34432 (Kcal/Mol)
 Warning -- explicit consideration of   2 degrees of freedom as
           vibrations may cause significant error
 Vibrational temperatures:    472.99   632.18  1451.89  2821.67
          (Kelvin)

 Zero-point correction=                           0.008517 (Hartree/Particle)
 Thermal correction to Energy=                    0.011572
 Thermal correction to Enthalpy=                  0.012516
 Thermal correction to Gibbs Free Energy=        -0.013538
 Sum of electronic and zero-point Energies=           -130.786620
 Sum of electronic and thermal Energies=              -130.783564
 Sum of electronic and thermal Enthalpies=            -130.782620
 Sum of electronic and thermal Free Energies=         -130.808674

                     E (Thermal)             CV                S
                      KCal/Mol        Cal/Mol-Kelvin    Cal/Mol-Kelvin
 Total                    7.261              8.352             54.835
 Electronic               0.000              0.000              1.377
 Translational            0.889              2.981             36.834
 Rotational               0.592              1.987             14.437
 Vibrational              5.780              3.384              2.187
 Vibration     1          0.712              1.618              1.266
 Vibration     2          0.799              1.384              0.829

 Normal termination of Gaussian 09 at Tue Aug 16 17:39:28 2016.
