 Gaussian 09, Revision E.01,
 Gaussian 09:  EM64L-G09RevE.01 30-Nov-2015

 ---------------------------------------------
 #p b3lyp/6-311++G(3df,2p) freq symmetry=Loose
 ---------------------------------------------

 ---------
 b3lyp opt
 ---------
 Symbolic Z-matrix:
 Charge =  1 Multiplicity = 3

                         Standard orientation:
 ---------------------------------------------------------------------
 Center     Atomic      Atomic             Coordinates (Angstroms)
 Number     Number       Type             X           Y           Z
 ---------------------------------------------------------------------
      1          6           0       -0.000000    0.688096   -0.410476
      2          6           0       -0.000000   -0.688096   -0.410476
      3          7           0        0.000000    0.000000    0.703673
 ---------------------------------------------------------------------

 SCF Done:  E(UB3LYP) =  -130.358944154     A.U. after   12 cycles

 The electronic state is 3-B2.
 Alpha  occ. eigenvalues --  -14.77300 -10.68084 -10.68023  -1.46547  -0.95570
 Alpha  occ. eigenvalues --   -0.94820  -0.80940  -0.77181  -0.68069  -0.66301
 Alpha virt. eigenvalues --   -0.41139  -0.39688  -0.18344  -0.15783  -0.14675
 Alpha virt. eigenvalues --   -0.12658  -0.12481  -0.08503  -0.06478  -0.05239
 Alpha virt. eigenvalues --   -0.04700  -0.02628   0.00558   0.01187   0.02157

  Beta  occ. eigenvalues --  -14.76606 -10.66039 -10.65987  -1.45100  -0.91095
  Beta  occ. eigenvalues --   -0.88689  -0.79726  -0.69569
  Beta virt. eigenvalues --   -0.51444  -0.50396  -0.39222  -0.35454  -0.14884
  Beta virt. eigenvalues --   -0.14023  -0.13358  -0.12542  -0.10109  -0.08158
  Beta virt. eigenvalues --   -0.05897  -0.04926  -0.04232  -0.02570   0.01552

 Mulliken charges and spin densities:
               1          2
     1  C    0.531408   0.927814
     2  C    0.531408   0.927814
     3  N   -0.062816   0.144372
 Sum of Mulliken charges =   1.00000   2.00000

 Dipole moment (field-independent basis, Debye):
    X=             -0.0000    Y=              0.0000    Z=             -1.1669  Tot=              1.1669
 Quadrupole moment (field-independent basis, Debye-Ang):
   XX=            -12.8416   YY=            -10.8503   ZZ=            -13.4963
   XY=              0.0000   XZ=             -0.0000   YZ=             -0.0000

  Exact polarizability:  13.267  -0.000  22.475   0.000  -0.000  19.325
 Approx polarizability:  19.087   0.000  41.501   0.000  -0.000  35.653

                      1                      2                      3
                     A1                     B2                     A1
 Frequencies --   1108.9517              1196.7852              1659.7865
 Red. masses --     12.5860                12.5779                12.5494
 Frc consts  --      9.1193                10.6143                20.3694
 IR Inten    --     16.5542                56.1302                10.9977

 - Thermochemistry -
 -------------------
 Temperature   298.150 Kelvin.  Pressure   1.00000 Atm.
 Atom     1 has atomic number  6 and mass  12.00000

 Molecular mass:    38.00307 amu.
 Principal axes and moments of inertia in atomic units:
                           1         2         3
     Eigenvalues --    39.20121  40.57958  79.78079
           X           -0.00000   0.00000   1.00000
           Y            1.00000   0.00000   0.00000
           Z           -0.00000   1.00000   0.00000
 This molecule is an asymmetric top.
 Rotational symmetry number  2.
 Rotational temperatures (Kelvin)      2.20947     2.13442     1.08565
 Rotational constants (GHZ):          46.03789    44.47413    22.62125
 Zero-point vibrational energy      23719.1 (Joules/Mol)
                                    5.66900 (Kcal/Mol)
 Vibrational temperatures:   1595.53  1721.90  2388.06
          (Kelvin)

 Zero-point correction=                           0.009034 (Hartree/Particle)
 Thermal correction to Energy=                    0.011910
 Thermal correction to Enthalpy=                  0.012854
 Thermal correction to Gibbs Free Energy=        -0.014336
 Sum of electronic and zero-point Energies=           -130.349910
 Sum of electronic and thermal Energies=              -130.347034
 Sum of electronic and thermal Enthalpies=            -130.346090
 Sum of electronic and thermal Free Energies=         -130.373280

                     E (Thermal)             CV                S
                      KCal/Mol        Cal/Mol-Kelvin    Cal/Mol-Kelvin
 Total                    7.474              6.483             57.227
 Electronic               0.000              0.000              2.183
 Translational            0.889              2.981             36.834
 Rotational               0.889              2.981             18.102
 Vibrational              5.696              0.522              0.108

 Optimization completed.
    -- Stationary point found.
 Normal termination of Gaussian 09 at Tue Aug 16 17:38:38 2016.
