 Gaussian 09, Revision E.01,
 Gaussian 09:  EM64L-G09RevE.01 30-Nov-2015

 ---------------------------------------------
 #p b3lyp/6-311++G(3df,2p) freq symmetry=Loose
 ---------------------------------------------

 ---------
 b3lyp opt
 ---------
 Symbolic Z-matrix:
 Charge =  2 Multiplicity = 4

                         Standard orientation:
 ---------------------------------------------------------------------
 Center     Atomic      Atomic             Coordinates (Angstroms)
 Number     Number       Type             X           Y           Z
 ---------------------------------------------------------------------
      1          6           0       -0.000000    0.763636   -0.397901
      2          6           0       -0.000000   -0.763636   -0.397901
      3          7           0        0.000000   -0.000000    0.682117
 ---------------------------------------------------------------------

 SCF Done:  E(UB3LYP) =  -129.552623119     A.U. after   13 cycles

 The electronic state is 4-B2.
 Alpha  occ. eigenvalues --  -15.17710 -11.08476 -11.08452  -1.80543  -1.31767
 Alpha  occ. eigenvalues --   -1.29793  -1.13983  -1.13064  -1.05880  -1.00660
 Alpha virt. eigenvalues --   -0.76305  -0.74744  -0.58974  -0.40256  -0.38315
 Alpha virt. eigenvalues --   -0.36341  -0.31750  -0.27941  -0.27615  -0.25658
 Alpha virt. eigenvalues --   -0.24295  -0.23360  -0.22459  -0.22112  -0.14821

  Beta  occ. eigenvalues --  -15.15847 -11.05665 -11.05649  -1.77075  -1.25360
  Beta  occ. eigenvalues --   -1.20054  -1.11919
  Beta virt. eigenvalues --   -0.91244  -0.83311  -0.80943  -0.70723  -0.70692
  Beta virt. eigenvalues --   -0.48679  -0.37115  -0.34937  -0.34825  -0.31581
  Beta virt. eigenvalues --   -0.27120  -0.24219  -0.23397  -0.22319  -0.22123

 Mulliken charges and spin densities:
               1          2
     1  C    0.893366   1.230032
     2  C    0.893366   1.230032
     3  N    0.213267   0.539935
 Sum of Mulliken charges =   2.00000   3.00000

 Dipole moment (field-independent basis, Debye):
    X=             -0.0000    Y=             -0.0000    Z=             -1.6027  Tot=              1.6027
 Quadrupole moment (field-independent basis, Debye-Ang):
   XX=            -11.0214   YY=             -5.2180   ZZ=             -8.3307
   XY=              0.0000   XZ=              0.0000   YZ=              0.0000

  Exact polarizability:  11.782   0.000  16.903  -0.000   0.000  17.079
 Approx polarizability:  16.719   0.000  32.770   0.000   0.000  35.600

                      1                      2                      3
                     A1                     B2                     A1
 Frequencies --    841.3476              1212.3346              1520.3141
 Red. masses --     12.3104                12.6583                12.8359
 Frc consts  --      5.1342                10.9615                17.4801
 IR Inten    --     18.5372                53.9176                 5.9730

 - Thermochemistry -
 -------------------
 Temperature   298.150 Kelvin.  Pressure   1.00000 Atm.
 Atom     1 has atomic number  6 and mass  12.00000

 Molecular mass:    38.00307 amu.
 Principal axes and moments of inertia in atomic units:
                           1         2         3
     Eigenvalues --    36.83624  49.97837  86.81461
           X            0.00000   0.00000   1.00000
           Y            1.00000  -0.00000  -0.00000
           Z            0.00000   1.00000  -0.00000
 This molecule is an asymmetric top.
 Rotational symmetry number  2.
 Rotational temperatures (Kelvin)      2.35132     1.73303     0.99769
 Rotational constants (GHZ):          48.99363    36.11045    20.78845
 Zero-point vibrational energy      21377.2 (Joules/Mol)
                                    5.10928 (Kcal/Mol)
 Vibrational temperatures:   1210.51  1744.28  2187.39
          (Kelvin)

 Zero-point correction=                           0.008142 (Hartree/Particle)
 Thermal correction to Energy=                    0.011062
 Thermal correction to Enthalpy=                  0.012007
 Thermal correction to Gibbs Free Energy=        -0.015620
 Sum of electronic and zero-point Energies=           -129.544481
 Sum of electronic and thermal Energies=              -129.541561
 Sum of electronic and thermal Enthalpies=            -129.540616
 Sum of electronic and thermal Free Energies=         -129.568243

                     E (Thermal)             CV                S
                      KCal/Mol        Cal/Mol-Kelvin    Cal/Mol-Kelvin
 Total                    6.942              6.813             58.146
 Electronic               0.000              0.000              2.755
 Translational            0.889              2.981             36.834
 Rotational               0.889              2.981             18.331
 Vibrational              5.164              0.852              0.226

 Optimization completed.
    -- Stationary point found.
 Normal termination of Gaussian 09 at Tue Aug 16 17:39:00 2016.
