 Gaussian 09, Revision E.01,
 Gaussian 09:  EM64L-G09RevE.01 30-Nov-2015

 ---------------------------------------------
 #p b3lyp/6-311++G(3df,2p) freq symmetry=Loose
 ---------------------------------------------

 ---------
 b3lyp opt
 ---------
 Symbolic Z-matrix:
 Charge =  2 Multiplicity = 2

                         Standard orientation:
 ---------------------------------------------------------------------
 Center     Atomic      Atomic             Coordinates (Angstroms)
 Number     Number       Type             X           Y           Z
 ---------------------------------------------------------------------
      1          6           0       -0.000000    0.654389   -0.432746
      2          6           0       -0.000000   -0.654389   -0.432746
      3          7           0        0.000000    0.000000    0.741851
 ---------------------------------------------------------------------

 SCF Done:  E(UB3LYP) =  -129.550299205     A.U. after   13 cycles

 The electronic state is 2-A1.
 Alpha  occ. eigenvalues --  -15.18897 -11.09525 -11.09416  -1.82506  -1.33173
 Alpha  occ. eigenvalues --   -1.26864  -1.15872  -1.10639  -1.03140
 Alpha virt. eigenvalues --   -0.93682  -0.77805  -0.72481  -0.51061  -0.43341
 Alpha virt. eigenvalues --   -0.37241  -0.33739  -0.32615  -0.28504  -0.25647
 Alpha virt. eigenvalues --   -0.24547  -0.23037  -0.22532  -0.22355  -0.20865

  Beta  occ. eigenvalues --  -15.18958 -11.08168 -11.08079  -1.82308  -1.31391
  Beta  occ. eigenvalues --   -1.23736  -1.15180  -1.07091
  Beta virt. eigenvalues --   -0.89493  -0.87545  -0.77141  -0.69334  -0.47890
  Beta virt. eigenvalues --   -0.42512  -0.36465  -0.33246  -0.32525  -0.28087
  Beta virt. eigenvalues --   -0.25020  -0.24225  -0.22436  -0.22351  -0.22278

 Mulliken charges and spin densities:
               1          2
     1  C    0.867127   0.574949
     2  C    0.867127   0.574949
     3  N    0.265746  -0.149898
 Sum of Mulliken charges =   2.00000   1.00000

 Dipole moment (field-independent basis, Debye):
    X=             -0.0000    Y=              0.0000    Z=             -2.4377  Tot=              2.4377
 Quadrupole moment (field-independent basis, Debye-Ang):
   XX=            -11.0364   YY=             -5.9080   ZZ=             -8.2664
   XY=              0.0000   XZ=              0.0000   YZ=              0.0000

  Exact polarizability:  10.041  -0.000  16.414  -0.000   0.000  16.729
 Approx polarizability:  14.271   0.000  61.187   0.000   0.000  37.910

                      1                      2                      3
                     A1                     A1                     B2
 Frequencies --   1122.5828              1662.8753              2185.8287
 Red. masses --     13.0609                12.1103                12.5170
 Frc consts  --      9.6975                19.7299                35.2357
 IR Inten    --      0.4976                 3.1964               746.9264

 - Thermochemistry -
 -------------------
 Temperature   298.150 Kelvin.  Pressure   1.00000 Atm.
 Atom     1 has atomic number  6 and mass  12.00000

 Molecular mass:    38.00307 amu.
 Principal axes and moments of inertia in atomic units:
                           1         2         3
     Eigenvalues --    36.70121  43.57041  80.27161
           X            0.00000  -0.00000   1.00000
           Y           -0.00000   1.00000   0.00000
           Z            1.00000   0.00000  -0.00000
 This molecule is an asymmetric top.
 Rotational symmetry number  2.
 Rotational temperatures (Kelvin)      2.35997     1.98790     1.07901
 Rotational constants (GHZ):          49.17389    41.42126    22.48293
 Zero-point vibrational energy      29734.9 (Joules/Mol)
                                    7.10681 (Kcal/Mol)
 Vibrational temperatures:   1615.14  2392.50  3144.92
          (Kelvin)

 Zero-point correction=                           0.011325 (Hartree/Particle)
 Thermal correction to Energy=                    0.014184
 Thermal correction to Enthalpy=                  0.015128
 Thermal correction to Gibbs Free Energy=        -0.011664
 Sum of electronic and zero-point Energies=           -129.538974
 Sum of electronic and thermal Energies=              -129.536116
 Sum of electronic and thermal Enthalpies=            -129.535171
 Sum of electronic and thermal Free Energies=         -129.561963

                     E (Thermal)             CV                S
                      KCal/Mol        Cal/Mol-Kelvin    Cal/Mol-Kelvin
 Total                    8.900              6.271             56.388
 Electronic               0.000              0.000              1.377
 Translational            0.889              2.981             36.834
 Rotational               0.889              2.981             18.113
 Vibrational              7.123              0.309              0.063

 Optimization completed.
    -- Stationary point found.
 Normal termination of Gaussian 09 at Tue Aug 16 17:38:36 2016.
