 Gaussian 09, Revision E.01,
 Gaussian 09:  EM64L-G09RevE.01 30-Nov-2015

 ---------------------------------------------
 #p b3lyp/6-311++G(3df,2p) freq symmetry=Loose
 ---------------------------------------------

 ---------
 b3lyp opt
 ---------
 Symbolic Z-matrix:
 Charge =  1 Multiplicity = 1

                         Standard orientation:
 ---------------------------------------------------------------------
 Center     Atomic      Atomic             Coordinates (Angstroms)
 Number     Number       Type             X           Y           Z
 ---------------------------------------------------------------------
      1          6           0       -0.000000    0.000000    1.249654
      2          6           0        0.000000   -0.000000   -1.249654
      3          7           0       -0.000000    0.000000   -0.000000
 ---------------------------------------------------------------------

 SCF Done:  E(RB3LYP) =  -130.430653298     A.U. after    9 cycles

 The electronic state is 1-SGG.
 Alpha  occ. eigenvalues --  -14.73442 -10.67899 -10.67897  -1.36075  -1.14683
 Alpha  occ. eigenvalues --   -0.77754  -0.77754  -0.70470  -0.66839
 Alpha virt. eigenvalues --   -0.47838  -0.47838  -0.28264  -0.28264  -0.18076
 Alpha virt. eigenvalues --   -0.11313  -0.11313  -0.10076  -0.08943  -0.05860
 Alpha virt. eigenvalues --   -0.05860  -0.03780  -0.02516   0.01599   0.01599

 Mulliken charges:
               1
     1  C    0.460334
     2  C    0.460334
     3  N    0.079332
 Sum of Mulliken charges =   1.00000

 Dipole moment (field-independent basis, Debye):
    X=              0.0000    Y=             -0.0000    Z=              0.0000  Tot=              0.0000
 Quadrupole moment (field-independent basis, Debye-Ang):
   XX=            -13.3103   YY=            -13.3103   ZZ=            -11.5464
   XY=              0.0000   XZ=             -0.0000   YZ=              0.0000

  Exact polarizability:  17.257   0.000  17.257  -0.000   0.000  31.309
 Approx polarizability:  26.020  -0.000  26.020  -0.000   0.000  61.724

                      1                      2                      3
                     PIU                    PIU                    SGG
 Frequencies --    192.0963               192.0963              1268.2223
 Red. masses --     13.1917                13.1917                12.0000
 Frc consts  --      0.2868                 0.2868                11.3716
 IR Inten    --      1.1046                 1.1046                 0.0000

                      4
                     SGU
 Frequencies --   1976.2097
 Red. masses --     13.1917
 Frc consts  --     30.3541
 IR Inten    --   1359.7617

 - Thermochemistry -
 -------------------
 Temperature   298.150 Kelvin.  Pressure   1.00000 Atm.
 Atom     1 has atomic number  6 and mass  12.00000

 Molecular mass:    38.00307 amu.
 Principal axes and moments of inertia in atomic units:
                           1         2         3
     Eigenvalues --     0.00000 133.84089 133.84089
           X           -0.00000   0.77947  -0.62643
           Y            0.00000   0.62643   0.77947
           Z            1.00000   0.00000  -0.00000
 This molecule is a prolate symmetric top.
 Rotational symmetry number  2.
 Rotational temperature (Kelvin)      0.64714
 Rotational constant (GHZ):          13.484229
 Zero-point vibrational energy      21704.0 (Joules/Mol)
                                    5.18738 (Kcal/Mol)
 Warning -- explicit consideration of   2 degrees of freedom as
           vibrations may cause significant error
 Vibrational temperatures:    276.38   276.38  1824.69  2843.32
          (Kelvin)

 Zero-point correction=                           0.008267 (Hartree/Particle)
 Thermal correction to Energy=                    0.011787
 Thermal correction to Enthalpy=                  0.012731
 Thermal correction to Gibbs Free Energy=        -0.012963
 Sum of electronic and zero-point Energies=           -130.422387
 Sum of electronic and thermal Energies=              -130.418866
 Sum of electronic and thermal Enthalpies=            -130.417922
 Sum of electronic and thermal Free Energies=         -130.443617

                     E (Thermal)             CV                S
                      KCal/Mol        Cal/Mol-Kelvin    Cal/Mol-Kelvin
 Total                    7.396              8.847             54.079
 Electronic               0.000              0.000              0.000
 Translational            0.889              2.981             36.834
 Rotational               0.592              1.987             12.797
 Vibrational              5.915              3.879              4.448
 Vibration     1          0.634              1.851              2.208
 Vibration     2          0.634              1.851              2.208

 Normal termination of Gaussian 09 at Tue Aug 16 17:38:07 2016.
