 Gaussian 09, Revision E.01,
 Gaussian 09:  EM64L-G09RevE.01 30-Nov-2015

 ---------------------------------------------
 #p b3lyp/6-311++G(3df,2p) freq symmetry=Loose
 ---------------------------------------------

 ---------
 b3lyp opt
 ---------
 Symbolic Z-matrix:
 Charge =  1 Multiplicity = 1

                         Standard orientation:
 ---------------------------------------------------------------------
 Center     Atomic      Atomic             Coordinates (Angstroms)
 Number     Number       Type             X           Y           Z
 ---------------------------------------------------------------------
      1          6           0       -0.000000    0.000000    1.380489
      2          6           0        0.000000   -0.000000   -0.002975
      3          7           0       -0.000000    0.000000   -1.180726
 ---------------------------------------------------------------------

 SCF Done:  E(RB3LYP) =  -130.388167933     A.U. after   11 cycles

 The electronic state is 1-SG.
 Alpha  occ. eigenvalues --  -14.75943 -10.71579 -10.57791  -1.29757  -1.11678
 Alpha  occ. eigenvalues --   -0.75055  -0.73309  -0.73309  -0.68838
 Alpha virt. eigenvalues --   -0.51965  -0.51965  -0.25578  -0.25578  -0.20623
 Alpha virt. eigenvalues --   -0.11923  -0.11923  -0.10647  -0.08302  -0.07199
 Alpha virt. eigenvalues --   -0.05652  -0.05652  -0.00050   0.00821   0.00821

 Mulliken charges:
               1
     1  C    0.552732
     2  C    0.919646
     3  N   -0.472378
 Sum of Mulliken charges =   1.00000

 Dipole moment (field-independent basis, Debye):
    X=              0.0000    Y=              0.0000    Z=              1.8351  Tot=              1.8351
 Quadrupole moment (field-independent basis, Debye-Ang):
   XX=            -13.1879   YY=            -13.1879   ZZ=            -11.0507
   XY=             -0.0000   XZ=             -0.0000   YZ=              0.0000

  Exact polarizability:  16.209  -0.000  16.209  -0.000  -0.000  35.448
 Approx polarizability:  23.678  -0.000  23.678   0.000  -0.000 104.026

                      1                      2                      3
                     PI                     PI                     SG
 Frequencies --    197.4710               197.4710              1108.8536
 Red. masses --     12.3010                12.3010                12.5480
 Frc consts  --      0.2826                 0.2826                 9.0902
 IR Inten    --     15.5695                15.5695               151.7547

                      4
                     SG
 Frequencies --   2239.2493
 Red. masses --     12.5874
 Frc consts  --     37.1871
 IR Inten    --    663.9832

 - Thermochemistry -
 -------------------
 Temperature   298.150 Kelvin.  Pressure   1.00000 Atm.
 Atom     1 has atomic number  6 and mass  12.00000

 Molecular mass:    38.00307 amu.
 Principal axes and moments of inertia in atomic units:
                           1         2         3
     Eigenvalues --     0.00000 151.38094 151.38094
           X           -0.00000   0.91990   0.39215
           Y            0.00000  -0.39215   0.91990
           Z            1.00000   0.00000   0.00000
 This molecule is a prolate symmetric top.
 Rotational symmetry number  1.
 Rotational temperature (Kelvin)      0.57216
 Rotational constant (GHZ):          11.921852
 Zero-point vibrational energy      22388.4 (Joules/Mol)
                                    5.35095 (Kcal/Mol)
 Warning -- explicit consideration of   2 degrees of freedom as
           vibrations may cause significant error
 Vibrational temperatures:    284.12   284.12  1595.39  3221.78
          (Kelvin)

 Zero-point correction=                           0.008527 (Hartree/Particle)
 Thermal correction to Energy=                    0.012041
 Thermal correction to Enthalpy=                  0.012986
 Thermal correction to Gibbs Free Energy=        -0.013444
 Sum of electronic and zero-point Energies=           -130.379641
 Sum of electronic and thermal Energies=              -130.376126
 Sum of electronic and thermal Enthalpies=            -130.375182
 Sum of electronic and thermal Free Energies=         -130.401612

                     E (Thermal)             CV                S
                      KCal/Mol        Cal/Mol-Kelvin    Cal/Mol-Kelvin
 Total                    7.556              8.932             55.627
 Electronic               0.000              0.000              0.000
 Translational            0.889              2.981             36.834
 Rotational               0.592              1.987             14.419
 Vibrational              6.075              3.964              4.374
 Vibration     1          0.637              1.843              2.157
 Vibration     2          0.637              1.843              2.157

 Normal termination of Gaussian 09 at Tue Aug 16 17:38:50 2016.
