 Gaussian 09, Revision E.01,
 Gaussian 09:  EM64L-G09RevE.01 30-Nov-2015

 ---------------------------------------------
 #p b3lyp/6-311++G(3df,2p) freq symmetry=Loose
 ---------------------------------------------

 ---------
 b3lyp opt
 ---------
 Symbolic Z-matrix:
 Charge =  1 Multiplicity = 3

                         Standard orientation:
 ---------------------------------------------------------------------
 Center     Atomic      Atomic             Coordinates (Angstroms)
 Number     Number       Type             X           Y           Z
 ---------------------------------------------------------------------
      1          6           0       -0.000000   -0.000000   -1.339894
      2          6           0        0.000000   -0.000000   -0.029594
      3          7           0       -0.000000    0.000000    1.173846
 ---------------------------------------------------------------------

 SCF Done:  E(UB3LYP) =  -130.339949396     A.U. after   15 cycles

 Unable to determine electronic state:  an orbital has unidentified symmetry.
 Alpha  occ. eigenvalues --  -14.73587 -10.70985 -10.58291  -1.27426  -1.13630
 Alpha  occ. eigenvalues --   -0.79966  -0.74685  -0.72530  -0.72191  -0.62179
 Alpha virt. eigenvalues --   -0.52937  -0.26316  -0.24939  -0.19181  -0.11767
 Alpha virt. eigenvalues --   -0.11753  -0.11746  -0.07587  -0.05727  -0.05636
 Alpha virt. eigenvalues --   -0.05634   0.00318   0.01506   0.01582   0.04403

  Beta  occ. eigenvalues --  -14.72852 -10.67328 -10.58359  -1.26385  -1.08107
  Beta  occ. eigenvalues --   -0.71782  -0.71743  -0.69767
  Beta virt. eigenvalues --   -0.54539  -0.49017  -0.45653  -0.22957  -0.21161
  Beta virt. eigenvalues --   -0.18731  -0.11456  -0.10916  -0.10438  -0.06923
  Beta virt. eigenvalues --   -0.05392  -0.05062  -0.03653   0.00688   0.02277

 Mulliken charges and spin densities:
               1          2
     1  C    0.678072   1.864624
     2  C    0.792724  -0.161050
     3  N   -0.470796   0.296426
 Sum of Mulliken charges =   1.00000   2.00000

 Dipole moment (field-independent basis, Debye):
    X=              0.0000    Y=             -0.0000    Z=             -3.5088  Tot=              3.5088
 Quadrupole moment (field-independent basis, Debye-Ang):
   XX=            -12.8674   YY=            -14.1964   ZZ=             -6.8177
   XY=              0.0000   XZ=              0.0000   YZ=              0.0000

  Exact polarizability:  14.271  -0.000  13.596   0.000  -0.000  36.287
 Approx polarizability:  19.424   0.000  17.412  -0.000   0.000 101.175

                      1                      2                      3
                     PI                     PI                     SG
 Frequencies --    325.5390               436.9023              1213.5364
 Red. masses --     12.2797                12.2797                12.6104
 Frc consts  --      0.7667                 1.3810                10.9417
 IR Inten    --      0.8860                 0.0048                16.5556

                      4
                     SG
 Frequencies --   1897.5744
 Red. masses --     12.5253
 Frc consts  --     26.5726
 IR Inten    --    320.2693

 - Thermochemistry -
 -------------------
 Temperature   298.150 Kelvin.  Pressure   1.00000 Atm.
 Atom     1 has atomic number  6 and mass  12.00000

 Molecular mass:    38.00307 amu.
 Principal axes and moments of inertia in atomic units:
                           1         2         3
     Eigenvalues --     0.00000 145.87565 145.87565
           X            0.00000   0.00000   1.00000
           Y            0.00000   1.00000  -0.00000
           Z            1.00000  -0.00000   0.00000
 This molecule is a prolate symmetric top.
 Rotational symmetry number  1.
 Rotational temperature (Kelvin)      0.59375
 Rotational constant (GHZ):          12.371778
 Zero-point vibrational energy      23169.0 (Joules/Mol)
                                    5.53752 (Kcal/Mol)
 Warning -- explicit consideration of   2 degrees of freedom as
           vibrations may cause significant error
 Vibrational temperatures:    468.38   628.60  1746.01  2730.18
          (Kelvin)

 Zero-point correction=                           0.008825 (Hartree/Particle)
 Thermal correction to Energy=                    0.011866
 Thermal correction to Enthalpy=                  0.012810
 Thermal correction to Gibbs Free Energy=        -0.013570
 Sum of electronic and zero-point Energies=           -130.331125
 Sum of electronic and thermal Energies=              -130.328083
 Sum of electronic and thermal Enthalpies=            -130.327139
 Sum of electronic and thermal Free Energies=         -130.353520

                     E (Thermal)             CV                S
                      KCal/Mol        Cal/Mol-Kelvin    Cal/Mol-Kelvin
 Total                    7.446              8.196             55.522
 Electronic               0.000              0.000              2.183
 Translational            0.889              2.981             36.834
 Rotational               0.592              1.987             14.345
 Vibrational              5.965              3.228              2.160
 Vibration     1          0.710              1.624              1.282
 Vibration     2          0.797              1.390              0.836

 Normal termination of Gaussian 09 at Tue Aug 16 17:39:15 2016.
