 Gaussian 09, Revision E.01,
 Gaussian 09:  EM64L-G09RevE.01 30-Nov-2015

 ---------------------------------------------
 #p b3lyp/6-311++G(3df,2p) freq symmetry=Loose
 ---------------------------------------------

 ---------
 b3lyp opt
 ---------
 Symbolic Z-matrix:
 Charge =  0 Multiplicity = 4

                         Standard orientation:
 ---------------------------------------------------------------------
 Center     Atomic      Atomic             Coordinates (Angstroms)
 Number     Number       Type             X           Y           Z
 ---------------------------------------------------------------------
      1          6           0        0.000000    0.737413   -0.000000
      2          6           0        0.829891   -0.336834    0.000000
      3          7           0       -0.711335   -0.343354    0.000000
 ---------------------------------------------------------------------

 SCF Done:  E(UB3LYP) =  -130.678718411     A.U. after   15 cycles

 The electronic state is 4-A".
 Alpha  occ. eigenvalues --  -14.40715 -10.31413 -10.30115  -1.06312  -0.67097
 Alpha  occ. eigenvalues --   -0.56047  -0.47023  -0.44201  -0.38108  -0.31248
 Alpha  occ. eigenvalues --   -0.23354
 Alpha virt. eigenvalues --   -0.05770   0.01607   0.02648   0.04200   0.05276
 Alpha virt. eigenvalues --    0.07244   0.08693   0.09570   0.10736   0.13375
 Alpha virt. eigenvalues --    0.15213   0.15880   0.20699   0.21527   0.26574

  Beta  occ. eigenvalues --  -14.38744 -10.29033 -10.28251  -1.02925  -0.59652
  Beta  occ. eigenvalues --   -0.48669  -0.41293  -0.37054
  Beta virt. eigenvalues --   -0.21133  -0.16811  -0.07308  -0.01510   0.03170
  Beta virt. eigenvalues --    0.03693   0.04781   0.05681   0.08923   0.09126
  Beta virt. eigenvalues --    0.11742   0.13031   0.13762   0.16180   0.16761

 Mulliken charges and spin densities:
               1          2
     1  C    0.212083   0.541416
     2  C    0.147206   1.711303
     3  N   -0.359290   0.747281
 Sum of Mulliken charges =  -0.00000   3.00000

 Dipole moment (field-independent basis, Debye):
    X=              0.8492    Y=              0.2037    Z=             -0.0000  Tot=              0.8733
 Quadrupole moment (field-independent basis, Debye-Ang):
   XX=            -17.3351   YY=            -17.0400   ZZ=            -16.9454
   XY=             -1.1861   XZ=              0.0000   YZ=              0.0000

  Exact polarizability:  31.223  -1.182  27.384   0.000   0.000  19.431
 Approx polarizability:  58.065  -3.273  45.843   0.000  -0.000  25.745

                      1                      2                      3
                     A'                     A'                     A'
 Frequencies --    650.5081               729.4827              1577.0043
 Red. masses --     12.4066                12.8672                12.3750
 Frc consts  --      3.0932                 4.0342                18.1326
 IR Inten    --     12.5182                38.7336                 0.3984

 - Thermochemistry -
 -------------------
 Temperature   298.150 Kelvin.  Pressure   1.00000 Atm.
 Atom     1 has atomic number  6 and mass  12.00000

 Molecular mass:    38.00307 amu.
 Principal axes and moments of inertia in atomic units:
                           1         2         3
     Eigenvalues --    34.05699  54.81905  88.87604
           X            0.99994  -0.01130   0.00000
           Y            0.01130   0.99994   0.00000
           Z           -0.00000  -0.00000   1.00000
 This molecule is an asymmetric top.
 Rotational symmetry number  1.
 Rotational temperatures (Kelvin)      2.54320     1.57999     0.97455
 Rotational constants (GHZ):          52.99180    32.92179    20.30627
 Zero-point vibrational energy      17686.8 (Joules/Mol)
                                    4.22724 (Kcal/Mol)
 Vibrational temperatures:    935.93  1049.56  2268.95
          (Kelvin)

 Zero-point correction=                           0.006737 (Hartree/Particle)
 Thermal correction to Energy=                    0.009808
 Thermal correction to Enthalpy=                  0.010752
 Thermal correction to Gibbs Free Energy=        -0.017749
 Sum of electronic and zero-point Energies=           -130.671982
 Sum of electronic and thermal Energies=              -130.668910
 Sum of electronic and thermal Enthalpies=            -130.667966
 Sum of electronic and thermal Free Energies=         -130.696467

                     E (Thermal)             CV                S
                      KCal/Mol        Cal/Mol-Kelvin    Cal/Mol-Kelvin
 Total                    6.155              7.719             59.986
 Electronic               0.000              0.000              2.755
 Translational            0.889              2.981             36.834
 Rotational               0.889              2.981             19.745
 Vibrational              4.377              1.758              0.652

 Optimization completed.
    -- Stationary point found.
 Normal termination of Gaussian 09 at Tue Aug 16 17:40:21 2016.
