 Gaussian 09, Revision E.01,
 Gaussian 09:  EM64L-G09RevE.01 30-Nov-2015

 ---------------------------------------------
 #p b3lyp/6-311++G(3df,2p) freq symmetry=Loose
 ---------------------------------------------

 ---------
 b3lyp opt
 ---------
 Symbolic Z-matrix:
 Charge =  2 Multiplicity = 4

                         Standard orientation:
 ---------------------------------------------------------------------
 Center     Atomic      Atomic             Coordinates (Angstroms)
 Number     Number       Type             X           Y           Z
 ---------------------------------------------------------------------
      1          6           0        0.000000    0.000000   -1.214807
      2          6           0       -0.000000    0.000000    1.214807
      3          7           0       -0.000000   -0.000000    0.000000
 ---------------------------------------------------------------------

 SCF Done:  E(UB3LYP) =  -129.591926965     A.U. after   10 cycles

 Unable to determine electronic state:  an orbital has unidentified symmetry.
 Alpha  occ. eigenvalues --  -15.07550 -11.05126 -11.05122  -1.68067  -1.48312
 Alpha  occ. eigenvalues --   -1.11298  -1.10827  -1.09312  -1.08294  -0.91149
 Alpha virt. eigenvalues --   -0.81665  -0.61957  -0.59722  -0.38522  -0.32767
 Alpha virt. eigenvalues --   -0.29908  -0.29870  -0.28223  -0.24698  -0.22759
 Alpha virt. eigenvalues --   -0.22523  -0.22158  -0.21566  -0.21472  -0.14708

  Beta  occ. eigenvalues --  -15.07738 -11.01310 -11.01308  -1.66710  -1.44067
  Beta  occ. eigenvalues --   -1.08472  -1.07331
  Beta virt. eigenvalues --   -0.84520  -0.81367  -0.74690  -0.71308  -0.54126
  Beta virt. eigenvalues --   -0.51923  -0.37952  -0.29427  -0.28718  -0.28013
  Beta virt. eigenvalues --   -0.26123  -0.22478  -0.22114  -0.21671  -0.20611

 Mulliken charges and spin densities:
               1          2
     1  C    1.041842   1.691712
     2  C    1.041842   1.691712
     3  N   -0.083684  -0.383425
 Sum of Mulliken charges =   2.00000   3.00000

 Dipole moment (field-independent basis, Debye):
    X=             -0.0000    Y=             -0.0000    Z=              0.0000  Tot=              0.0000
 Quadrupole moment (field-independent basis, Debye-Ang):
   XX=            -10.6213   YY=            -11.9680   ZZ=              4.7416
   XY=             -0.0000   XZ=             -0.0000   YZ=              0.0000

  Exact polarizability:  11.160   0.000   9.933  -0.000  -0.000  26.672
 Approx polarizability:  14.268  -0.000  12.089  -0.000  -0.000  60.097

                      1                      2                      3
                     PIU                    PIU                    SGG
 Frequencies --    312.1413               426.7481              1449.9042
 Red. masses --     13.1917                13.1917                12.0000
 Frc consts  --      0.7573                 1.4154                14.8631
 IR Inten    --     30.4047                33.1445                 0.0000

                      4
                     SGU
 Frequencies --   1677.9599
 Red. masses --     13.1917
 Frc consts  --     21.8834
 IR Inten    --    187.9025

 - Thermochemistry -
 -------------------
 Temperature   298.150 Kelvin.  Pressure   1.00000 Atm.
 Atom     1 has atomic number  6 and mass  12.00000

 Molecular mass:    38.00307 amu.
 Principal axes and moments of inertia in atomic units:
                           1         2         3
     Eigenvalues --     0.00000 126.48045 126.48045
           X           -0.00000   1.00000  -0.00000
           Y            0.00000   0.00000   1.00000
           Z            1.00000   0.00000  -0.00000
 This molecule is a prolate symmetric top.
 Rotational symmetry number  2.
 Rotational temperature (Kelvin)      0.68480
 Rotational constant (GHZ):          14.268934
 Zero-point vibrational energy      23128.3 (Joules/Mol)
                                    5.52780 (Kcal/Mol)
 Warning -- explicit consideration of   2 degrees of freedom as
           vibrations may cause significant error
 Vibrational temperatures:    449.10   613.99  2086.09  2414.21
          (Kelvin)

 Zero-point correction=                           0.008809 (Hartree/Particle)
 Thermal correction to Energy=                    0.011867
 Thermal correction to Enthalpy=                  0.012812
 Thermal correction to Gibbs Free Energy=        -0.013090
 Sum of electronic and zero-point Energies=           -129.583118
 Sum of electronic and thermal Energies=              -129.580060
 Sum of electronic and thermal Enthalpies=            -129.579115
 Sum of electronic and thermal Free Energies=         -129.605017

                     E (Thermal)             CV                S
                      KCal/Mol        Cal/Mol-Kelvin    Cal/Mol-Kelvin
 Total                    7.447              8.159             54.514
 Electronic               0.000              0.000              2.755
 Translational            0.889              2.981             36.834
 Rotational               0.592              1.987             12.684
 Vibrational              5.966              3.191              2.240
 Vibration     1          0.700              1.651              1.351
 Vibration     2          0.788              1.412              0.869

 Optimization completed.
    -- Stationary point found.
 Normal termination of Gaussian 09 at Tue Aug 16 17:38:49 2016.
