 Gaussian 09, Revision E.01,
 Gaussian 09:  EM64L-G09RevE.01 30-Nov-2015

 ---------------------------------------------
 #p b3lyp/6-311++G(3df,2p) freq symmetry=Loose
 ---------------------------------------------

 ---------
 b3lyp opt
 ---------
 Symbolic Z-matrix:
 Charge =  1 Multiplicity = 3

                         Standard orientation:
 ---------------------------------------------------------------------
 Center     Atomic      Atomic             Coordinates (Angstroms)
 Number     Number       Type             X           Y           Z
 ---------------------------------------------------------------------
      1          7           0       -0.000000   -0.000000    0.000000
      2          6           0        0.000000    0.000000    1.234928
      3          6           0        0.000000    0.000000   -1.234928
 ---------------------------------------------------------------------

 SCF Done:  E(UB3LYP) =  -130.338276544     A.U. after   10 cycles

 Unable to determine electronic state:  an orbital has unidentified symmetry.
 Alpha  occ. eigenvalues --  -14.74119 -10.66342 -10.66339  -1.35030  -1.14517
 Alpha  occ. eigenvalues --   -0.78153  -0.76929  -0.75089  -0.71733  -0.57192
 Alpha virt. eigenvalues --   -0.48192  -0.30224  -0.28161  -0.17351  -0.11230
 Alpha virt. eigenvalues --   -0.11033  -0.10655  -0.09159  -0.06086  -0.05908
 Alpha virt. eigenvalues --   -0.02793  -0.02079   0.02009   0.02340   0.02839

  Beta  occ. eigenvalues --  -14.74419 -10.64195 -10.64195  -1.33990  -1.10864
  Beta  occ. eigenvalues --   -0.76733  -0.75581  -0.63841
  Beta virt. eigenvalues --   -0.56935  -0.44702  -0.41478  -0.25858  -0.23940
  Beta virt. eigenvalues --   -0.16862  -0.10603  -0.09870  -0.09862  -0.08654
  Beta virt. eigenvalues --   -0.05681  -0.05314  -0.02219  -0.00359   0.01954

 Mulliken charges and spin densities:
               1          2
     1  N   -0.104418  -0.266261
     2  C    0.552209   1.133130
     3  C    0.552209   1.133130
 Sum of Mulliken charges =   1.00000   2.00000

 Dipole moment (field-independent basis, Debye):
    X=              0.0000    Y=             -0.0000    Z=              0.0000  Tot=              0.0000
 Quadrupole moment (field-independent basis, Debye-Ang):
   XX=            -14.3831   YY=            -12.8859   ZZ=             -7.8574
   XY=             -0.0000   XZ=             -0.0000   YZ=             -0.0000

  Exact polarizability:  14.212  -0.000  15.211   0.000  -0.000 225.210
 Approx polarizability:  18.619   0.000  21.394  -0.000  -0.000 311.068

                      1                      2                      3
                     PIU                    PIU                    SGU
 Frequencies --    241.2011               405.3510              1156.2773
 Red. masses --     13.1917                13.1917                13.1917
 Frc consts  --      0.4522                 1.2771                10.3914
 IR Inten    --      4.4994                10.9312              5916.1150

                      4
                     SGG
 Frequencies --   1318.4553
 Red. masses --     12.0000
 Frc consts  --     12.2903
 IR Inten    --      0.0000

 - Thermochemistry -
 -------------------
 Temperature   298.150 Kelvin.  Pressure   1.00000 Atm.
 Atom     1 has atomic number  7 and mass  14.00307

 Molecular mass:    38.00307 amu.
 Principal axes and moments of inertia in atomic units:
                           1         2         3
     Eigenvalues --     0.00000 130.70512 130.70512
           X           -0.00000   1.00000  -0.00000
           Y            0.00000   0.00000   1.00000
           Z            1.00000   0.00000  -0.00000
 This molecule is a prolate symmetric top.
 Rotational symmetry number  2.
 Rotational temperature (Kelvin)      0.66267
 Rotational constant (GHZ):          13.807732
 Zero-point vibrational energy      18669.4 (Joules/Mol)
                                    4.46210 (Kcal/Mol)
 Warning -- explicit consideration of   2 degrees of freedom as
           vibrations may cause significant error
 Vibrational temperatures:    347.03   583.21  1663.62  1896.96
          (Kelvin)

 Zero-point correction=                           0.007111 (Hartree/Particle)
 Thermal correction to Energy=                    0.010305
 Thermal correction to Enthalpy=                  0.011249
 Thermal correction to Gibbs Free Energy=        -0.014683
 Sum of electronic and zero-point Energies=           -130.331166
 Sum of electronic and thermal Energies=              -130.327972
 Sum of electronic and thermal Enthalpies=            -130.327028
 Sum of electronic and thermal Free Energies=         -130.352960

                     E (Thermal)             CV                S
                      KCal/Mol        Cal/Mol-Kelvin    Cal/Mol-Kelvin
 Total                    6.466              8.578             54.579
 Electronic               0.000              0.000              2.183
 Translational            0.889              2.981             36.834
 Rotational               0.592              1.987             12.750
 Vibrational              4.985              3.610              2.812
 Vibration     1          0.658              1.777              1.794
 Vibration     2          0.770              1.459              0.943

 Optimization completed.
    -- Stationary point found.
 Normal termination of Gaussian 09 at Tue Aug 16 17:38:47 2016.
