 Gaussian 09, Revision E.01,
 Gaussian 09:  EM64L-G09RevE.01 30-Nov-2015

 ---------------------------------------------
 #p b3lyp/6-311++G(3df,2p) freq symmetry=Loose
 ---------------------------------------------

 ---------
 b3lyp opt
 ---------
 Symbolic Z-matrix:
 Charge =  2 Multiplicity = 2

                         Standard orientation:
 ---------------------------------------------------------------------
 Center     Atomic      Atomic             Coordinates (Angstroms)
 Number     Number       Type             X           Y           Z
 ---------------------------------------------------------------------
      1          6           0        0.000000    0.000000   -0.039626
      2          6           0        0.000000    0.000000   -1.351048
      3          7           0        0.000000    0.000000    1.192007
 ---------------------------------------------------------------------

 SCF Done:  E(UB3LYP) =  -129.596337997     A.U. after   17 cycles

 The electronic state is 2-SG.
 Alpha  occ. eigenvalues --  -15.13196 -11.12532 -10.95526  -1.60591  -1.49234
 Alpha  occ. eigenvalues --   -1.13584  -1.05733  -1.05733  -1.04970
 Alpha virt. eigenvalues --   -0.86017  -0.86017  -0.58780  -0.58780  -0.45952
 Alpha virt. eigenvalues --   -0.34187  -0.30698  -0.30698  -0.29089  -0.24649
 Alpha virt. eigenvalues --   -0.24315  -0.24315  -0.22647  -0.22647  -0.18284

  Beta  occ. eigenvalues --  -15.14659 -11.09048 -10.95120  -1.63862  -1.44314
  Beta  occ. eigenvalues --   -1.07337  -1.06106  -1.06106
  Beta virt. eigenvalues --   -0.87068  -0.83421  -0.83421  -0.56760  -0.56760
  Beta virt. eigenvalues --   -0.45265  -0.31118  -0.30481  -0.30481  -0.27919
  Beta virt. eigenvalues --   -0.24192  -0.23617  -0.23616  -0.22425  -0.22425

 Mulliken charges and spin densities:
               1          2
     1  C    0.909915   0.200336
     2  C    1.151440   1.511450
     3  N   -0.061354  -0.711786
 Sum of Mulliken charges =   2.00000   1.00000

 Dipole moment (field-independent basis, Debye):
    X=              0.0000    Y=              0.0000    Z=             -4.0877  Tot=              4.0877
 Quadrupole moment (field-independent basis, Debye-Ang):
   XX=            -11.1505   YY=            -11.1505   ZZ=              2.2758
   XY=              0.0000   XZ=              0.0000   YZ=              0.0000

  Exact polarizability:  11.430   0.000  11.430   0.000   0.000  31.834
 Approx polarizability:  15.195  -0.000  15.195  -0.000  -0.000 110.625

                      1                      2                      3
                     PI                     PI                     SG
 Frequencies --    252.8908               252.8908              1158.0784
 Red. masses --     12.2736                12.2736                12.8257
 Frc consts  --      0.4625                 0.4625                10.1346
 IR Inten    --      0.1267                 0.1267                 1.2130

                      4
                     SG
 Frequencies --   2037.7658
 Red. masses --     12.3198
 Frc consts  --     30.1414
 IR Inten    --    617.3267

 - Thermochemistry -
 -------------------
 Temperature   298.150 Kelvin.  Pressure   1.00000 Atm.
 Atom     1 has atomic number  6 and mass  12.00000

 Molecular mass:    38.00307 amu.
 Principal axes and moments of inertia in atomic units:
                           1         2         3
     Eigenvalues --     0.00000 149.34018 149.34018
           X            0.00000  -0.00000   1.00000
           Y            0.00000   1.00000   0.00000
           Z            1.00000   0.00000   0.00000
 This molecule is a prolate symmetric top.
 Rotational symmetry number  1.
 Rotational temperature (Kelvin)      0.57998
 Rotational constant (GHZ):          12.084767
 Zero-point vibrational energy      22140.6 (Joules/Mol)
                                    5.29174 (Kcal/Mol)
 Warning -- explicit consideration of   2 degrees of freedom as
           vibrations may cause significant error
 Vibrational temperatures:    363.85   363.85  1666.21  2931.89
          (Kelvin)

 Zero-point correction=                           0.008433 (Hartree/Particle)
 Thermal correction to Energy=                    0.011779
 Thermal correction to Enthalpy=                  0.012723
 Thermal correction to Gibbs Free Energy=        -0.013920
 Sum of electronic and zero-point Energies=           -129.587905
 Sum of electronic and thermal Energies=              -129.584559
 Sum of electronic and thermal Enthalpies=            -129.583615
 Sum of electronic and thermal Free Energies=         -129.610258

                     E (Thermal)             CV                S
                      KCal/Mol        Cal/Mol-Kelvin    Cal/Mol-Kelvin
 Total                    7.391              8.728             56.075
 Electronic               0.000              0.000              1.377
 Translational            0.889              2.981             36.834
 Rotational               0.592              1.987             14.392
 Vibrational              5.910              3.760              3.471
 Vibration     1          0.664              1.758              1.710
 Vibration     2          0.664              1.758              1.710

 Optimization completed.
    -- Stationary point found.
 Normal termination of Gaussian 09 at Tue Aug 16 17:39:28 2016.
