 Gaussian 09, Revision E.01,
 Gaussian 09:  EM64L-G09RevE.01 30-Nov-2015

 ---------------------------------------------
 #p b3lyp/6-311++G(3df,2p) freq symmetry=Loose
 ---------------------------------------------

 ---------
 b3lyp opt
 ---------
 Symbolic Z-matrix:
 Charge =  2 Multiplicity = 4

                         Standard orientation:
 ---------------------------------------------------------------------
 Center     Atomic      Atomic             Coordinates (Angstroms)
 Number     Number       Type             X           Y           Z
 ---------------------------------------------------------------------
      1          6           0       -0.098555   -0.613573   -0.000000
      2          6           0       -0.219389   -1.925058   -0.000000
      3          6           0        0.317943    1.846036    0.000000
      4          7           0       -0.000000    0.593653    0.000000
 ---------------------------------------------------------------------

 SCF Done:  E(UB3LYP) =  -167.784325147     A.U. after   19 cycles

 The electronic state is 4-A".
 Alpha  occ. eigenvalues --  -14.99410 -10.95267 -10.92942 -10.91063  -1.60085
 Alpha  occ. eigenvalues --   -1.43216  -1.34732  -1.04102  -1.04097  -1.01685
 Alpha  occ. eigenvalues --   -0.90166  -0.90164  -0.89077
 Alpha virt. eigenvalues --   -0.66505  -0.66393  -0.50075  -0.49564  -0.40931
 Alpha virt. eigenvalues --   -0.34784  -0.28626  -0.28598  -0.27175  -0.22940
 Alpha virt. eigenvalues --   -0.21332  -0.21306  -0.20760  -0.20694  -0.20661

  Beta  occ. eigenvalues --  -14.98754 -10.92295 -10.90851 -10.90635  -1.58437
  Beta  occ. eigenvalues --   -1.38095  -1.30201  -1.00472  -1.00415  -0.87946
  Beta virt. eigenvalues --   -0.76142  -0.76081  -0.74233  -0.59898  -0.59830
  Beta virt. eigenvalues --   -0.44287  -0.43611  -0.39110  -0.33008  -0.28139
  Beta virt. eigenvalues --   -0.28125  -0.24947  -0.21390  -0.20421  -0.20354

 Mulliken charges and spin densities:
               1          2
     1  C    1.112591   0.285503
     2  C    0.599433   2.203607
     3  C    0.668253   0.218059
     4  N   -0.380277   0.292831
 Sum of Mulliken charges =   2.00000   3.00000

 Dipole moment (field-independent basis, Debye):
    X=             -0.3430    Y=             -3.0498    Z=              0.0000  Tot=              3.0690
 Quadrupole moment (field-independent basis, Debye-Ang):
   XX=            -15.9602   YY=              7.7455   ZZ=            -16.2593
   XY=              2.8436   XZ=              0.0000   YZ=              0.0000

  Exact polarizability:  17.524   4.618  61.852   0.000   0.000  17.293
 Approx polarizability:  25.555  12.243 126.955   0.000   0.000  24.074

                      1                      2                      3
                     A'                     A"                     A'
 Frequencies --    112.3451               447.7425               454.4361
 Red. masses --     12.9158                12.2337                12.2709
 Frc consts  --      0.0960                 1.4450                 1.4930
 IR Inten    --      6.2901                 0.0140                 2.8130

                      4                      5                      6
                     A'                     A'                     A'
 Frequencies --    973.0086              1488.7227              2105.8987
 Red. masses --     12.0771                12.6078                12.6462
 Frc consts  --      6.7367                16.4633                33.0435
 IR Inten    --     25.7667               616.4757               287.6613

 - Thermochemistry -
 -------------------
 Temperature   298.150 Kelvin.  Pressure   1.00000 Atm.
 Atom     1 has atomic number  6 and mass  12.00000

 Molecular mass:    50.00307 amu.
 Principal axes and moments of inertia in atomic units:
                           1         2         3
     Eigenvalues --     0.59352 344.81501 345.40853
           X            0.13439   0.99093   0.00000
           Y            0.99093  -0.13439   0.00000
           Z            0.00000   0.00000   1.00000
 This molecule is an asymmetric top.
 Rotational symmetry number  1.
 Rotational temperatures (Kelvin)    145.93350     0.25119     0.25076
 Rotational constants (GHZ):        3040.76438     5.23394     5.22495
 Zero-point vibrational energy      33388.7 (Joules/Mol)
                                    7.98009 (Kcal/Mol)
 Warning -- explicit consideration of   3 degrees of freedom as
           vibrations may cause significant error
 Vibrational temperatures:    161.64   644.20   653.83  1399.94  2141.94
          (Kelvin)           3029.91

 Zero-point correction=                           0.012717 (Hartree/Particle)
 Thermal correction to Energy=                    0.016833
 Thermal correction to Enthalpy=                  0.017777
 Thermal correction to Gibbs Free Energy=        -0.012743
 Sum of electronic and zero-point Energies=           -167.771608
 Sum of electronic and thermal Energies=              -167.767492
 Sum of electronic and thermal Enthalpies=            -167.766548
 Sum of electronic and thermal Free Energies=         -167.797068

                     E (Thermal)             CV                S
                      KCal/Mol        Cal/Mol-Kelvin    Cal/Mol-Kelvin
 Total                   10.563             11.111             64.235
 Electronic               0.000              0.000              2.755
 Translational            0.889              2.981             37.652
 Rotational               0.889              2.981             18.898
 Vibrational              8.785              5.150              4.931
 Vibration     1          0.607              1.939              3.228
 Vibration     2          0.807              1.366              0.803
 Vibration     3          0.813              1.351              0.782

 Optimization completed.
    -- Stationary point found.
 Normal termination of Gaussian 09 at Tue Aug 16 17:49:14 2016.
