 Gaussian 09, Revision E.01,
 Gaussian 09:  EM64L-G09RevE.01 30-Nov-2015

 ---------------------------------------------
 #p b3lyp/6-311++G(3df,2p) freq symmetry=Loose
 ---------------------------------------------

 ---------
 b3lyp opt
 ---------
 Symbolic Z-matrix:
 Charge =  2 Multiplicity = 2

                         Standard orientation:
 ---------------------------------------------------------------------
 Center     Atomic      Atomic             Coordinates (Angstroms)
 Number     Number       Type             X           Y           Z
 ---------------------------------------------------------------------
      1          6           0        0.942365   -0.719492    0.000000
      2          6           0        0.000000    0.278766    0.000000
      3          6           0       -0.584825    1.692019    0.000000
      4          7           0       -0.306462   -1.072537   -0.000000
 ---------------------------------------------------------------------

 SCF Done:  E(UB3LYP) =  -167.717139169     A.U. after   22 cycles

 The electronic state is 2-A'.
 Alpha  occ. eigenvalues --  -15.02816 -11.00957 -10.93348 -10.92116  -1.69016
 Alpha  occ. eigenvalues --   -1.35840  -1.17988  -1.13049  -1.04318  -0.97140
 Alpha  occ. eigenvalues --   -0.93168  -0.90333
 Alpha virt. eigenvalues --   -0.78764  -0.74411  -0.63783  -0.59277  -0.47227
 Alpha virt. eigenvalues --   -0.40094  -0.34778  -0.32524  -0.29629  -0.28431
 Alpha virt. eigenvalues --   -0.25301  -0.23537  -0.22349  -0.22082  -0.21293

  Beta  occ. eigenvalues --  -15.02838 -11.00716 -10.91878 -10.91467  -1.68697
  Beta  occ. eigenvalues --   -1.34679  -1.16629  -1.10702  -1.03767  -0.94776
  Beta  occ. eigenvalues --   -0.91692
  Beta virt. eigenvalues --   -0.78407  -0.77300  -0.69736  -0.62726  -0.57184
  Beta virt. eigenvalues --   -0.46229  -0.37644  -0.34383  -0.31889  -0.29577
  Beta virt. eigenvalues --   -0.27942  -0.24960  -0.23206  -0.22025  -0.21919

 Mulliken charges and spin densities:
               1          2
     1  C    0.413777   0.753595
     2  C    0.879875   0.159982
     3  C    0.789931   0.162051
     4  N   -0.083583  -0.075628
 Sum of Mulliken charges =   2.00000   1.00000

 Dipole moment (field-independent basis, Debye):
    X=              0.6440    Y=              2.6374    Z=              0.0000  Tot=              2.7149
 Quadrupole moment (field-independent basis, Debye-Ang):
   XX=            -12.5841   YY=             -4.3692   ZZ=            -15.3600
   XY=             -5.6976   XZ=             -0.0000   YZ=              0.0000

  Exact polarizability:  26.778  -9.776  46.577   0.000   0.000  17.215
 Approx polarizability:  48.888 -21.196  99.044   0.000   0.000  27.078

                      1                      2                      3
                     A'                     A"                     A'
 Frequencies --    252.3962               305.7115               669.0399
 Red. masses --     12.3097                12.0484                12.3074
 Frc consts  --      0.4620                 0.6634                 3.2458
 IR Inten    --      3.7149                 5.0261                83.5583

                      4                      5                      6
                     A'                     A'                     A'
 Frequencies --    943.0567              1231.5302              1623.3579
 Red. masses --     12.6233                12.5428                12.3630
 Frc consts  --      6.6145                11.2082                19.1957
 IR Inten    --     20.5589               283.4197               182.6997

 - Thermochemistry -
 -------------------
 Temperature   298.150 Kelvin.  Pressure   1.00000 Atm.
 Atom     1 has atomic number  6 and mass  12.00000

 Molecular mass:    50.00307 amu.
 Principal axes and moments of inertia in atomic units:
                           1         2         3
     Eigenvalues --    39.22482 223.90534 263.13016
           X           -0.31378   0.94949   0.00000
           Y            0.94949   0.31378   0.00000
           Z           -0.00000  -0.00000   1.00000
 This molecule is an asymmetric top.
 Rotational symmetry number  1.
 Rotational temperatures (Kelvin)      2.20814     0.38683     0.32917
 Rotational constants (GHZ):          46.01018     8.06029     6.85874
 Zero-point vibrational energy      30056.7 (Joules/Mol)
                                    7.18373 (Kcal/Mol)
 Warning -- explicit consideration of   2 degrees of freedom as
           vibrations may cause significant error
 Vibrational temperatures:    363.14   439.85   962.60  1356.85  1771.90
          (Kelvin)           2335.65

 Zero-point correction=                           0.011448 (Hartree/Particle)
 Thermal correction to Energy=                    0.015366
 Thermal correction to Enthalpy=                  0.016310
 Thermal correction to Gibbs Free Energy=        -0.014572
 Sum of electronic and zero-point Energies=           -167.705691
 Sum of electronic and thermal Energies=              -167.701773
 Sum of electronic and thermal Enthalpies=            -167.700829
 Sum of electronic and thermal Free Energies=         -167.731711

                     E (Thermal)             CV                S
                      KCal/Mol        Cal/Mol-Kelvin    Cal/Mol-Kelvin
 Total                    9.642             10.950             64.997
 Electronic               0.000              0.000              1.377
 Translational            0.889              2.981             37.652
 Rotational               0.889              2.981             22.362
 Vibrational              7.865              4.989              3.605
 Vibration     1          0.664              1.759              1.714
 Vibration     2          0.696              1.663              1.385

 Normal termination of Gaussian 09 at Tue Aug 16 17:50:22 2016.
