 Gaussian 09, Revision E.01,
 Gaussian 09:  EM64L-G09RevE.01 30-Nov-2015

 ---------------------------------------------
 #p b3lyp/6-311++G(3df,2p) freq symmetry=Loose
 ---------------------------------------------

 ---------
 b3lyp opt
 ---------
 Symbolic Z-matrix:
 Charge =  0 Multiplicity = 4

                         Standard orientation:
 ---------------------------------------------------------------------
 Center     Atomic      Atomic             Coordinates (Angstroms)
 Number     Number       Type             X           Y           Z
 ---------------------------------------------------------------------
      1          6           0       -0.089588   -0.000078    1.123374
      2          6           0       -0.089588    0.901275    0.000000
      3          6           0       -0.089588   -0.000078   -1.123374
      4          7           0        0.230370   -0.772387   -0.000000
 ---------------------------------------------------------------------

 SCF Done:  E(UB3LYP) =  -168.724783363     A.U. after   15 cycles

 The electronic state is 4-A'.
 Alpha  occ. eigenvalues --  -14.45282 -10.31464 -10.29610 -10.29603  -1.10118
 Alpha  occ. eigenvalues --   -0.75396  -0.71055  -0.51321  -0.49320  -0.45427
 Alpha  occ. eigenvalues --   -0.38382  -0.33405  -0.28494  -0.25393
 Alpha virt. eigenvalues --   -0.12438  -0.03444   0.02294   0.02783   0.04410
 Alpha virt. eigenvalues --    0.04794   0.07291   0.07427   0.08874   0.09332
 Alpha virt. eigenvalues --    0.10541   0.12683   0.13682   0.15556   0.15814

  Beta  occ. eigenvalues --  -14.44329 -10.30463 -10.27852 -10.27851  -1.07147
  Beta  occ. eigenvalues --   -0.71050  -0.67563  -0.46876  -0.44179  -0.40855
  Beta  occ. eigenvalues --   -0.30847
  Beta virt. eigenvalues --   -0.20115  -0.15142  -0.11733  -0.10947   0.01880
  Beta virt. eigenvalues --    0.03357   0.03952   0.05107   0.06384   0.07480
  Beta virt. eigenvalues --    0.08047   0.09464   0.10095   0.11602   0.12886

 Mulliken charges and spin densities:
               1          2
     1  C   -0.031629   1.107362
     2  C    0.351078   0.497318
     3  C   -0.031629   1.107362
     4  N   -0.287820   0.287958
 Sum of Mulliken charges =  -0.00000   3.00000

 Dipole moment (field-independent basis, Debye):
    X=             -0.3848    Y=              0.2682    Z=             -0.0000  Tot=              0.4691
 Quadrupole moment (field-independent basis, Debye-Ang):
   XX=            -22.6636   YY=            -22.4667   ZZ=            -25.2912
   XY=             -0.0395   XZ=              0.0000   YZ=             -0.0000

  Exact polarizability:  25.891  -2.083  38.799   0.000  -0.000  86.583
 Approx polarizability:  38.345  -9.877  92.371  -0.000   0.000 185.788

                      1                      2                      3
                     A'                     A'                     A"
 Frequencies --    418.2355               584.1382               722.4354
 Red. masses --     12.2196                12.2813                12.9079
 Frc consts  --      1.2594                 2.4690                 3.9692
 IR Inten    --     12.3208                13.9905               190.4686

                      4                      5                      6
                     A'                     A"                     A'
 Frequencies --    865.8928              1009.6482              1265.1095
 Red. masses --     12.9519                12.0722                12.2901
 Frc consts  --      5.7215                 7.2506                11.5894
 IR Inten    --     43.5728               121.4045                 1.2384

 - Thermochemistry -
 -------------------
 Temperature   298.150 Kelvin.  Pressure   1.00000 Atm.
 Atom     1 has atomic number  6 and mass  12.00000

 Molecular mass:    50.00307 amu.
 Principal axes and moments of inertia in atomic units:
                           1         2         3
     Eigenvalues --    68.32739 109.43350 175.20930
           X            0.00000  -0.19141   0.98151
           Y            0.00000   0.98151   0.19141
           Z            1.00000  -0.00000   0.00000
 This molecule is an asymmetric top.
 Rotational symmetry number  1.
 Rotational temperatures (Kelvin)      1.26763     0.79147     0.49434
 Rotational constants (GHZ):          26.41314    16.49167    10.30049
 Zero-point vibrational energy      29101.9 (Joules/Mol)
                                    6.95552 (Kcal/Mol)
 Warning -- explicit consideration of   2 degrees of freedom as
           vibrations may cause significant error
 Vibrational temperatures:    601.75   840.44  1039.42  1245.82  1452.66
          (Kelvin)           1820.21

 Zero-point correction=                           0.011084 (Hartree/Particle)
 Thermal correction to Energy=                    0.014592
 Thermal correction to Enthalpy=                  0.015536
 Thermal correction to Gibbs Free Energy=        -0.014941
 Sum of electronic and zero-point Energies=           -168.713699
 Sum of electronic and thermal Energies=              -168.710192
 Sum of electronic and thermal Enthalpies=            -168.709248
 Sum of electronic and thermal Free Energies=         -168.739724

                     E (Thermal)             CV                S
                      KCal/Mol        Cal/Mol-Kelvin    Cal/Mol-Kelvin
 Total                    9.156             10.326             64.143
 Electronic               0.000              0.000              2.755
 Translational            0.889              2.981             37.652
 Rotational               0.889              2.981             21.798
 Vibrational              7.379              4.364              1.938
 Vibration     1          0.781              1.431              0.898
 Vibration     2          0.941              1.066              0.478

 Optimization completed.
    -- Stationary point found.
 Normal termination of Gaussian 09 at Tue Aug 16 17:48:46 2016.
