 Gaussian 09, Revision E.01,
 Gaussian 09:  EM64L-G09RevE.01 30-Nov-2015

 ---------------------------------------------
 #p b3lyp/6-311++G(3df,2p) freq symmetry=Loose
 ---------------------------------------------

 ---------
 b3lyp opt
 ---------
 Symbolic Z-matrix:
 Charge =  1 Multiplicity = 3

                         Standard orientation:
 ---------------------------------------------------------------------
 Center     Atomic      Atomic             Coordinates (Angstroms)
 Number     Number       Type             X           Y           Z
 ---------------------------------------------------------------------
      1          6           0        0.000000   -0.784768   -0.045872
      2          6           0        0.000000   -0.000000   -1.183928
      3          6           0        0.000000    0.784768   -0.045872
      4          7           0        0.000000    0.000000    1.093434
 ---------------------------------------------------------------------

 SCF Done:  E(UB3LYP) =  -168.422571614     A.U. after   14 cycles

 The electronic state is 3-B1.
 Alpha  occ. eigenvalues --  -14.73943 -10.63640 -10.63620 -10.63106  -1.42362
 Alpha  occ. eigenvalues --   -1.15175  -0.91322  -0.80503  -0.79693  -0.78898
 Alpha  occ. eigenvalues --   -0.66914  -0.62511  -0.61296
 Alpha virt. eigenvalues --   -0.40259  -0.38661  -0.29683  -0.16183  -0.14247
 Alpha virt. eigenvalues --   -0.12626  -0.12564  -0.09283  -0.07762  -0.07117
 Alpha virt. eigenvalues --   -0.05600  -0.05378  -0.03409  -0.02732  -0.00524

  Beta  occ. eigenvalues --  -14.72379 -10.63619 -10.63601 -10.60347  -1.40353
  Beta  occ. eigenvalues --   -1.11108  -0.90446  -0.78041  -0.76047  -0.72587
  Beta  occ. eigenvalues --   -0.61934
  Beta virt. eigenvalues --   -0.48877  -0.45580  -0.40636  -0.36706  -0.22386
  Beta virt. eigenvalues --   -0.15838  -0.13778  -0.12251  -0.11421  -0.08984
  Beta virt. eigenvalues --   -0.07639  -0.06529  -0.05449  -0.04847  -0.03105

 Mulliken charges and spin densities:
               1          2
     1  C    0.292164  -0.073599
     2  C    0.587151   1.439749
     3  C    0.292164  -0.073599
     4  N   -0.171479   0.707449
 Sum of Mulliken charges =   1.00000   2.00000

 Dipole moment (field-independent basis, Debye):
    X=              0.0000    Y=             -0.0000    Z=             -1.9144  Tot=              1.9144
 Quadrupole moment (field-independent basis, Debye-Ang):
   XX=            -18.2964   YY=            -17.4471   ZZ=            -16.4355
   XY=             -0.0000   XZ=              0.0000   YZ=              0.0000

  Exact polarizability:  17.802   0.000  31.191  -0.000   0.000  33.295
 Approx polarizability:  26.787   0.000  79.797   0.000  -0.000  68.521

                      1                      2                      3
                     B2                     B1                     A1
 Frequencies --    531.9041               568.2905               733.4439
 Red. masses --     12.6782                12.3934                12.3843
 Frc consts  --      2.1134                 2.3582                 3.9252
 IR Inten    --     45.8918                 6.2138                 2.8484

                      4                      5                      6
                     B2                     A1                     A1
 Frequencies --    870.7574              1242.5088              1346.6210
 Red. masses --     12.0001                12.6642                12.2387
 Frc consts  --      5.3608                11.5193                13.0761
 IR Inten    --      4.9285                29.6473                 7.1302

 - Thermochemistry -
 -------------------
 Temperature   298.150 Kelvin.  Pressure   1.00000 Atm.
 Atom     1 has atomic number  6 and mass  12.00000

 Molecular mass:    50.00307 amu.
 Principal axes and moments of inertia in atomic units:
                           1         2         3
     Eigenvalues --    52.78275 120.03336 172.81612
           X            0.00000  -0.00000   1.00000
           Y            0.00000   1.00000   0.00000
           Z            1.00000   0.00000   0.00000
 This molecule is an asymmetric top.
 Rotational symmetry number  2.
 Rotational temperatures (Kelvin)      1.64095     0.72158     0.50119
 Rotational constants (GHZ):          34.19187    15.03533    10.44313
 Zero-point vibrational energy      31662.3 (Joules/Mol)
                                    7.56747 (Kcal/Mol)
 Warning -- explicit consideration of   2 degrees of freedom as
           vibrations may cause significant error
 Vibrational temperatures:    765.29   817.64  1055.26  1252.82  1787.69
          (Kelvin)           1937.48

 Zero-point correction=                           0.012060 (Hartree/Particle)
 Thermal correction to Energy=                    0.015456
 Thermal correction to Enthalpy=                  0.016400
 Thermal correction to Gibbs Free Energy=        -0.012893
 Sum of electronic and zero-point Energies=           -168.410512
 Sum of electronic and thermal Energies=              -168.407116
 Sum of electronic and thermal Enthalpies=            -168.406172
 Sum of electronic and thermal Free Energies=         -168.435464

                     E (Thermal)             CV                S
                      KCal/Mol        Cal/Mol-Kelvin    Cal/Mol-Kelvin
 Total                    9.698              9.854             61.651
 Electronic               0.000              0.000              2.183
 Translational            0.889              2.981             37.652
 Rotational               0.889              2.981             20.243
 Vibrational              7.921              3.892              1.573
 Vibration     1          0.887              1.179              0.583
 Vibration     2          0.924              1.100              0.508

 Normal termination of Gaussian 09 at Tue Aug 16 17:46:40 2016.
