 Gaussian 09, Revision E.01,
 Gaussian 09:  EM64L-G09RevE.01 30-Nov-2015

 ---------------------------------------------
 #p b3lyp/6-311++G(3df,2p) freq symmetry=Loose
 ---------------------------------------------

 ---------
 b3lyp opt
 ---------
 Symbolic Z-matrix:
 Charge =  1 Multiplicity = 3

                         Standard orientation:
 ---------------------------------------------------------------------
 Center     Atomic      Atomic             Coordinates (Angstroms)
 Number     Number       Type             X           Y           Z
 ---------------------------------------------------------------------
      1          6           0        0.000000    0.605359    0.000000
      2          6           0        0.215711   -0.690462    0.000000
      3          6           0       -0.018900   -1.998772    0.000000
      4          7           0       -0.168695    1.786179    0.000000
 ---------------------------------------------------------------------

 SCF Done:  E(UB3LYP) =  -168.483606642     A.U. after   19 cycles

 The electronic state is 3-A".
 Alpha  occ. eigenvalues --  -14.70684 -10.61912 -10.59577 -10.56449  -1.26942
 Alpha  occ. eigenvalues --   -1.15725  -1.01176  -0.73207  -0.72996  -0.71146
 Alpha  occ. eigenvalues --   -0.65767  -0.63953  -0.63183
 Alpha virt. eigenvalues --   -0.39754  -0.39219  -0.22248  -0.19240  -0.17744
 Alpha virt. eigenvalues --   -0.13036  -0.11550  -0.11160  -0.07292  -0.06445
 Alpha virt. eigenvalues --   -0.05894  -0.05805  -0.03642  -0.03010  -0.02476

  Beta  occ. eigenvalues --  -14.69000 -10.60671 -10.58423 -10.56866  -1.23488
  Beta  occ. eigenvalues --   -1.11243  -0.99226  -0.69417  -0.69006  -0.68563
  Beta  occ. eigenvalues --   -0.61533
  Beta virt. eigenvalues --   -0.51738  -0.51214  -0.34796  -0.34329  -0.19959
  Beta virt. eigenvalues --   -0.17103  -0.15701  -0.11908  -0.11263  -0.11123
  Beta virt. eigenvalues --   -0.07026  -0.06084  -0.05263  -0.04614  -0.03275

 Mulliken charges and spin densities:
               1          2
     1  C    0.261661  -0.306630
     2  C    1.169109   0.781256
     3  C    0.167612   0.702930
     4  N   -0.598382   0.822444
 Sum of Mulliken charges =   1.00000   2.00000

 Dipole moment (field-independent basis, Debye):
    X=              0.6498    Y=             -1.9384    Z=              0.0000  Tot=              2.0444
 Quadrupole moment (field-independent basis, Debye-Ang):
   XX=            -18.7232   YY=            -12.7931   ZZ=            -18.4073
   XY=             -1.2620   XZ=              0.0000   YZ=              0.0000

  Exact polarizability:  21.211  -3.274  84.178   0.000   0.000  22.010
 Approx polarizability:  31.201  -5.447 188.100  -0.000  -0.000  29.258

                      1                      2                      3
                     A'                     A"                     A'
 Frequencies --    189.3370               352.7757               438.9323
 Red. masses --     12.3776                12.3079                12.1606
 Frc consts  --      0.2614                 0.9025                 1.3804
 IR Inten    --     12.6521                 0.1640                26.4196

                      4                      5                      6
                     A'                     A'                     A'
 Frequencies --    881.0892              1528.4250              1915.8589
 Red. masses --     12.4839                12.2928                12.4677
 Frc consts  --      5.7100                16.9195                26.9626
 IR Inten    --      2.2035                39.3913               793.3158

 - Thermochemistry -
 -------------------
 Temperature   298.150 Kelvin.  Pressure   1.00000 Atm.
 Atom     1 has atomic number  6 and mass  12.00000

 Molecular mass:    50.00307 amu.
 Principal axes and moments of inertia in atomic units:
                           1         2         3
     Eigenvalues --     2.35346 367.95346 370.30692
           X           -0.05432   0.99852   0.00000
           Y            0.99852   0.05432   0.00000
           Z           -0.00000   0.00000   1.00000
 This molecule is an asymmetric top.
 Rotational symmetry number  1.
 Rotational temperatures (Kelvin)     36.80278     0.23539     0.23390
 Rotational constants (GHZ):         766.84643     4.90481     4.87364
 Zero-point vibrational energy      31739.4 (Joules/Mol)
                                    7.58591 (Kcal/Mol)
 Warning -- explicit consideration of   3 degrees of freedom as
           vibrations may cause significant error
 Vibrational temperatures:    272.41   507.56   631.52  1267.69  2199.06
          (Kelvin)           2756.49

 Zero-point correction=                           0.012089 (Hartree/Particle)
 Thermal correction to Energy=                    0.016194
 Thermal correction to Enthalpy=                  0.017138
 Thermal correction to Gibbs Free Energy=        -0.013563
 Sum of electronic and zero-point Energies=           -168.471518
 Sum of electronic and thermal Energies=              -168.467413
 Sum of electronic and thermal Enthalpies=            -168.466469
 Sum of electronic and thermal Free Energies=         -168.497170

                     E (Thermal)             CV                S
                      KCal/Mol        Cal/Mol-Kelvin    Cal/Mol-Kelvin
 Total                   10.162             11.382             64.616
 Electronic               0.000              0.000              2.183
 Translational            0.889              2.981             37.652
 Rotational               0.889              2.981             20.400
 Vibrational              8.384              5.420              4.381
 Vibration     1          0.633              1.855              2.234
 Vibration     2          0.729              1.570              1.154
 Vibration     3          0.799              1.385              0.830

 Optimization completed.
    -- Stationary point found.
 Normal termination of Gaussian 09 at Tue Aug 16 17:49:43 2016.
