 Gaussian 09, Revision E.01,
 Gaussian 09:  EM64L-G09RevE.01 30-Nov-2015

 ---------------------------------------------
 #p b3lyp/6-311++G(3df,2p) freq symmetry=Loose
 ---------------------------------------------

 ---------
 b3lyp opt
 ---------
 Symbolic Z-matrix:
 Charge =  2 Multiplicity = 2

                         Standard orientation:
 ---------------------------------------------------------------------
 Center     Atomic      Atomic             Coordinates (Angstroms)
 Number     Number       Type             X           Y           Z
 ---------------------------------------------------------------------
      1          6           0        0.000000   -0.000000    0.568079
      2          6           0        0.000000   -0.000000    2.104699
      3          6           0       -0.000000    0.000000   -1.940387
      4          7           0       -0.000000    0.000000   -0.627764
 ---------------------------------------------------------------------

 SCF Done:  E(UB3LYP) =  -167.769007385     A.U. after   14 cycles

 Unable to determine electronic state:  an orbital has unidentified symmetry.
 Alpha  occ. eigenvalues --  -14.99859 -10.94348 -10.92897 -10.92819  -1.60180
 Alpha  occ. eigenvalues --   -1.39353  -1.30076  -1.03264  -1.02165  -0.91995
 Alpha  occ. eigenvalues --   -0.89705  -0.85176
 Alpha virt. eigenvalues --   -0.77226  -0.68388  -0.65383  -0.51540  -0.49890
 Alpha virt. eigenvalues --   -0.47780  -0.36504  -0.28500  -0.28458  -0.27763
 Alpha virt. eigenvalues --   -0.25766  -0.21412  -0.21248  -0.21113  -0.20459

  Beta  occ. eigenvalues --  -14.99800 -10.93513 -10.92585 -10.92357  -1.59702
  Beta  occ. eigenvalues --   -1.38042  -1.27431  -1.02003  -1.00982  -0.90437
  Beta  occ. eigenvalues --   -0.88821
  Beta virt. eigenvalues --   -0.76413  -0.74194  -0.64704  -0.62597  -0.49399
  Beta virt. eigenvalues --   -0.47767  -0.46241  -0.36238  -0.28475  -0.28038
  Beta virt. eigenvalues --   -0.27316  -0.25234  -0.21372  -0.21070  -0.20677

 Mulliken charges and spin densities:
               1          2
     1  C    1.016552   0.322554
     2  C    0.580490   0.467528
     3  C    0.683619   0.163463
     4  N   -0.280661   0.046455
 Sum of Mulliken charges =   2.00000   1.00000

 Dipole moment (field-independent basis, Debye):
    X=              0.0000    Y=             -0.0000    Z=              1.4399  Tot=              1.4399
 Quadrupole moment (field-independent basis, Debye-Ang):
   XX=            -17.0084   YY=            -15.4958   ZZ=              4.9617
   XY=             -0.0000   XZ=              0.0000   YZ=             -0.0000

  Exact polarizability:  19.718  -0.000  19.235  -0.000  -0.000  68.882
 Approx polarizability:  28.607  -0.000  30.506   0.000  -0.000 141.567

                      1                      2                      3
                     ?A                     ?A                     ?A
 Frequencies --    124.7841               126.1678               213.1324
 Red. masses --     12.6718                12.3102                12.9096
 Frc consts  --      0.1163                 0.1155                 0.3455
 IR Inten    --      0.1267                 0.0925                 5.8963

                      4                      5                      6
                     ?A                     SG                     SG
 Frequencies --    241.2686               652.8185              1172.6690
 Red. masses --     12.5345                12.1683                12.2100
 Frc consts  --      0.4299                 3.0554                 9.8927
 IR Inten    --     10.3681               100.6991               670.3053

                      7
                     SG
 Frequencies --   2050.4433
 Red. masses --     12.9304
 Frc consts  --     32.0302
 IR Inten    --    407.6285

 - Thermochemistry -
 -------------------
 Temperature   298.150 Kelvin.  Pressure   1.00000 Atm.
 Atom     1 has atomic number  6 and mass  12.00000

 Molecular mass:    50.00307 amu.
 Principal axes and moments of inertia in atomic units:
                           1         2         3
     Eigenvalues --     0.00000 384.70838 384.70838
           X            0.00000   0.92388  -0.38268
           Y           -0.00000   0.38268   0.92388
           Z            1.00000  -0.00000   0.00000
 This molecule is a prolate symmetric top.
 Rotational symmetry number  1.
 Rotational temperature (Kelvin)      0.22514
 Rotational constant (GHZ):           4.691193
 Zero-point vibrational energy      27402.2 (Joules/Mol)
                                    6.54927 (Kcal/Mol)
 Warning -- explicit consideration of   4 degrees of freedom as
           vibrations may cause significant error
 Vibrational temperatures:    179.54   181.53   306.65   347.13   939.26
          (Kelvin)           1687.21  2950.13

 Zero-point correction=                           0.010437 (Hartree/Particle)
 Thermal correction to Energy=                    0.015363
 Thermal correction to Enthalpy=                  0.016307
 Thermal correction to Gibbs Free Energy=        -0.014840
 Sum of electronic and zero-point Energies=           -167.758570
 Sum of electronic and thermal Energies=              -167.753644
 Sum of electronic and thermal Enthalpies=            -167.752700
 Sum of electronic and thermal Free Energies=         -167.783848

                     E (Thermal)             CV                S
                      KCal/Mol        Cal/Mol-Kelvin    Cal/Mol-Kelvin
 Total                    9.640             13.577             65.555
 Electronic               0.000              0.000              1.377
 Translational            0.889              2.981             37.652
 Rotational               0.592              1.987             16.272
 Vibrational              8.159              8.609             10.253
 Vibration     1          0.610              1.928              3.025
 Vibration     2          0.611              1.927              3.004
 Vibration     3          0.644              1.821              2.017
 Vibration     4          0.658              1.777              1.794

 Optimization completed.
    -- Stationary point found.
 Normal termination of Gaussian 09 at Tue Aug 16 17:47:35 2016.
