 Gaussian 09, Revision E.01,
 Gaussian 09:  EM64L-G09RevE.01 30-Nov-2015

 ---------------------------------------------
 #p b3lyp/6-311++G(3df,2p) freq symmetry=Loose
 ---------------------------------------------

 ---------
 b3lyp opt
 ---------
 Symbolic Z-matrix:
 Charge =  1 Multiplicity = 3

                         Standard orientation:
 ---------------------------------------------------------------------
 Center     Atomic      Atomic             Coordinates (Angstroms)
 Number     Number       Type             X           Y           Z
 ---------------------------------------------------------------------
      1          6           0        0.187176   -0.054406    1.004584
      2          6           0        0.187176   -0.054406   -1.004584
      3          6           0        0.187176    0.974383   -0.000000
      4          7           0       -0.481308   -0.741917    0.000000
 ---------------------------------------------------------------------

 SCF Done:  E(UB3LYP) =  -168.386069865     A.U. after   17 cycles

 The electronic state is 3-A".
 Alpha  occ. eigenvalues --  -14.75606 -10.63432 -10.62508 -10.62505  -1.40509
 Alpha  occ. eigenvalues --   -1.03891  -1.00729  -0.80805  -0.79030  -0.73586
 Alpha  occ. eigenvalues --   -0.64832  -0.62267  -0.60743
 Alpha virt. eigenvalues --   -0.42715  -0.40914  -0.32830  -0.16920  -0.14249
 Alpha virt. eigenvalues --   -0.13096  -0.12318  -0.09121  -0.07877  -0.07718
 Alpha virt. eigenvalues --   -0.06864  -0.05943  -0.05660  -0.05098  -0.04992

  Beta  occ. eigenvalues --  -14.74954 -10.61834 -10.61519 -10.61518  -1.38781
  Beta  occ. eigenvalues --   -1.01006  -0.98555  -0.76950  -0.75571  -0.69675
  Beta  occ. eigenvalues --   -0.59847
  Beta virt. eigenvalues --   -0.47705  -0.47065  -0.40728  -0.39800  -0.28327
  Beta virt. eigenvalues --   -0.15553  -0.13136  -0.12336  -0.11974  -0.07952
  Beta virt. eigenvalues --   -0.07487  -0.07020  -0.05771  -0.05313  -0.04748

 Mulliken charges and spin densities:
               1          2
     1  C    0.264980   0.505126
     2  C    0.264980   0.505126
     3  C    0.620507   0.778683
     4  N   -0.150467   0.211065
 Sum of Mulliken charges =   1.00000   2.00000

 Dipole moment (field-independent basis, Debye):
    X=              0.5306    Y=              1.1036    Z=             -0.0000  Tot=              1.2245
 Quadrupole moment (field-independent basis, Debye-Ang):
   XX=            -18.5569   YY=            -16.9000   ZZ=            -17.3416
   XY=              0.2029   XZ=              0.0000   YZ=             -0.0000

  Exact polarizability:  21.376   5.048  31.949   0.000   0.000  54.031
 Approx polarizability:  38.530  19.855  77.752  -0.000  -0.000 127.091

                      1                      2                      3
                     A"                     A'                     A'
 Frequencies --    298.6795               544.5476               674.0821
 Red. masses --     12.8438                12.3820                12.3667
 Frc consts  --      0.6751                 2.1633                 3.3108
 IR Inten    --     71.4367                 9.3270                23.9581

                      4                      5                      6
                     A"                     A'                     A'
 Frequencies --    746.1086               827.9330              1310.9352
 Red. masses --     12.0282                12.4337                12.5580
 Frc consts  --      3.9451                 5.0216                12.7155
 IR Inten    --    213.9214                28.1042                 0.8263

 - Thermochemistry -
 -------------------
 Temperature   298.150 Kelvin.  Pressure   1.00000 Atm.
 Atom     1 has atomic number  6 and mass  12.00000

 Molecular mass:    50.00307 amu.
 Principal axes and moments of inertia in atomic units:
                           1         2         3
     Eigenvalues --    84.55262  92.70248 164.83635
           X            0.00000   0.37007   0.92900
           Y            0.00000   0.92900  -0.37007
           Z            1.00000   0.00000   0.00000
 This molecule is an asymmetric top.
 Rotational symmetry number  1.
 Rotational temperatures (Kelvin)      1.02438     0.93432     0.52545
 Rotational constants (GHZ):          21.34459    19.46810    10.94868
 Zero-point vibrational energy      26331.5 (Joules/Mol)
                                    6.29338 (Kcal/Mol)
 Warning -- explicit consideration of   2 degrees of freedom as
           vibrations may cause significant error
 Vibrational temperatures:    429.73   783.48   969.85  1073.48  1191.21
          (Kelvin)           1886.14

 Zero-point correction=                           0.010029 (Hartree/Particle)
 Thermal correction to Energy=                    0.013777
 Thermal correction to Enthalpy=                  0.014721
 Thermal correction to Gibbs Free Energy=        -0.015880
 Sum of electronic and zero-point Energies=           -168.376041
 Sum of electronic and thermal Energies=              -168.372293
 Sum of electronic and thermal Enthalpies=            -168.371349
 Sum of electronic and thermal Free Energies=         -168.401950

                     E (Thermal)             CV                S
                      KCal/Mol        Cal/Mol-Kelvin    Cal/Mol-Kelvin
 Total                    8.645             11.161             64.406
 Electronic               0.000              0.000              2.183
 Translational            0.889              2.981             37.652
 Rotational               0.889              2.981             21.785
 Vibrational              6.868              5.200              2.786
 Vibration     1          0.692              1.676              1.424
 Vibration     2          0.900              1.152              0.556

 Optimization completed.
    -- Stationary point found.
 Normal termination of Gaussian 09 at Tue Aug 16 17:49:05 2016.
