 Gaussian 09, Revision E.01,
 Gaussian 09:  EM64L-G09RevE.01 30-Nov-2015

 ---------------------------------------------
 #p b3lyp/6-311++G(3df,2p) freq symmetry=Loose
 ---------------------------------------------

 ---------
 b3lyp opt
 ---------
 Symbolic Z-matrix:
 Charge =  2 Multiplicity = 4

                         Standard orientation:
 ---------------------------------------------------------------------
 Center     Atomic      Atomic             Coordinates (Angstroms)
 Number     Number       Type             X           Y           Z
 ---------------------------------------------------------------------
      1          6           0        1.119028   -0.223066    0.000000
      2          6           0       -0.036896   -0.896579    0.000000
      3          6           0       -1.082133    0.174891   -0.000000
      4          7           0       -0.000000    0.809789   -0.000000
 ---------------------------------------------------------------------

 SCF Done:  E(UB3LYP) =  -167.675221565     A.U. after   16 cycles

 The electronic state is 4-A".
 Alpha  occ. eigenvalues --  -15.07595 -10.98307 -10.97169 -10.97026  -1.72607
 Alpha  occ. eigenvalues --   -1.41478  -1.27505  -1.12346  -1.10023  -1.05960
 Alpha  occ. eigenvalues --   -0.98634  -0.94895  -0.90465
 Alpha virt. eigenvalues --   -0.73460  -0.71725  -0.58635  -0.53702  -0.36583
 Alpha virt. eigenvalues --   -0.35574  -0.32048  -0.30381  -0.27460  -0.27132
 Alpha virt. eigenvalues --   -0.24430  -0.22828  -0.22765  -0.21854  -0.21586

  Beta  occ. eigenvalues --  -15.07070 -10.95816 -10.95024 -10.94726  -1.70627
  Beta  occ. eigenvalues --   -1.36667  -1.24624  -1.10043  -1.04923  -0.98056
  Beta virt. eigenvalues --   -0.80166  -0.76597  -0.73944  -0.67494  -0.67189
  Beta virt. eigenvalues --   -0.49902  -0.49562  -0.35266  -0.31819  -0.30685
  Beta virt. eigenvalues --   -0.29841  -0.26514  -0.26422  -0.23376  -0.22207

 Mulliken charges and spin densities:
               1          2
     1  C    0.595220   1.550990
     2  C    0.830409   0.347646
     3  C    0.614042   1.063993
     4  N   -0.039671   0.037372
 Sum of Mulliken charges =   2.00000   3.00000

 Dipole moment (field-independent basis, Debye):
    X=              0.1681    Y=             -1.2468    Z=              0.0000  Tot=              1.2580
 Quadrupole moment (field-independent basis, Debye-Ang):
   XX=             -7.0168   YY=            -12.1447   ZZ=            -16.1736
   XY=             -1.6996   XZ=              0.0000   YZ=             -0.0000

  Exact polarizability:  27.022  -2.093  26.465  -0.000  -0.000  14.438
 Approx polarizability:  51.710  -1.182  69.880   0.000  -0.000  21.066

                      1                      2                      3
                     A"                     A'                     A'
 Frequencies --    310.2299               384.9812               537.9844
 Red. masses --     12.4196                12.0524                13.2515
 Frc consts  --      0.7042                 1.0524                 2.2597
 IR Inten    --      3.4924                 8.6490                43.2744

                      4                      5                      6
                     A'                     A'                     A'
 Frequencies --    974.3281              1499.0498              1631.3645
 Red. masses --     12.2749                12.0857                12.6427
 Frc consts  --      6.8656                16.0013                19.8240
 IR Inten    --     28.4335                71.6580                69.5856

 - Thermochemistry -
 -------------------
 Temperature   298.150 Kelvin.  Pressure   1.00000 Atm.
 Atom     1 has atomic number  6 and mass  12.00000

 Molecular mass:    50.00307 amu.
 Principal axes and moments of inertia in atomic units:
                           1         2         3
     Eigenvalues --    63.24447 111.33841 174.58288
           X            0.91943   0.39325   0.00000
           Y           -0.39325   0.91943   0.00000
           Z            0.00000  -0.00000   1.00000
 This molecule is an asymmetric top.
 Rotational symmetry number  1.
 Rotational temperatures (Kelvin)      1.36951     0.77793     0.49612
 Rotational constants (GHZ):          28.53595    16.20951    10.33745
 Zero-point vibrational energy      31928.0 (Joules/Mol)
                                    7.63097 (Kcal/Mol)
 Warning -- explicit consideration of   3 degrees of freedom as
           vibrations may cause significant error
 Vibrational temperatures:    446.35   553.90   774.04  1401.84  2156.80
          (Kelvin)           2347.17

 Zero-point correction=                           0.012161 (Hartree/Particle)
 Thermal correction to Energy=                    0.015971
 Thermal correction to Enthalpy=                  0.016915
 Thermal correction to Gibbs Free Energy=        -0.014070
 Sum of electronic and zero-point Energies=           -167.663061
 Sum of electronic and thermal Energies=              -167.659251
 Sum of electronic and thermal Enthalpies=            -167.658306
 Sum of electronic and thermal Free Energies=         -167.689292

                     E (Thermal)             CV                S
                      KCal/Mol        Cal/Mol-Kelvin    Cal/Mol-Kelvin
 Total                   10.022             10.812             65.215
 Electronic               0.000              0.000              2.755
 Translational            0.889              2.981             37.652
 Rotational               0.889              2.981             21.735
 Vibrational              8.244              4.851              3.073
 Vibration     1          0.699              1.654              1.361
 Vibration     2          0.754              1.502              1.020
 Vibration     3          0.893              1.166              0.570

 Optimization completed.
    -- Stationary point found.
 Normal termination of Gaussian 09 at Tue Aug 16 17:49:43 2016.
