 Gaussian 09, Revision E.01,
 Gaussian 09:  EM64L-G09RevE.01 30-Nov-2015

 ---------------------------------------------
 #p b3lyp/6-311++G(3df,2p) freq symmetry=Loose
 ---------------------------------------------

 ---------
 b3lyp opt
 ---------
 Symbolic Z-matrix:
 Charge =  2 Multiplicity = 4

                         Standard orientation:
 ---------------------------------------------------------------------
 Center     Atomic      Atomic             Coordinates (Angstroms)
 Number     Number       Type             X           Y           Z
 ---------------------------------------------------------------------
      1          6           0       -0.182623    0.066941    0.949410
      2          6           0       -0.182623   -1.020789    0.000000
      3          6           0       -0.182623    0.066941   -0.949410
      4          7           0        0.469602    0.760206   -0.000000
 ---------------------------------------------------------------------

 SCF Done:  E(UB3LYP) =  -167.686443693     A.U. after   15 cycles

 The electronic state is 4-A".
 Alpha  occ. eigenvalues --  -15.07229 -10.98507 -10.98506 -10.97400  -1.73704
 Alpha  occ. eigenvalues --   -1.36732  -1.32438  -1.11879  -1.11170  -1.06003
 Alpha  occ. eigenvalues --   -0.97833  -0.93526  -0.92969
 Alpha virt. eigenvalues --   -0.73998  -0.72154  -0.63253  -0.43122  -0.40598
 Alpha virt. eigenvalues --   -0.34873  -0.34265  -0.30870  -0.26524  -0.26507
 Alpha virt. eigenvalues --   -0.26186  -0.25101  -0.23148  -0.22686  -0.22030

  Beta  occ. eigenvalues --  -15.06425 -10.96213 -10.96212 -10.95267  -1.71894
  Beta  occ. eigenvalues --   -1.33156  -1.28025  -1.08197  -1.06729  -0.98602
  Beta virt. eigenvalues --   -0.79974  -0.76910  -0.73595  -0.70715  -0.65461
  Beta virt. eigenvalues --   -0.56568  -0.39030  -0.36756  -0.32406  -0.30717
  Beta virt. eigenvalues --   -0.30523  -0.25809  -0.25153  -0.24947  -0.24742

 Mulliken charges and spin densities:
               1          2
     1  C    0.669918   1.020477
     2  C    0.721325   0.836803
     3  C    0.669918   1.020477
     4  N   -0.061161   0.122243
 Sum of Mulliken charges =   2.00000   3.00000

 Dipole moment (field-independent basis, Debye):
    X=             -0.9088    Y=             -1.3008    Z=             -0.0000  Tot=              1.5868
 Quadrupole moment (field-independent basis, Debye-Ang):
   XX=            -15.4675   YY=            -11.9261   ZZ=             -9.2867
   XY=              0.8763   XZ=             -0.0000   YZ=              0.0000

  Exact polarizability:  16.958   4.097  26.401  -0.000  -0.000  25.134
 Approx polarizability:  30.328  16.047  62.798   0.000  -0.000  50.353

                      1                      2                      3
                     A'                     A'                     A"
 Frequencies --    585.7746               626.4475               634.1707
 Red. masses --     12.5437                12.4154                12.4517
 Frc consts  --      2.5359                 2.8707                 2.9505
 IR Inten    --     11.4593                25.5738                 8.1952

                      4                      5                      6
                     A'                     A"                     A'
 Frequencies --   1108.0317              1222.5823              1368.4964
 Red. masses --     12.3724                12.3680                12.4363
 Frc consts  --      8.9497                10.8919                13.7224
 IR Inten    --      3.0330                75.9594                 8.1875

 - Thermochemistry -
 -------------------
 Temperature   298.150 Kelvin.  Pressure   1.00000 Atm.
 Atom     1 has atomic number  6 and mass  12.00000

 Molecular mass:    50.00307 amu.
 Principal axes and moments of inertia in atomic units:
                           1         2         3
     Eigenvalues --    83.48905  89.25130 160.26873
           X            0.34388   0.00000   0.93901
           Y            0.93901   0.00000  -0.34388
           Z           -0.00000   1.00000   0.00000
 This molecule is an asymmetric top.
 Rotational symmetry number  1.
 Rotational temperatures (Kelvin)      1.03743     0.97045     0.54043
 Rotational constants (GHZ):          21.61650    20.22090    11.26072
 Zero-point vibrational energy      33169.5 (Joules/Mol)
                                    7.92769 (Kcal/Mol)
 Warning -- explicit consideration of   1 degrees of freedom as
           vibrations may cause significant error
 Vibrational temperatures:    842.80   901.32   912.43  1594.21  1759.02
          (Kelvin)           1968.96

 Zero-point correction=                           0.012634 (Hartree/Particle)
 Thermal correction to Energy=                    0.015970
 Thermal correction to Enthalpy=                  0.016914
 Thermal correction to Gibbs Free Energy=        -0.013260
 Sum of electronic and zero-point Energies=           -167.673810
 Sum of electronic and thermal Energies=              -167.670474
 Sum of electronic and thermal Enthalpies=            -167.669529
 Sum of electronic and thermal Free Energies=         -167.699704

                     E (Thermal)             CV                S
                      KCal/Mol        Cal/Mol-Kelvin    Cal/Mol-Kelvin
 Total                   10.021              9.542             63.507
 Electronic               0.000              0.000              2.755
 Translational            0.889              2.981             37.652
 Rotational               0.889              2.981             21.706
 Vibrational              8.244              3.580              1.394
 Vibration     1          0.943              1.062              0.475

 Optimization completed.
    -- Stationary point found.
 Normal termination of Gaussian 09 at Tue Aug 16 17:48:03 2016.
