 Gaussian 09, Revision E.01,
 Gaussian 09:  EM64L-G09RevE.01 30-Nov-2015

 ---------------------------------------------
 #p b3lyp/6-311++G(3df,2p) freq symmetry=Loose
 ---------------------------------------------

 ---------
 b3lyp opt
 ---------
 Symbolic Z-matrix:
 Charge =  1 Multiplicity = 3

                         Standard orientation:
 ---------------------------------------------------------------------
 Center     Atomic      Atomic             Coordinates (Angstroms)
 Number     Number       Type             X           Y           Z
 ---------------------------------------------------------------------
      1          6           0       -0.616623    0.135817    0.002052
      2          6           0       -1.947419   -0.086449    0.001252
      3          6           0        1.844316   -0.044118    0.004678
      4          7           0        0.616908   -0.004499   -0.006841
 ---------------------------------------------------------------------

 SCF Done:  E(UB3LYP) =  -168.465530342     A.U. after   22 cycles

 The electronic state is 3-A.
 Alpha  occ. eigenvalues --  -14.71490 -10.62398 -10.59879 -10.59741  -1.33380
 Alpha  occ. eigenvalues --   -1.14963  -1.05486  -0.77466  -0.77337  -0.64595
 Alpha  occ. eigenvalues --   -0.62863  -0.61333  -0.60837
 Alpha virt. eigenvalues --   -0.38295  -0.38201  -0.24525  -0.22461  -0.17503
 Alpha virt. eigenvalues --   -0.12884  -0.11590  -0.11539  -0.07712  -0.06816
 Alpha virt. eigenvalues --   -0.05662  -0.05647  -0.04210  -0.01922  -0.01790

  Beta  occ. eigenvalues --  -14.71327 -10.61238 -10.59156 -10.58489  -1.32038
  Beta  occ. eigenvalues --   -1.11188  -1.01615  -0.74449  -0.74346  -0.62073
  Beta  occ. eigenvalues --   -0.60195
  Beta virt. eigenvalues --   -0.49500  -0.49134  -0.33729  -0.33333  -0.21658
  Beta virt. eigenvalues --   -0.18294  -0.16453  -0.11432  -0.11048  -0.11015
  Beta virt. eigenvalues --   -0.07002  -0.05662  -0.04965  -0.04827  -0.03815

 Mulliken charges and spin densities:
               1          2
     1  C    1.057416   0.778417
     2  C   -0.015046   0.811033
     3  C    0.346149   0.317319
     4  N   -0.388519   0.093231
 Sum of Mulliken charges =   1.00000   2.00000

 Dipole moment (field-independent basis, Debye):
    X=             -0.6871    Y=              0.4417    Z=              0.0051  Tot=              0.8169
 Quadrupole moment (field-independent basis, Debye-Ang):
   XX=            -14.2217   YY=            -18.8524   ZZ=            -18.5736
   XY=             -0.9372   XZ=             -0.0413   YZ=             -0.0065

  Exact polarizability:  76.189  -0.860  22.905  -0.089  -0.017  23.662
 Approx polarizability: 145.917   3.462  33.556   0.026   0.012  32.750

                      1                      2                      3
                      A                      A                      A
 Frequencies --    167.6222               205.6681               340.2543
 Red. masses --     12.5801                13.2579                12.6233
 Frc consts  --      0.2083                 0.3304                 0.8611
 IR Inten    --      8.7323                 1.1924                33.1545

                      4                      5                      6
                      A                      A                      A
 Frequencies --    917.0643              1565.2248              2012.9985
 Red. masses --     12.1692                12.1044                13.0412
 Frc consts  --      6.0299                17.4722                31.1355
 IR Inten    --      3.9617               101.7691               826.2673

 - Thermochemistry -
 -------------------
 Temperature   298.150 Kelvin.  Pressure   1.00000 Atm.
 Atom     1 has atomic number  6 and mass  12.00000

 Molecular mass:    50.00307 amu.
 Principal axes and moments of inertia in atomic units:
                           1         2         3
     Eigenvalues --     1.19868 343.60852 344.80015
           X            1.00000   0.00000   0.00000
           Y           -0.00000   1.00000  -0.00000
           Z           -0.00000   0.00000   1.00000
 This molecule is an asymmetric top.
 Rotational symmetry number  1.
 Rotational temperatures (Kelvin)     72.25793     0.25207     0.25120
 Rotational constants (GHZ):        1505.61266     5.25232     5.23417
 Zero-point vibrational energy      31155.7 (Joules/Mol)
                                    7.44640 (Kcal/Mol)
 Warning -- explicit consideration of   3 degrees of freedom as
           vibrations may cause significant error
 Vibrational temperatures:    241.17   295.91   489.55  1319.45  2252.01
          (Kelvin)           2896.25

 Zero-point correction=                           0.011867 (Hartree/Particle)
 Thermal correction to Energy=                    0.016291
 Thermal correction to Enthalpy=                  0.017236
 Thermal correction to Gibbs Free Energy=        -0.013801
 Sum of electronic and zero-point Energies=           -168.453664
 Sum of electronic and thermal Energies=              -168.449239
 Sum of electronic and thermal Enthalpies=            -168.448295
 Sum of electronic and thermal Free Energies=         -168.479331

                     E (Thermal)             CV                S
                      KCal/Mol        Cal/Mol-Kelvin    Cal/Mol-Kelvin
 Total                   10.223             11.819             65.321
 Electronic               0.000              0.000              2.183
 Translational            0.889              2.981             37.652
 Rotational               0.889              2.981             19.591
 Vibrational              8.446              5.857              5.895
 Vibration     1          0.624              1.882              2.462
 Vibration     2          0.640              1.832              2.082
 Vibration     3          0.720              1.595              1.211

 Normal termination of Gaussian 09 at Tue Aug 16 17:51:19 2016.
