 Gaussian 09, Revision E.01,
 Gaussian 09:  EM64L-G09RevE.01 30-Nov-2015

 ---------------------------------------------
 #p b3lyp/6-311++G(3df,2p) freq symmetry=Loose
 ---------------------------------------------

 ---------
 b3lyp opt
 ---------
 Symbolic Z-matrix:
 Charge =  1 Multiplicity = 1

                         Standard orientation:
 ---------------------------------------------------------------------
 Center     Atomic      Atomic             Coordinates (Angstroms)
 Number     Number       Type             X           Y           Z
 ---------------------------------------------------------------------
      1          6           0        0.000000    0.607345    0.000000
      2          6           0        0.219533   -0.690385    0.000000
      3          6           0       -0.052439   -2.003711    0.000000
      4          7           0       -0.143223    1.788643    0.000000
 ---------------------------------------------------------------------

 SCF Done:  E(RB3LYP) =  -168.447433058     A.U. after   14 cycles

 The electronic state is 1-A'.
 Alpha  occ. eigenvalues --  -14.70938 -10.61559 -10.59321 -10.57112  -1.25916
 Alpha  occ. eigenvalues --   -1.13444  -1.00294  -0.71554  -0.71153  -0.70517
 Alpha  occ. eigenvalues --   -0.62847  -0.60646
 Alpha virt. eigenvalues --   -0.55247  -0.37512  -0.37475  -0.22006  -0.17898
 Alpha virt. eigenvalues --   -0.17587  -0.12683  -0.11370  -0.11254  -0.07165
 Alpha virt. eigenvalues --   -0.06348  -0.05604  -0.05522  -0.03671  -0.02978

 Mulliken charges:
               1
     1  C    0.290376
     2  C    1.158200
     3  C    0.125838
     4  N   -0.574414
 Sum of Mulliken charges =   1.00000

 Dipole moment (field-independent basis, Debye):
    X=              0.8205    Y=             -1.6215    Z=              0.0000  Tot=              1.8173
 Quadrupole moment (field-independent basis, Debye-Ang):
   XX=            -17.2906   YY=            -13.2042   ZZ=            -20.0073
   XY=             -1.6238   XZ=              0.0000   YZ=              0.0000

  Exact polarizability:  21.209  -3.234  74.966   0.000   0.000  32.669
 Approx polarizability:  34.181 -13.287 233.747  -0.000  -0.000  29.402

                      1                      2                      3
                     A'                     A'                     A"
 Frequencies --    152.5034               331.4434               404.0212
 Red. masses --     12.3695                12.1768                12.3321
 Frc consts  --      0.1695                 0.7881                 1.1860
 IR Inten    --     24.1429                22.9664                 5.9706

                      4                      5                      6
                     A'                     A'                     A'
 Frequencies --    925.2937              1609.3222              2097.4919
 Red. masses --     12.5055                12.3065                12.4257
 Frc consts  --      6.3083                18.7789                32.2087
 IR Inten    --     30.5912                88.5037               281.1825

 - Thermochemistry -
 -------------------
 Temperature   298.150 Kelvin.  Pressure   1.00000 Atm.
 Atom     1 has atomic number  6 and mass  12.00000

 Molecular mass:    50.00307 amu.
 Principal axes and moments of inertia in atomic units:
                           1         2         3
     Eigenvalues --     2.60964 368.86007 371.46971
           X           -0.04045   0.99918   0.00000
           Y            0.99918   0.04045   0.00000
           Z           -0.00000   0.00000   1.00000
 This molecule is an asymmetric top.
 Rotational symmetry number  1.
 Rotational temperatures (Kelvin)     33.18994     0.23481     0.23317
 Rotational constants (GHZ):         691.56703     4.89275     4.85838
 Zero-point vibrational energy      33017.4 (Joules/Mol)
                                    7.89134 (Kcal/Mol)
 Warning -- explicit consideration of   3 degrees of freedom as
           vibrations may cause significant error
 Vibrational temperatures:    219.42   476.87   581.30  1331.29  2315.45
          (Kelvin)           3017.82

 Zero-point correction=                           0.012576 (Hartree/Particle)
 Thermal correction to Energy=                    0.016788
 Thermal correction to Enthalpy=                  0.017732
 Thermal correction to Gibbs Free Energy=        -0.012267
 Sum of electronic and zero-point Energies=           -168.434857
 Sum of electronic and thermal Energies=              -168.430646
 Sum of electronic and thermal Enthalpies=            -168.429701
 Sum of electronic and thermal Free Energies=         -168.459700

                     E (Thermal)             CV                S
                      KCal/Mol        Cal/Mol-Kelvin    Cal/Mol-Kelvin
 Total                   10.534             11.461             63.137
 Electronic               0.000              0.000              0.000
 Translational            0.889              2.981             37.652
 Rotational               0.889              2.981             20.508
 Vibrational              8.757              5.499              4.976
 Vibration     1          0.619              1.900              2.641
 Vibration     2          0.714              1.613              1.253
 Vibration     3          0.769              1.461              0.948

 Normal termination of Gaussian 09 at Tue Aug 16 17:46:25 2016.
