 Gaussian 09, Revision E.01,
 Gaussian 09:  EM64L-G09RevE.01 30-Nov-2015

 ---------------------------------------------
 #p b3lyp/6-311++G(3df,2p) freq symmetry=Loose
 ---------------------------------------------

 ---------
 b3lyp opt
 ---------
 Symbolic Z-matrix:
 Charge =  2 Multiplicity = 2

                         Standard orientation:
 ---------------------------------------------------------------------
 Center     Atomic      Atomic             Coordinates (Angstroms)
 Number     Number       Type             X           Y           Z
 ---------------------------------------------------------------------
      1          6           0        0.001884   -0.007049    0.896538
      2          6           0       -0.005966   -1.185825   -0.000000
      3          6           0        0.001884   -0.007049   -0.896538
      4          7           0        0.001884    1.028518    0.000000
 ---------------------------------------------------------------------

 SCF Done:  E(UB3LYP) =  -167.702988785     A.U. after   18 cycles

 The electronic state is 2-A'.
 Alpha  occ. eigenvalues --  -15.08886 -11.01908 -10.96886 -10.96880  -1.71527
 Alpha  occ. eigenvalues --   -1.41579  -1.25996  -1.11364  -1.07633  -1.06996
 Alpha  occ. eigenvalues --   -0.96052  -0.91920
 Alpha virt. eigenvalues --   -0.81910  -0.72996  -0.72740  -0.57797  -0.45314
 Alpha virt. eigenvalues --   -0.40304  -0.36934  -0.30878  -0.30684  -0.27276
 Alpha virt. eigenvalues --   -0.26731  -0.26564  -0.25344  -0.24885  -0.22480

  Beta  occ. eigenvalues --  -15.08492 -11.00055 -10.96827 -10.96822  -1.70738
  Beta  occ. eigenvalues --   -1.39601  -1.25653  -1.10276  -1.06740  -1.01461
  Beta  occ. eigenvalues --   -0.91574
  Beta virt. eigenvalues --   -0.80068  -0.79467  -0.72789  -0.72373  -0.56252
  Beta virt. eigenvalues --   -0.43306  -0.39825  -0.36756  -0.30612  -0.29538
  Beta virt. eigenvalues --   -0.26831  -0.26472  -0.25383  -0.24809  -0.24290

 Mulliken charges and spin densities:
               1          2
     1  C    0.491327   0.010371
     2  C    0.931304   0.833114
     3  C    0.491327   0.010371
     4  N    0.086043   0.146143
 Sum of Mulliken charges =   2.00000   1.00000

 Dipole moment (field-independent basis, Debye):
    X=              0.0030    Y=             -2.4956    Z=             -0.0000  Tot=              2.4956
 Quadrupole moment (field-independent basis, Debye-Ang):
   XX=            -15.4521   YY=            -10.0361   ZZ=            -12.3415
   XY=              0.0209   XZ=              0.0000   YZ=             -0.0000

  Exact polarizability:  17.056   0.069  34.544   0.000   0.000  33.000
 Approx polarizability:  25.577   0.201  85.080  -0.000  -0.000 116.779

                      1                      2                      3
                     A'                     A"                     A'
 Frequencies --    189.6213               494.2455               577.5473
 Red. masses --     12.4497                12.4558                12.2796
 Frc consts  --      0.2637                 1.7927                 2.4133
 IR Inten    --     34.8196                24.2294                 9.7600

                      4                      5                      6
                     A'                     A"                     A'
 Frequencies --    852.3290              1046.9544              1308.9564
 Red. masses --     12.1289                12.3056                12.8976
 Frc consts  --      5.1914                 7.9471                13.0199
 IR Inten    --     19.8139                 0.0432                 0.8464

 - Thermochemistry -
 -------------------
 Temperature   298.150 Kelvin.  Pressure   1.00000 Atm.
 Atom     1 has atomic number  6 and mass  12.00000

 Molecular mass:    50.00307 amu.
 Principal axes and moments of inertia in atomic units:
                           1         2         3
     Eigenvalues --    68.88910 113.16372 182.05162
           X            0.00353   0.00000   0.99999
           Y            0.99999   0.00000  -0.00353
           Z            0.00000   1.00000   0.00000
 This molecule is an asymmetric top.
 Rotational symmetry number  1.
 Rotational temperatures (Kelvin)      1.25729     0.76539     0.47577
 Rotational constants (GHZ):          26.19778    15.94806     9.91335
 Zero-point vibrational energy      26734.5 (Joules/Mol)
                                    6.38969 (Kcal/Mol)
 Warning -- explicit consideration of   3 degrees of freedom as
           vibrations may cause significant error
 Vibrational temperatures:    272.82   711.11   830.96  1226.31  1506.33
          (Kelvin)           1883.29

 Zero-point correction=                           0.010183 (Hartree/Particle)
 Thermal correction to Energy=                    0.014100
 Thermal correction to Enthalpy=                  0.015044
 Thermal correction to Gibbs Free Energy=        -0.015637
 Sum of electronic and zero-point Energies=           -167.692806
 Sum of electronic and thermal Energies=              -167.688889
 Sum of electronic and thermal Enthalpies=            -167.687945
 Sum of electronic and thermal Free Energies=         -167.718626

                     E (Thermal)             CV                S
                      KCal/Mol        Cal/Mol-Kelvin    Cal/Mol-Kelvin
 Total                    8.848             11.199             64.574
 Electronic               0.000              0.000              1.377
 Translational            0.889              2.981             37.652
 Rotational               0.889              2.981             21.878
 Vibrational              7.070              5.237              3.666
 Vibration     1          0.633              1.854              2.232
 Vibration     2          0.850              1.263              0.673
 Vibration     3          0.934              1.080              0.490

 Normal termination of Gaussian 09 at Tue Aug 16 17:48:53 2016.
