 Gaussian 09, Revision E.01,
 Gaussian 09:  EM64L-G09RevE.01 30-Nov-2015

 ---------------------------------------------
 #p b3lyp/6-311++G(3df,2p) freq symmetry=Loose
 ---------------------------------------------

 ---------
 b3lyp opt
 ---------
 Symbolic Z-matrix:
 Charge =  0 Multiplicity = 4

                         Standard orientation:
 ---------------------------------------------------------------------
 Center     Atomic      Atomic             Coordinates (Angstroms)
 Number     Number       Type             X           Y           Z
 ---------------------------------------------------------------------
      1          6           0       -0.128932   -0.014573    0.892984
      2          6           0       -0.128932   -1.102011   -0.000000
      3          6           0       -0.128932   -0.014573   -0.892984
      4          7           0        0.331538    0.969563    0.000000
 ---------------------------------------------------------------------

 SCF Done:  E(UB3LYP) =  -168.756974631     A.U. after   15 cycles

 The electronic state is 4-A".
 Alpha  occ. eigenvalues --  -14.41779 -10.30181 -10.30179 -10.29629  -1.08037
 Alpha  occ. eigenvalues --   -0.79683  -0.65072  -0.50440  -0.49658  -0.47713
 Alpha  occ. eigenvalues --   -0.36229  -0.35302  -0.29326  -0.26324
 Alpha virt. eigenvalues --   -0.10203  -0.03196   0.02405   0.03808   0.03930
 Alpha virt. eigenvalues --    0.04422   0.07996   0.08227   0.09115   0.09657
 Alpha virt. eigenvalues --    0.10033   0.12731   0.15820   0.16032   0.16174

  Beta  occ. eigenvalues --  -14.39984 -10.29361 -10.29356 -10.27123  -1.04599
  Beta  occ. eigenvalues --   -0.74442  -0.62049  -0.46804  -0.43951  -0.39922
  Beta  occ. eigenvalues --   -0.31305
  Beta virt. eigenvalues --   -0.19963  -0.14185  -0.13589  -0.09189   0.01370
  Beta virt. eigenvalues --    0.04301   0.04308   0.04823   0.05106   0.08079
  Beta virt. eigenvalues --    0.08554   0.09885   0.10034   0.11254   0.13089

 Mulliken charges and spin densities:
               1          2
     1  C    0.048909   0.417103
     2  C    0.310544   1.413388
     3  C    0.048909   0.417103
     4  N   -0.408362   0.752406
 Sum of Mulliken charges =  -0.00000   3.00000

 Dipole moment (field-independent basis, Debye):
    X=              0.1986    Y=             -1.3085    Z=             -0.0000  Tot=              1.3234
 Quadrupole moment (field-independent basis, Debye-Ang):
   XX=            -22.3713   YY=            -23.4401   ZZ=            -24.1749
   XY=             -0.7440   XZ=             -0.0000   YZ=             -0.0000

  Exact polarizability:  25.946   4.009  42.397  -0.000  -0.000  48.457
 Approx polarizability:  38.828  11.223  82.322   0.000   0.000 103.560

                      1                      2                      3
                     A'                     A"                     A'
 Frequencies --    496.1958               715.6845               771.0846
 Red. masses --     12.3432                12.7341                12.4730
 Frc consts  --      1.7905                 3.8429                 4.3694
 IR Inten    --      6.5840                50.5964                 8.9385

                      4                      5                      6
                     A'                     A"                     A'
 Frequencies --    997.2787              1096.5320              1281.7817
 Red. masses --     12.3252                12.0140                12.5455
 Frc consts  --      7.2223                 8.5110                12.1441
 IR Inten    --      3.0708                 1.7242                 0.7959

 - Thermochemistry -
 -------------------
 Temperature   298.150 Kelvin.  Pressure   1.00000 Atm.
 Atom     1 has atomic number  6 and mass  12.00000

 Molecular mass:    50.00307 amu.
 Principal axes and moments of inertia in atomic units:
                           1         2         3
     Eigenvalues --    70.81763 106.70157 172.57068
           X            0.22518   0.00000   0.97432
           Y            0.97432   0.00000  -0.22518
           Z           -0.00000   1.00000  -0.00000
 This molecule is an asymmetric top.
 Rotational symmetry number  1.
 Rotational temperatures (Kelvin)      1.22305     0.81174     0.50190
 Rotational constants (GHZ):          25.48435    16.91391    10.45798
 Zero-point vibrational energy      32051.3 (Joules/Mol)
                                    7.66044 (Kcal/Mol)
 Warning -- explicit consideration of   1 degrees of freedom as
           vibrations may cause significant error
 Vibrational temperatures:    713.91  1029.71  1109.42  1434.86  1577.66
          (Kelvin)           1844.20

 Zero-point correction=                           0.012208 (Hartree/Particle)
 Thermal correction to Energy=                    0.015535
 Thermal correction to Enthalpy=                  0.016480
 Thermal correction to Gibbs Free Energy=        -0.013727
 Sum of electronic and zero-point Energies=           -168.744767
 Sum of electronic and thermal Energies=              -168.741439
 Sum of electronic and thermal Enthalpies=            -168.740495
 Sum of electronic and thermal Free Energies=         -168.770702

                     E (Thermal)             CV                S
                      KCal/Mol        Cal/Mol-Kelvin    Cal/Mol-Kelvin
 Total                    9.749              9.540             63.576
 Electronic               0.000              0.000              2.755
 Translational            0.889              2.981             37.652
 Rotational               0.889              2.981             21.794
 Vibrational              7.971              3.578              1.375
 Vibration     1          0.852              1.258              0.668

 Optimization completed.
    -- Stationary point found.
 Normal termination of Gaussian 09 at Tue Aug 16 17:48:36 2016.
