 Gaussian 09, Revision E.01,
 Gaussian 09:  EM64L-G09RevE.01 30-Nov-2015

 ---------------------------------------------
 #p b3lyp/6-311++G(3df,2p) freq symmetry=Loose
 ---------------------------------------------

 ---------
 b3lyp opt
 ---------
 Symbolic Z-matrix:
 Charge =  2 Multiplicity = 4

                         Standard orientation:
 ---------------------------------------------------------------------
 Center     Atomic      Atomic             Coordinates (Angstroms)
 Number     Number       Type             X           Y           Z
 ---------------------------------------------------------------------
      1          6           0       -0.000000    0.000000    0.591387
      2          6           0        0.000000   -0.000000   -0.713593
      3          6           0        0.000000   -0.000000   -2.003643
      4          7           0       -0.000000    0.000000    1.822156
 ---------------------------------------------------------------------

 SCF Done:  E(UB3LYP) =  -167.785796345     A.U. after   16 cycles

 The electronic state is 4-SG.
 Alpha  occ. eigenvalues --  -15.02248 -10.97903 -10.89947 -10.86916  -1.54930
 Alpha  occ. eigenvalues --   -1.45293  -1.30883  -1.03069  -1.00526  -1.00526
 Alpha  occ. eigenvalues --   -0.98021  -0.93070  -0.93070
 Alpha virt. eigenvalues --   -0.69181  -0.69181  -0.47047  -0.47047  -0.39994
 Alpha virt. eigenvalues --   -0.37738  -0.28600  -0.28600  -0.26560  -0.23492
 Alpha virt. eigenvalues --   -0.21905  -0.21905  -0.21551  -0.21551  -0.19950

  Beta  occ. eigenvalues --  -15.00169 -10.93951 -10.89339 -10.87082  -1.50060
  Beta  occ. eigenvalues --   -1.40208  -1.28479  -0.95946  -0.95946  -0.94980
  Beta virt. eigenvalues --   -0.79106  -0.79106  -0.76305  -0.61066  -0.61066
  Beta virt. eigenvalues --   -0.42283  -0.42283  -0.38471  -0.37153  -0.28181
  Beta virt. eigenvalues --   -0.28181  -0.24134  -0.22129  -0.20949  -0.20949

 Mulliken charges and spin densities:
               1          2
     1  C   -0.441641  -0.055560
     2  C    1.695389   0.241327
     3  C    1.045690   1.804153
     4  N   -0.299439   1.010080
 Sum of Mulliken charges =   2.00000   3.00000

 Dipole moment (field-independent basis, Debye):
    X=              0.0000    Y=             -0.0000    Z=             -4.6958  Tot=              4.6958
 Quadrupole moment (field-independent basis, Debye-Ang):
   XX=            -16.1888   YY=            -16.1888   ZZ=              8.5111
   XY=             -0.0000   XZ=             -0.0000   YZ=              0.0000

  Exact polarizability:  15.674   0.000  15.674  -0.000   0.000  62.129
 Approx polarizability:  21.090  -0.000  21.090  -0.000   0.000 170.519

                      1                      2                      3
                     PI                     PI                     PI
 Frequencies --    204.2544               204.2544               484.7149
 Red. masses --     12.4273                12.4273                12.0634
 Frc consts  --      0.3055                 0.3055                 1.6699
 IR Inten    --      0.4983                 0.4983                 6.4025

                      4                      5                      6
                     PI                     SG                     SG
 Frequencies --    484.7150               935.1802              1609.9149
 Red. masses --     12.0634                12.7475                12.4462
 Frc consts  --      1.6699                 6.5685                19.0061
 IR Inten    --      6.4025                 2.4872               524.7956

                      7
                     SG
 Frequencies --   2115.8843
 Red. masses --     12.1028
 Frc consts  --     31.9243
 IR Inten    --     10.9159

 - Thermochemistry -
 -------------------
 Temperature   298.150 Kelvin.  Pressure   1.00000 Atm.
 Atom     1 has atomic number  6 and mass  12.00000

 Molecular mass:    50.00307 amu.
 Principal axes and moments of inertia in atomic units:
                           1         2         3
     Eigenvalues --     0.00000 374.87674 374.87674
           X           -0.00000   0.91466   0.40422
           Y            0.00000  -0.40422   0.91466
           Z            1.00000   0.00000   0.00000
 This molecule is a prolate symmetric top.
 Rotational symmetry number  1.
 Rotational temperature (Kelvin)      0.23105
 Rotational constant (GHZ):           4.814226
 Zero-point vibrational energy      36120.8 (Joules/Mol)
                                    8.63307 (Kcal/Mol)
 Warning -- explicit consideration of   4 degrees of freedom as
           vibrations may cause significant error
 Vibrational temperatures:    293.88   293.88   697.40   697.40  1345.51
          (Kelvin)           2316.31  3044.28

 Zero-point correction=                           0.013758 (Hartree/Particle)
 Thermal correction to Energy=                    0.017748
 Thermal correction to Enthalpy=                  0.018693
 Thermal correction to Gibbs Free Energy=        -0.010928
 Sum of electronic and zero-point Energies=           -167.772039
 Sum of electronic and thermal Energies=              -167.768048
 Sum of electronic and thermal Enthalpies=            -167.767104
 Sum of electronic and thermal Free Energies=         -167.796724

                     E (Thermal)             CV                S
                      KCal/Mol        Cal/Mol-Kelvin    Cal/Mol-Kelvin
 Total                   11.137             11.716             62.341
 Electronic               0.000              0.000              2.755
 Translational            0.889              2.981             37.652
 Rotational               0.592              1.987             16.221
 Vibrational              9.656              6.748              5.713
 Vibration     1          0.640              1.834              2.094
 Vibration     2          0.640              1.834              2.094
 Vibration     3          0.841              1.284              0.697
 Vibration     4          0.841              1.284              0.697

 Optimization completed.
    -- Stationary point found.
 Normal termination of Gaussian 09 at Tue Aug 16 17:48:48 2016.
