 Gaussian 09, Revision E.01,
 Gaussian 09:  EM64L-G09RevE.01 30-Nov-2015

 ---------------------------------------------
 #p b3lyp/6-311++G(3df,2p) freq symmetry=Loose
 ---------------------------------------------

 ---------
 b3lyp opt
 ---------
 Symbolic Z-matrix:
 Charge =  1 Multiplicity = 1

                         Standard orientation:
 ---------------------------------------------------------------------
 Center     Atomic      Atomic             Coordinates (Angstroms)
 Number     Number       Type             X           Y           Z
 ---------------------------------------------------------------------
      1          6           0       -0.529355   -1.102545   -0.000000
      2          6           0        0.000000    0.321753    0.000000
      3          6           0       -0.347838    1.665215    0.000000
      4          7           0        0.751880   -0.758077   -0.000000
 ---------------------------------------------------------------------

 SCF Done:  E(RB3LYP) =  -168.404911618     A.U. after   13 cycles

 The electronic state is 1-A'.
 Alpha  occ. eigenvalues --  -14.73806 -10.64362 -10.61692 -10.60519  -1.40257
 Alpha  occ. eigenvalues --   -1.09614  -0.89450  -0.84220  -0.76900  -0.65924
 Alpha  occ. eigenvalues --   -0.62777  -0.60554
 Alpha virt. eigenvalues --   -0.51741  -0.42677  -0.35013  -0.29274  -0.18394
 Alpha virt. eigenvalues --   -0.15161  -0.11951  -0.11373  -0.10028  -0.09984
 Alpha virt. eigenvalues --   -0.07605  -0.06105  -0.05502  -0.05098  -0.03744

 Mulliken charges:
               1
     1  C    0.072010
     2  C    0.935135
     3  C    0.237585
     4  N   -0.244730
 Sum of Mulliken charges =   1.00000

 Dipole moment (field-independent basis, Debye):
    X=             -0.0005    Y=              0.9952    Z=              0.0000  Tot=              0.9952
 Quadrupole moment (field-independent basis, Debye-Ang):
   XX=            -20.7921   YY=            -15.1624   ZZ=            -17.4224
   XY=             -0.5760   XZ=              0.0000   YZ=             -0.0000

  Exact polarizability:  26.016  -2.104  52.733   0.000  -0.000  21.654
 Approx polarizability:  44.703 -11.698 140.667  -0.000   0.000  35.076

                      1                      2                      3
                     A'                     A"                     A'
 Frequencies --    196.1972               246.9821               639.3777
 Red. masses --     12.1201                12.1313                12.2117
 Frc consts  --      0.2749                 0.4360                 2.9413
 IR Inten    --      4.9375                29.2546                27.9555

                      4                      5                      6
                     A'                     A'                     A'
 Frequencies --    906.1396              1258.1587              1693.6642
 Red. masses --     12.8457                12.5974                12.4068
 Frc consts  --      6.2144                11.7491                20.9684
 IR Inten    --     59.7808               102.9005               224.7063

 - Thermochemistry -
 -------------------
 Temperature   298.150 Kelvin.  Pressure   1.00000 Atm.
 Atom     1 has atomic number  6 and mass  12.00000

 Molecular mass:    50.00307 amu.
 Principal axes and moments of inertia in atomic units:
                           1         2         3
     Eigenvalues --    40.56035 208.99610 249.55645
           X           -0.17060   0.98534   0.00000
           Y            0.98534   0.17060   0.00000
           Z            0.00000   0.00000   1.00000
 This molecule is an asymmetric top.
 Rotational symmetry number  1.
 Rotational temperatures (Kelvin)      2.13543     0.41443     0.34707
 Rotational constants (GHZ):          44.49521     8.63529     7.23180
 Zero-point vibrational energy      29550.9 (Joules/Mol)
                                    7.06283 (Kcal/Mol)
 Warning -- explicit consideration of   2 degrees of freedom as
           vibrations may cause significant error
 Vibrational temperatures:    282.28   355.35   919.92  1303.73  1810.21
          (Kelvin)           2436.80

 Zero-point correction=                           0.011255 (Hartree/Particle)
 Thermal correction to Energy=                    0.015353
 Thermal correction to Enthalpy=                  0.016297
 Thermal correction to Gibbs Free Energy=        -0.014305
 Sum of electronic and zero-point Energies=           -168.393656
 Sum of electronic and thermal Energies=              -168.389559
 Sum of electronic and thermal Enthalpies=            -168.388614
 Sum of electronic and thermal Free Energies=         -168.419217

                     E (Thermal)             CV                S
                      KCal/Mol        Cal/Mol-Kelvin    Cal/Mol-Kelvin
 Total                    9.634             11.223             64.408
 Electronic               0.000              0.000              0.000
 Translational            0.889              2.981             37.652
 Rotational               0.889              2.981             22.275
 Vibrational              7.857              5.262              4.481
 Vibration     1          0.636              1.845              2.168
 Vibration     2          0.661              1.768              1.752

 Optimization completed.
    -- Stationary point found.
 Normal termination of Gaussian 09 at Tue Aug 16 17:46:46 2016.
