 Gaussian 09, Revision E.01,
 Gaussian 09:  EM64L-G09RevE.01 30-Nov-2015

 ---------------------------------------------
 #p b3lyp/6-311++G(3df,2p) freq symmetry=Loose
 ---------------------------------------------

 ---------
 b3lyp opt
 ---------
 Symbolic Z-matrix:
 Charge =  0 Multiplicity = 2

                         Standard orientation:
 ---------------------------------------------------------------------
 Center     Atomic      Atomic             Coordinates (Angstroms)
 Number     Number       Type             X           Y           Z
 ---------------------------------------------------------------------
      1          6           0       -0.000000    0.743077    0.000000
      2          6           0        1.269723    0.039775   -0.000000
      3          6           0        0.046932   -0.742456   -0.000000
      4          7           0       -1.128561   -0.034626    0.000000
 ---------------------------------------------------------------------

 SCF Done:  E(UB3LYP) =  -168.823299421     A.U. after   13 cycles

 The electronic state is 2-A".
 Alpha  occ. eigenvalues --  -14.44886 -10.33267 -10.33236 -10.27893  -1.13948
 Alpha  occ. eigenvalues --   -0.85346  -0.61630  -0.52671  -0.50229  -0.47446
 Alpha  occ. eigenvalues --   -0.35532  -0.32187  -0.31326
 Alpha virt. eigenvalues --   -0.11907  -0.08560  -0.02645   0.01356   0.03410
 Alpha virt. eigenvalues --    0.04283   0.04843   0.07330   0.08190   0.09259
 Alpha virt. eigenvalues --    0.10033   0.10115   0.13800   0.15449   0.16167

  Beta  occ. eigenvalues --  -14.43607 -10.33358 -10.33326 -10.27179  -1.12549
  Beta  occ. eigenvalues --   -0.82757  -0.61300  -0.48776  -0.48353  -0.46687
  Beta  occ. eigenvalues --   -0.35206  -0.31085
  Beta virt. eigenvalues --   -0.18465  -0.12034  -0.07966   0.01461   0.01823
  Beta virt. eigenvalues --    0.03411   0.04842   0.04970   0.07414   0.08189
  Beta virt. eigenvalues --    0.09378   0.09998   0.10729   0.13814   0.15539

 Mulliken charges and spin densities:
               1          2
     1  C    0.190721  -0.046157
     2  C   -0.034941   0.495171
     3  C    0.188968  -0.044665
     4  N   -0.344748   0.595651
 Sum of Mulliken charges =  -0.00000   1.00000

 Dipole moment (field-independent basis, Debye):
    X=             -1.0707    Y=             -0.0304    Z=              0.0000  Tot=              1.0711
 Quadrupole moment (field-independent basis, Debye-Ang):
   XX=            -28.4856   YY=            -22.9886   ZZ=            -21.2517
   XY=             -0.1742   XZ=              0.0000   YZ=              0.0000

  Exact polarizability:  41.117   0.126  36.900  -0.000  -0.000  26.593
 Approx polarizability:  72.014  -0.330  82.037  -0.000   0.000  38.954

                      1                      2                      3
                     A'                     A"                     A'
 Frequencies --    404.7252               421.8148               514.8199
 Red. masses --     12.0240                12.4276                12.6371
 Frc consts  --      1.1604                 1.3028                 1.9734
 IR Inten    --      7.8328                40.0927                38.8491

                      4                      5                      6
                     A'                     A'                     A'
 Frequencies --    995.8120              1227.9980              1369.8632
 Red. masses --     12.5709                12.0412                12.6870
 Frc consts  --      7.3446                10.6983                14.0270
 IR Inten    --     16.5571                 8.4345                 1.9062

 - Thermochemistry -
 -------------------
 Temperature   298.150 Kelvin.  Pressure   1.00000 Atm.
 Atom     1 has atomic number  6 and mass  12.00000

 Molecular mass:    50.00307 amu.
 Principal axes and moments of inertia in atomic units:
                           1         2         3
     Eigenvalues --    47.33114 132.95208 180.28322
           X            0.99953  -0.03067   0.00000
           Y            0.03067   0.99953   0.00000
           Z            0.00000  -0.00000   1.00000
 This molecule is an asymmetric top.
 Rotational symmetry number  1.
 Rotational temperatures (Kelvin)      1.82995     0.65147     0.48043
 Rotational constants (GHZ):          38.13010    13.57437    10.01059
 Zero-point vibrational energy      29518.1 (Joules/Mol)
                                    7.05498 (Kcal/Mol)
 Warning -- explicit consideration of   3 degrees of freedom as
           vibrations may cause significant error
 Vibrational temperatures:    582.31   606.90   740.71  1432.75  1766.81
          (Kelvin)           1970.93

 Zero-point correction=                           0.011243 (Hartree/Particle)
 Thermal correction to Energy=                    0.014943
 Thermal correction to Enthalpy=                  0.015887
 Thermal correction to Gibbs Free Energy=        -0.014184
 Sum of electronic and zero-point Energies=           -168.812057
 Sum of electronic and thermal Energies=              -168.808356
 Sum of electronic and thermal Enthalpies=            -168.807412
 Sum of electronic and thermal Free Energies=         -168.837484

                     E (Thermal)             CV                S
                      KCal/Mol        Cal/Mol-Kelvin    Cal/Mol-Kelvin
 Total                    9.377             10.748             63.291
 Electronic               0.000              0.000              1.377
 Translational            0.889              2.981             37.652
 Rotational               0.889              2.981             21.655
 Vibrational              7.599              4.786              2.606
 Vibration     1          0.770              1.460              0.945
 Vibration     2          0.784              1.423              0.886
 Vibration     3          0.870              1.217              0.622

 Optimization completed.
    -- Stationary point found.
 Normal termination of Gaussian 09 at Tue Aug 16 17:44:41 2016.
