 Gaussian 09, Revision E.01,
 Gaussian 09:  EM64L-G09RevE.01 30-Nov-2015

 ---------------------------------------------
 #p b3lyp/6-311++G(3df,2p) freq symmetry=Loose
 ---------------------------------------------

 ---------
 b3lyp opt
 ---------
 Symbolic Z-matrix:
 Charge =  1 Multiplicity = 3

                         Standard orientation:
 ---------------------------------------------------------------------
 Center     Atomic      Atomic             Coordinates (Angstroms)
 Number     Number       Type             X           Y           Z
 ---------------------------------------------------------------------
      1          6           0        1.713547   -0.042559    0.000115
      2          6           0        0.348902    0.039034   -0.000236
      3          6           0       -0.901272    0.668087    0.000067
      4          7           0       -0.995295   -0.569625    0.000046
 ---------------------------------------------------------------------

 SCF Done:  E(UB3LYP) =  -168.413416516     A.U. after   21 cycles

 The electronic state is 3-A.
 Alpha  occ. eigenvalues --  -14.73438 -10.62284 -10.61720 -10.60295  -1.39923
 Alpha  occ. eigenvalues --   -1.10601  -0.90272  -0.85237  -0.78237  -0.69723
 Alpha  occ. eigenvalues --   -0.63929  -0.62311  -0.60518
 Alpha virt. eigenvalues --   -0.42347  -0.36486  -0.30306  -0.19715  -0.14432
 Alpha virt. eigenvalues --   -0.13307  -0.11867  -0.11341  -0.09601  -0.07470
 Alpha virt. eigenvalues --   -0.06175  -0.05753  -0.04589  -0.02980  -0.01821

  Beta  occ. eigenvalues --  -14.73046 -10.60869 -10.60814 -10.59169  -1.38875
  Beta  occ. eigenvalues --   -1.05771  -0.88548  -0.81932  -0.74839  -0.66586
  Beta  occ. eigenvalues --   -0.60465
  Beta virt. eigenvalues --   -0.49999  -0.47942  -0.38220  -0.32813  -0.24508
  Beta virt. eigenvalues --   -0.18134  -0.13808  -0.11936  -0.11423  -0.10598
  Beta virt. eigenvalues --   -0.08328  -0.06821  -0.05665  -0.05546  -0.03605

 Mulliken charges and spin densities:
               1          2
     1  C    0.098191   0.666454
     2  C    0.946594   0.552217
     3  C    0.239392   0.679059
     4  N   -0.284177   0.102270
 Sum of Mulliken charges =   1.00000   2.00000

 Dipole moment (field-independent basis, Debye):
    X=             -0.2383    Y=              0.9347    Z=             -0.0006  Tot=              0.9646
 Quadrupole moment (field-independent basis, Debye-Ang):
   XX=            -14.9658   YY=            -18.3621   ZZ=            -18.5535
   XY=             -1.9312   XZ=             -0.0013   YZ=             -0.0000

  Exact polarizability:  58.721  -6.640  28.581  -0.001  -0.001  21.640
 Approx polarizability: 108.062  -8.080  48.947   0.001   0.000  29.747

                      1                      2                      3
                      A                      A                      A
 Frequencies --    239.8682               254.1818               565.6044
 Red. masses --     12.2135                12.0569                13.0111
 Frc consts  --      0.4140                 0.4590                 2.4524
 IR Inten    --     21.0435                15.8945                 0.4968

                      4                      5                      6
                      A                      A                      A
 Frequencies --    899.2313              1371.7492              1777.2140
 Red. masses --     12.0816                12.2402                12.5906
 Frc consts  --      5.7560                13.5702                23.4303
 IR Inten    --      2.2775                53.1137                 2.2680

 - Thermochemistry -
 -------------------
 Temperature   298.150 Kelvin.  Pressure   1.00000 Atm.
 Atom     1 has atomic number  6 and mass  12.00000

 Molecular mass:    50.00307 amu.
 Principal axes and moments of inertia in atomic units:
                           1         2         3
     Eigenvalues --    35.49539 215.38812 250.88351
           X            1.00000  -0.00003   0.00000
           Y            0.00003   1.00000   0.00000
           Z           -0.00000  -0.00000   1.00000
 This molecule is an asymmetric top.
 Rotational symmetry number  1.
 Rotational temperatures (Kelvin)      2.44014     0.40213     0.34524
 Rotational constants (GHZ):          50.84438     8.37902     7.19354
 Zero-point vibrational energy      30551.7 (Joules/Mol)
                                    7.30204 (Kcal/Mol)
 Warning -- explicit consideration of   3 degrees of freedom as
           vibrations may cause significant error
 Vibrational temperatures:    345.12   365.71   813.78  1293.79  1973.64
          (Kelvin)           2557.01

 Zero-point correction=                           0.011637 (Hartree/Particle)
 Thermal correction to Energy=                    0.015695
 Thermal correction to Enthalpy=                  0.016639
 Thermal correction to Gibbs Free Energy=        -0.014812
 Sum of electronic and zero-point Energies=           -168.401780
 Sum of electronic and thermal Energies=              -168.397722
 Sum of electronic and thermal Enthalpies=            -168.396778
 Sum of electronic and thermal Free Energies=         -168.428229

                     E (Thermal)             CV                S
                      KCal/Mol        Cal/Mol-Kelvin    Cal/Mol-Kelvin
 Total                    9.848             11.248             66.194
 Electronic               0.000              0.000              2.183
 Translational            0.889              2.981             37.652
 Rotational               0.889              2.981             22.177
 Vibrational              8.071              5.286              4.182
 Vibration     1          0.657              1.779              1.804
 Vibration     2          0.665              1.756              1.701
 Vibration     3          0.921              1.106              0.513

 Optimization completed.
    -- Stationary point found.
 Normal termination of Gaussian 09 at Tue Aug 16 17:51:40 2016.
