 Gaussian 09, Revision E.01,
 Gaussian 09:  EM64L-G09RevE.01 30-Nov-2015

 ---------------------------------------------
 #p b3lyp/6-311++G(3df,2p) freq symmetry=Loose
 ---------------------------------------------

 ---------
 b3lyp opt
 ---------
 Symbolic Z-matrix:
 Charge =  2 Multiplicity = 2

                         Standard orientation:
 ---------------------------------------------------------------------
 Center     Atomic      Atomic             Coordinates (Angstroms)
 Number     Number       Type             X           Y           Z
 ---------------------------------------------------------------------
      1          6           0        0.000000   -1.184020    0.038792
      2          6           0       -0.000000    0.000000   -0.936723
      3          6           0       -0.000000    1.184020    0.038792
      4          7           0        0.000000   -0.000000    0.736404
 ---------------------------------------------------------------------

 SCF Done:  E(UB3LYP) =  -167.693607532     A.U. after   15 cycles

 The electronic state is 2-B2.
 Alpha  occ. eigenvalues --  -15.09842 -10.99497 -10.98705 -10.98702  -1.73135
 Alpha  occ. eigenvalues --   -1.39391  -1.29103  -1.08951  -1.08249  -1.03803
 Alpha  occ. eigenvalues --   -0.96188  -0.92779
 Alpha virt. eigenvalues --   -0.76999  -0.76166  -0.70789  -0.58819  -0.49355
 Alpha virt. eigenvalues --   -0.41415  -0.36664  -0.32758  -0.32739  -0.30412
 Alpha virt. eigenvalues --   -0.26988  -0.26224  -0.25860  -0.22274  -0.22249

  Beta  occ. eigenvalues --  -15.09773 -10.99460 -10.97635 -10.97634  -1.72570
  Beta  occ. eigenvalues --   -1.37942  -1.28631  -1.08047  -1.08021  -1.00223
  Beta  occ. eigenvalues --   -0.91431
  Beta virt. eigenvalues --   -0.78985  -0.76266  -0.75330  -0.70154  -0.57213
  Beta virt. eigenvalues --   -0.48102  -0.39882  -0.36538  -0.31615  -0.30755
  Beta virt. eigenvalues --   -0.30360  -0.26784  -0.25900  -0.24827  -0.22281

 Mulliken charges and spin densities:
               1          2
     1  C    0.565559   0.524658
     2  C    0.790032  -0.011083
     3  C    0.565559   0.524658
     4  N    0.078849  -0.038232
 Sum of Mulliken charges =   2.00000   1.00000

 Dipole moment (field-independent basis, Debye):
    X=             -0.0000    Y=             -0.0000    Z=             -0.9451  Tot=              0.9451
 Quadrupole moment (field-independent basis, Debye-Ang):
   XX=            -15.5629   YY=             -9.1858   ZZ=            -13.2591
   XY=             -0.0000   XZ=             -0.0000   YZ=             -0.0000

  Exact polarizability:  17.479  -0.000  57.870  -0.000  -0.000  27.482
 Approx polarizability:  27.876  -0.000 139.570   0.000  -0.000  80.145

                      1                      2                      3
                     B2                     B1                     A1
 Frequencies --    169.6843               359.7931               387.0266
 Red. masses --     12.3933                12.5415                12.0545
 Frc consts  --      0.2102                 0.9565                 1.0638
 IR Inten    --    220.3708                 1.6895                 5.2209

                      4                      5                      6
                     A1                     B2                     A1
 Frequencies --    737.8089               921.7133              1188.9543
 Red. masses --     12.8369                12.6354                12.4130
 Frc consts  --      4.1172                 6.3245                10.3385
 IR Inten    --     59.6859                 9.3653                14.9755

 - Thermochemistry -
 -------------------
 Temperature   298.150 Kelvin.  Pressure   1.00000 Atm.
 Atom     1 has atomic number  6 and mass  12.00000

 Molecular mass:    50.00307 amu.
 Principal axes and moments of inertia in atomic units:
                           1         2         3
     Eigenvalues --    64.84785 120.15083 184.99868
           X           -0.00000   0.00000   1.00000
           Y            1.00000   0.00000   0.00000
           Z            0.00000   1.00000   0.00000
 This molecule is an asymmetric top.
 Rotational symmetry number  2.
 Rotational temperatures (Kelvin)      1.33565     0.72088     0.46819
 Rotational constants (GHZ):          27.83039    15.02063     9.75543
 Zero-point vibrational energy      22519.6 (Joules/Mol)
                                    5.38231 (Kcal/Mol)
 Warning -- explicit consideration of   3 degrees of freedom as
           vibrations may cause significant error
 Vibrational temperatures:    244.14   517.66   556.84  1061.54  1326.14
          (Kelvin)           1710.64

 Zero-point correction=                           0.008577 (Hartree/Particle)
 Thermal correction to Energy=                    0.012858
 Thermal correction to Enthalpy=                  0.013802
 Thermal correction to Gibbs Free Energy=        -0.016870
 Sum of electronic and zero-point Energies=           -167.685030
 Sum of electronic and thermal Energies=              -167.680750
 Sum of electronic and thermal Enthalpies=            -167.679805
 Sum of electronic and thermal Free Energies=         -167.710477

                     E (Thermal)             CV                S
                      KCal/Mol        Cal/Mol-Kelvin    Cal/Mol-Kelvin
 Total                    8.069             12.336             64.555
 Electronic               0.000              0.000              1.377
 Translational            0.889              2.981             37.652
 Rotational               0.889              2.981             20.516
 Vibrational              6.291              6.375              5.009
 Vibration     1          0.625              1.880              2.439
 Vibration     2          0.734              1.555              1.123
 Vibration     3          0.755              1.498              1.012

 Optimization completed.
    -- Stationary point found.
 Normal termination of Gaussian 09 at Tue Aug 16 17:46:50 2016.
