 Gaussian 09, Revision E.01,
 Gaussian 09:  EM64L-G09RevE.01 30-Nov-2015

 ---------------------------------------------
 #p b3lyp/6-311++G(3df,2p) freq symmetry=Loose
 ---------------------------------------------

 ---------
 b3lyp opt
 ---------
 Symbolic Z-matrix:
 Charge =  2 Multiplicity = 4

                         Standard orientation:
 ---------------------------------------------------------------------
 Center     Atomic      Atomic             Coordinates (Angstroms)
 Number     Number       Type             X           Y           Z
 ---------------------------------------------------------------------
      1          6           0       -0.000000    0.000000    0.266374
      2          6           0        0.000000   -0.654323   -1.041669
      3          6           0        0.000000    0.654323   -1.041669
      4          7           0       -0.000000    0.000000    1.557397
 ---------------------------------------------------------------------

 SCF Done:  E(UB3LYP) =  -167.718427659     A.U. after   13 cycles

 The electronic state is 4-A2.
 Alpha  occ. eigenvalues --  -15.06746 -10.96303 -10.96195 -10.93382  -1.61261
 Alpha  occ. eigenvalues --   -1.54459  -1.14582  -1.13638  -1.05582  -1.02023
 Alpha  occ. eigenvalues --   -0.97652  -0.96964  -0.94560
 Alpha virt. eigenvalues --   -0.76327  -0.64160  -0.60679  -0.45664  -0.41132
 Alpha virt. eigenvalues --   -0.34916  -0.30576  -0.29988  -0.29802  -0.26396
 Alpha virt. eigenvalues --   -0.22704  -0.22077  -0.21879  -0.21728  -0.18032

  Beta  occ. eigenvalues --  -15.03966 -10.94155 -10.94067 -10.93660  -1.58564
  Beta  occ. eigenvalues --   -1.47724  -1.11038  -1.08451  -1.01070  -0.97553
  Beta virt. eigenvalues --   -0.79925  -0.78780  -0.77887  -0.67394  -0.57550
  Beta virt. eigenvalues --   -0.55582  -0.43311  -0.37001  -0.34040  -0.29540
  Beta virt. eigenvalues --   -0.29502  -0.28973  -0.25709  -0.22147  -0.21335

 Mulliken charges and spin densities:
               1          2
     1  C    0.507268  -0.379857
     2  C    0.784388   1.021059
     3  C    0.784388   1.021059
     4  N   -0.076044   1.337740
 Sum of Mulliken charges =   2.00000   3.00000

 Dipole moment (field-independent basis, Debye):
    X=              0.0000    Y=             -0.0000    Z=             -2.6072  Tot=              2.6072
 Quadrupole moment (field-independent basis, Debye-Ang):
   XX=            -16.3182   YY=            -12.2958   ZZ=             -4.0177
   XY=              0.0000   XZ=             -0.0000   YZ=             -0.0000

  Exact polarizability:  16.293   0.000  22.667   0.000  -0.000  42.063
 Approx polarizability:  22.975   0.000  45.108  -0.000   0.000  99.260

                      1                      2                      3
                     B2                     B1                     B2
 Frequencies --    199.3545               381.9587               431.3968
 Red. masses --     12.2534                12.2845                12.1705
 Frc consts  --      0.2869                 1.0559                 1.3345
 IR Inten    --      1.5464                 1.8683                27.2060

                      4                      5                      6
                     A1                     A1                     A1
 Frequencies --    845.6576              1407.4584              1611.8928
 Red. masses --     12.8504                12.4583                12.0002
 Frc consts  --      5.4145                14.5405                18.3702
 IR Inten    --      0.2712                87.2045                 8.1955

 - Thermochemistry -
 -------------------
 Temperature   298.150 Kelvin.  Pressure   1.00000 Atm.
 Atom     1 has atomic number  6 and mass  12.00000

 Molecular mass:    50.00307 amu.
 Principal axes and moments of inertia in atomic units:
                           1         2         3
     Eigenvalues --    36.69380 217.32605 254.01985
           X            0.00000   0.00000   1.00000
           Y            0.00000   1.00000  -0.00000
           Z            1.00000   0.00000   0.00000
 This molecule is an asymmetric top.
 Rotational symmetry number  2.
 Rotational temperatures (Kelvin)      2.36045     0.39854     0.34097
 Rotational constants (GHZ):          49.18381     8.30430     7.10472
 Zero-point vibrational energy      29175.2 (Joules/Mol)
                                    6.97305 (Kcal/Mol)
 Warning -- explicit consideration of   3 degrees of freedom as
           vibrations may cause significant error
 Vibrational temperatures:    286.83   549.55   620.68  1216.71  2025.02
          (Kelvin)           2319.15

 Zero-point correction=                           0.011112 (Hartree/Particle)
 Thermal correction to Energy=                    0.015190
 Thermal correction to Enthalpy=                  0.016135
 Thermal correction to Gibbs Free Energy=        -0.014979
 Sum of electronic and zero-point Energies=           -167.707315
 Sum of electronic and thermal Energies=              -167.703237
 Sum of electronic and thermal Enthalpies=            -167.702293
 Sum of electronic and thermal Free Energies=         -167.733406

                     E (Thermal)             CV                S
                      KCal/Mol        Cal/Mol-Kelvin    Cal/Mol-Kelvin
 Total                    9.532             11.445             65.483
 Electronic               0.000              0.000              2.755
 Translational            0.889              2.981             37.652
 Rotational               0.889              2.981             20.854
 Vibrational              7.755              5.483              4.222
 Vibration     1          0.637              1.841              2.139
 Vibration     2          0.751              1.509              1.031
 Vibration     3          0.792              1.402              0.854

 Optimization completed.
    -- Stationary point found.
 Normal termination of Gaussian 09 at Tue Aug 16 17:46:47 2016.
