 Gaussian 09, Revision E.01,
 Gaussian 09:  EM64L-G09RevE.01 30-Nov-2015

 ---------------------------------------------
 #p b3lyp/6-311++G(3df,2p) freq symmetry=Loose
 ---------------------------------------------

 ---------
 b3lyp opt
 ---------
 Symbolic Z-matrix:
 Charge =  1 Multiplicity = 1

                         Standard orientation:
 ---------------------------------------------------------------------
 Center     Atomic      Atomic             Coordinates (Angstroms)
 Number     Number       Type             X           Y           Z
 ---------------------------------------------------------------------
      1          6           0        0.000268    0.009926   -0.788619
      2          6           0        0.000268   -1.295737   -0.000000
      3          6           0        0.000268    0.009926    0.788619
      4          7           0       -0.000690    1.093619    0.000000
 ---------------------------------------------------------------------

 SCF Done:  E(RB3LYP) =  -168.412195751     A.U. after   10 cycles

 The electronic state is 1-A'.
 Alpha  occ. eigenvalues --  -14.77360 -10.63940 -10.63907 -10.63902  -1.43909
 Alpha  occ. eigenvalues --   -1.12238  -0.93048  -0.79465  -0.77638  -0.77130
 Alpha  occ. eigenvalues --   -0.62287  -0.61769
 Alpha virt. eigenvalues --   -0.50849  -0.41357  -0.38495  -0.29137  -0.17020
 Alpha virt. eigenvalues --   -0.15418  -0.12816  -0.12210  -0.09565  -0.07878
 Alpha virt. eigenvalues --   -0.07694  -0.05751  -0.05525  -0.05484  -0.04364

 Mulliken charges:
               1
     1  C    0.337639
     2  C    0.407473
     3  C    0.337639
     4  N   -0.082751
 Sum of Mulliken charges =   1.00000

 Dipole moment (field-independent basis, Debye):
    X=              0.0023    Y=             -0.2144    Z=              0.0000  Tot=              0.2144
 Quadrupole moment (field-independent basis, Debye-Ang):
   XX=            -17.4685   YY=            -19.5862   ZZ=            -18.4946
   XY=             -0.0007   XZ=              0.0000   YZ=              0.0000

  Exact polarizability:  22.026  -0.009  31.296   0.000  -0.000  32.246
 Approx polarizability:  35.856  -0.021  59.652  -0.000  -0.000  83.488

                      1                      2                      3
                     A'                     A"                     A'
 Frequencies --    141.9256               418.1073               878.1164
 Red. masses --     12.4749                12.2291                12.3874
 Frc consts  --      0.1480                 1.2596                 5.6278
 IR Inten    --     61.6602                37.1333                28.8154

                      4                      5                      6
                     A"                     A'                     A'
 Frequencies --    996.1916              1070.9535              1507.9617
 Red. masses --     12.4744                12.0015                12.9253
 Frc consts  --      7.2938                 8.1101                17.3169
 IR Inten    --      0.0470               123.0636                45.5278

 - Thermochemistry -
 -------------------
 Temperature   298.150 Kelvin.  Pressure   1.00000 Atm.
 Atom     1 has atomic number  6 and mass  12.00000

 Molecular mass:    50.00307 amu.
 Principal axes and moments of inertia in atomic units:
                           1         2         3
     Eigenvalues --    53.30202 131.76270 185.06470
           X           -0.00040   0.00000   1.00000
           Y            1.00000   0.00000   0.00040
           Z           -0.00000   1.00000  -0.00000
 This molecule is an asymmetric top.
 Rotational symmetry number  1.
 Rotational temperatures (Kelvin)      1.62496     0.65735     0.46802
 Rotational constants (GHZ):          33.85877    13.69691     9.75195
 Zero-point vibrational energy      29985.9 (Joules/Mol)
                                    7.16681 (Kcal/Mol)
 Warning -- explicit consideration of   2 degrees of freedom as
           vibrations may cause significant error
 Vibrational temperatures:    204.20   601.56  1263.41  1433.30  1540.86
          (Kelvin)           2169.62

 Zero-point correction=                           0.011421 (Hartree/Particle)
 Thermal correction to Energy=                    0.015332
 Thermal correction to Enthalpy=                  0.016276
 Thermal correction to Gibbs Free Energy=        -0.013870
 Sum of electronic and zero-point Energies=           -168.400775
 Sum of electronic and thermal Energies=              -168.396864
 Sum of electronic and thermal Enthalpies=            -168.395920
 Sum of electronic and thermal Free Energies=         -168.426066

                     E (Thermal)             CV                S
                      KCal/Mol        Cal/Mol-Kelvin    Cal/Mol-Kelvin
 Total                    9.621             10.594             63.448
 Electronic               0.000              0.000              0.000
 Translational            0.889              2.981             37.652
 Rotational               0.889              2.981             21.791
 Vibrational              7.843              4.633              4.005
 Vibration     1          0.615              1.911              2.778
 Vibration     2          0.781              1.431              0.898

 Optimization completed.
    -- Stationary point found.
 Normal termination of Gaussian 09 at Tue Aug 16 17:43:58 2016.
