 Gaussian 09, Revision E.01,
 Gaussian 09:  EM64L-G09RevE.01 30-Nov-2015

 ---------------------------------------------
 #p b3lyp/6-311++G(3df,2p) freq symmetry=Loose
 ---------------------------------------------

 ---------
 b3lyp opt
 ---------
 Symbolic Z-matrix:
 Charge =  1 Multiplicity = 1

                         Standard orientation:
 ---------------------------------------------------------------------
 Center     Atomic      Atomic             Coordinates (Angstroms)
 Number     Number       Type             X           Y           Z
 ---------------------------------------------------------------------
      1          6           0        0.000000    0.791223   -0.390213
      2          6           0       -0.685219   -0.395611   -0.390213
      3          6           0        0.685219   -0.395611   -0.390213
      4          7           0       -0.000000    0.000000    1.003406
 ---------------------------------------------------------------------

 SCF Done:  E(RB3LYP) =  -168.190558610     A.U. after   12 cycles

 The electronic state is 1-A1.
 Alpha  occ. eigenvalues --  -14.72039 -10.63585 -10.63492 -10.63492  -1.41616
 Alpha  occ. eigenvalues --   -1.03303  -0.88400  -0.88400  -0.72083  -0.65402
 Alpha  occ. eigenvalues --   -0.60775  -0.60775
 Alpha virt. eigenvalues --   -0.52575  -0.52575  -0.26383  -0.23395  -0.23395
 Alpha virt. eigenvalues --   -0.13760  -0.13672  -0.13672  -0.12622  -0.08705
 Alpha virt. eigenvalues --   -0.06689  -0.06689  -0.05975  -0.05975  -0.05074

 Mulliken charges:
               1
     1  C    0.383195
     2  C    0.383195
     3  C    0.383195
     4  N   -0.149585
 Sum of Mulliken charges =   1.00000

 Dipole moment (field-independent basis, Debye):
    X=             -0.0000    Y=             -0.0000    Z=             -2.6788  Tot=              2.6788
 Quadrupole moment (field-independent basis, Debye-Ang):
   XX=            -16.3766   YY=            -16.3766   ZZ=            -17.8503
   XY=             -0.0000   XZ=              0.0000   YZ=             -0.0000

  Exact polarizability:  30.082   0.000  30.083  -0.000  -0.000  26.437
 Approx polarizability:  73.357  -0.000  73.357   0.000   0.000  63.850

                      1                      2                      3
                      E                      E                     A1
 Frequencies --    544.1215               544.1254               740.6448
 Red. masses --     12.4670                12.4670                13.3617
 Frc consts  --      2.1747                 2.1748                 4.3185
 IR Inten    --      2.1877                 2.1877                 1.2159

                      4                      5                      6
                      E                      E                     A1
 Frequencies --    966.5494               966.5495              1591.6227
 Red. masses --     12.0019                12.0019                12.0129
 Frc consts  --      6.6062                 6.6062                17.9299
 IR Inten    --     96.8192                96.8084                 9.9315

 - Thermochemistry -
 -------------------
 Temperature   298.150 Kelvin.  Pressure   1.00000 Atm.
 Atom     1 has atomic number  6 and mass  12.00000

 Molecular mass:    50.00307 amu.
 Principal axes and moments of inertia in atomic units:
                           1         2         3
     Eigenvalues --    80.48186 110.16315 110.16315
           X           -0.00000   0.98560   0.16909
           Y            0.00000  -0.16909   0.98560
           Z            1.00000   0.00000  -0.00000
 This molecule is a prolate symmetric top.
 Rotational symmetry number  3.
 Rotational temperatures (Kelvin)      1.07619     0.78623     0.78623
 Rotational constants (GHZ):          22.42420    16.38244    16.38244
 Zero-point vibrational energy      32021.7 (Joules/Mol)
                                    7.65337 (Kcal/Mol)
 Warning -- explicit consideration of   2 degrees of freedom as
           vibrations may cause significant error
 Vibrational temperatures:    782.87   782.87  1065.62  1390.65  1390.65
          (Kelvin)           2289.99

 Zero-point correction=                           0.012196 (Hartree/Particle)
 Thermal correction to Energy=                    0.015600
 Thermal correction to Enthalpy=                  0.016545
 Thermal correction to Gibbs Free Energy=        -0.011285
 Sum of electronic and zero-point Energies=           -168.178362
 Sum of electronic and thermal Energies=              -168.174958
 Sum of electronic and thermal Enthalpies=            -168.174014
 Sum of electronic and thermal Free Energies=         -168.201843

                     E (Thermal)             CV                S
                      KCal/Mol        Cal/Mol-Kelvin    Cal/Mol-Kelvin
 Total                    9.789              9.905             58.572
 Electronic               0.000              0.000              0.000
 Translational            0.889              2.981             37.652
 Rotational               0.889              2.981             19.323
 Vibrational              8.012              3.943              1.596
 Vibration     1          0.899              1.153              0.556
 Vibration     2          0.899              1.153              0.556

 Optimization completed.
    -- Stationary point found.
 Normal termination of Gaussian 09 at Tue Aug 16 17:42:23 2016.
