 Gaussian 09, Revision E.01,
 Gaussian 09:  EM64L-G09RevE.01 30-Nov-2015

 ---------------------------------------------
 #p b3lyp/6-311++G(3df,2p) freq symmetry=Loose
 ---------------------------------------------

 ---------
 b3lyp opt
 ---------
 Symbolic Z-matrix:
 Charge =  1 Multiplicity = 1

                         Standard orientation:
 ---------------------------------------------------------------------
 Center     Atomic      Atomic             Coordinates (Angstroms)
 Number     Number       Type             X           Y           Z
 ---------------------------------------------------------------------
      1          6           0        0.000000    0.614236    0.000000
      2          6           0        0.244061    1.957874    0.000000
      3          6           0       -0.176066   -1.850101    0.000000
      4          7           0       -0.058282   -0.618865    0.000000
 ---------------------------------------------------------------------

 SCF Done:  E(RB3LYP) =  -168.432960844     A.U. after   12 cycles

 The electronic state is 1-A'.
 Alpha  occ. eigenvalues --  -14.72478 -10.61398 -10.60323 -10.59413  -1.33201
 Alpha  occ. eigenvalues --   -1.12992  -1.03808  -0.76235  -0.76227  -0.63452
 Alpha  occ. eigenvalues --   -0.61201  -0.57967
 Alpha virt. eigenvalues --   -0.52458  -0.36511  -0.36163  -0.21862  -0.20705
 Alpha virt. eigenvalues --   -0.18363  -0.12914  -0.11597  -0.11207  -0.07505
 Alpha virt. eigenvalues --   -0.06745  -0.05536  -0.05339  -0.04312  -0.01332

 Mulliken charges:
               1
     1  C    1.111126
     2  C   -0.068414
     3  C    0.384324
     4  N   -0.427036
 Sum of Mulliken charges =   1.00000

 Dipole moment (field-independent basis, Debye):
    X=             -0.2395    Y=              0.2304    Z=              0.0000  Tot=              0.3323
 Quadrupole moment (field-independent basis, Debye-Ang):
   XX=            -17.2804   YY=            -14.9686   ZZ=            -20.3043
   XY=             -0.4265   XZ=              0.0000   YZ=              0.0000

  Exact polarizability:  23.159   3.720  67.178  -0.000   0.000  31.022
 Approx polarizability:  36.778   9.422 148.955  -0.000  -0.000  32.004

                      1                      2                      3
                     A'                     A'                     A"
 Frequencies --     81.8713               160.6383               247.8314
 Red. masses --     12.0094                13.2508                13.2437
 Frc consts  --      0.0474                 0.2015                 0.4793
 IR Inten    --     40.5101                 2.2441                11.5324

                      4                      5                      6
                     A'                     A'                     A'
 Frequencies --    931.5794              1570.0864              2063.7856
 Red. masses --     12.1763                12.2448                12.8817
 Frc consts  --      6.2259                17.7847                32.3261
 IR Inten    --     27.4188               487.7304               156.3273

 - Thermochemistry -
 -------------------
 Temperature   298.150 Kelvin.  Pressure   1.00000 Atm.
 Atom     1 has atomic number  6 and mass  12.00000

 Molecular mass:    50.00307 amu.
 Principal axes and moments of inertia in atomic units:
                           1         2         3
     Eigenvalues --     0.25531 350.06118 350.31649
           X            0.10416   0.99456   0.00000
           Y            0.99456  -0.10416   0.00000
           Z            0.00000  -0.00000   1.00000
 This molecule is an asymmetric top.
 Rotational symmetry number  1.
 Rotational temperatures (Kelvin)    339.25279     0.24742     0.24724
 Rotational constants (GHZ):        7068.88963     5.15550     5.15175
 Zero-point vibrational energy      30240.4 (Joules/Mol)
                                    7.22762 (Kcal/Mol)
 Warning -- explicit consideration of   3 degrees of freedom as
           vibrations may cause significant error
 Vibrational temperatures:    117.79   231.12   356.57  1340.33  2259.00
          (Kelvin)           2969.32

 Zero-point correction=                           0.011518 (Hartree/Particle)
 Thermal correction to Energy=                    0.016287
 Thermal correction to Enthalpy=                  0.017231
 Thermal correction to Gibbs Free Energy=        -0.013181
 Sum of electronic and zero-point Energies=           -168.421443
 Sum of electronic and thermal Energies=              -168.416674
 Sum of electronic and thermal Enthalpies=            -168.415730
 Sum of electronic and thermal Free Energies=         -168.446141

                     E (Thermal)             CV                S
                      KCal/Mol        Cal/Mol-Kelvin    Cal/Mol-Kelvin
 Total                   10.220             12.106             64.007
 Electronic               0.000              0.000              0.000
 Translational            0.889              2.981             37.652
 Rotational               0.889              2.981             18.088
 Vibrational              8.443              6.145              8.267
 Vibration     1          0.600              1.962              3.846
 Vibration     2          0.622              1.891              2.542
 Vibration     3          0.661              1.766              1.746

 Normal termination of Gaussian 09 at Tue Aug 16 17:45:35 2016.
