 Gaussian 09, Revision E.01,
 Gaussian 09:  EM64L-G09RevE.01 30-Nov-2015

 ---------------------------------------------
 #p b3lyp/6-311++G(3df,2p) freq symmetry=Loose
 ---------------------------------------------

 ---------
 b3lyp opt
 ---------
 Symbolic Z-matrix:
 Charge =  2 Multiplicity = 4

                         Standard orientation:
 ---------------------------------------------------------------------
 Center     Atomic      Atomic             Coordinates (Angstroms)
 Number     Number       Type             X           Y           Z
 ---------------------------------------------------------------------
      1          7           0       -0.000000    1.064095    0.000000
      2          6           0       -0.780870   -0.012909   -0.000000
      3          6           0       -0.000348   -1.214167   -0.000000
      4          6           0        0.781218   -0.014367    0.000000
 ---------------------------------------------------------------------

 SCF Done:  E(UB3LYP) =  -167.697360619     A.U. after   15 cycles

 The electronic state is 4-A".
 Alpha  occ. eigenvalues --  -15.07298 -11.01124 -11.01100 -10.96556  -1.76620
 Alpha  occ. eigenvalues --   -1.46398  -1.26005  -1.12615  -1.11449  -1.10283
 Alpha  occ. eigenvalues --   -0.98004  -0.97554  -0.90917
 Alpha virt. eigenvalues --   -0.72993  -0.72107  -0.61103  -0.39589  -0.38074
 Alpha virt. eigenvalues --   -0.35196  -0.31103  -0.30777  -0.29344  -0.27031
 Alpha virt. eigenvalues --   -0.25807  -0.25084  -0.24310  -0.22389  -0.22335

  Beta  occ. eigenvalues --  -15.05265 -11.00055 -11.00039 -10.93339  -1.74427
  Beta  occ. eigenvalues --   -1.41577  -1.22100  -1.09074  -1.07552  -1.01474
  Beta virt. eigenvalues --   -0.83038  -0.76273  -0.74402  -0.71006  -0.64252
  Beta virt. eigenvalues --   -0.51389  -0.37516  -0.37270  -0.32395  -0.30634
  Beta virt. eigenvalues --   -0.27916  -0.27367  -0.24674  -0.24560  -0.23099

 Mulliken charges and spin densities:
               1          2
     1  N   -0.010220   0.686426
     2  C    0.676700   0.443963
     3  C    0.657002   1.422240
     4  C    0.676517   0.447371
 Sum of Mulliken charges =   2.00000   3.00000

 Dipole moment (field-independent basis, Debye):
    X=             -0.0010    Y=             -1.7539    Z=             -0.0000  Tot=              1.7539
 Quadrupole moment (field-independent basis, Debye-Ang):
   XX=            -10.6792   YY=            -10.0016   ZZ=            -16.0684
   XY=             -0.0043   XZ=              0.0000   YZ=             -0.0000

  Exact polarizability:  24.204  -0.004  30.654   0.000  -0.000  14.079
 Approx polarizability:  57.652  -0.001  69.899   0.000   0.000  21.110

                      1                      2                      3
                     A'                     A"                     A'
 Frequencies --    290.9976               571.2323               743.7796
 Red. masses --     12.2256                12.4403                12.4673
 Frc consts  --      0.6100                 2.3917                 4.0636
 IR Inten    --      0.0414                 7.3837                 0.9723

                      4                      5                      6
                     A'                     A'                     A'
 Frequencies --    865.1351              1214.6918              1379.7428
 Red. masses --     12.6281                12.0459                12.6241
 Frc consts  --      5.5687                10.4718                14.1594
 IR Inten    --     26.9910                19.2529                 6.6092

 - Thermochemistry -
 -------------------
 Temperature   298.150 Kelvin.  Pressure   1.00000 Atm.
 Atom     1 has atomic number  7 and mass  14.00307

 Molecular mass:    50.00307 amu.
 Principal axes and moments of inertia in atomic units:
                           1         2         3
     Eigenvalues --    52.28292 119.81121 172.09413
           X           -0.00046   1.00000  -0.00000
           Y            1.00000   0.00046  -0.00000
           Z            0.00000   0.00000   1.00000
 This molecule is an asymmetric top.
 Rotational symmetry number  1.
 Rotational temperatures (Kelvin)      1.65664     0.72292     0.50329
 Rotational constants (GHZ):          34.51875    15.06321    10.48694
 Zero-point vibrational energy      30298.9 (Joules/Mol)
                                    7.24161 (Kcal/Mol)
 Warning -- explicit consideration of   2 degrees of freedom as
           vibrations may cause significant error
 Vibrational temperatures:    418.68   821.87  1070.13  1244.73  1747.67
          (Kelvin)           1985.14

 Zero-point correction=                           0.011540 (Hartree/Particle)
 Thermal correction to Energy=                    0.015163
 Thermal correction to Enthalpy=                  0.016107
 Thermal correction to Gibbs Free Energy=        -0.014520
 Sum of electronic and zero-point Energies=           -167.685820
 Sum of electronic and thermal Energies=              -167.682198
 Sum of electronic and thermal Enthalpies=            -167.681254
 Sum of electronic and thermal Free Energies=         -167.711880

                     E (Thermal)             CV                S
                      KCal/Mol        Cal/Mol-Kelvin    Cal/Mol-Kelvin
 Total                    9.515             10.352             64.459
 Electronic               0.000              0.000              2.755
 Translational            0.889              2.981             37.652
 Rotational               0.889              2.981             21.605
 Vibrational              7.737              4.390              2.447
 Vibration     1          0.687              1.690              1.468
 Vibration     2          0.927              1.093              0.502

 Optimization completed.
    -- Stationary point found.
 Normal termination of Gaussian 09 at Tue Aug 16 17:49:45 2016.
