 Gaussian 09, Revision E.01,
 Gaussian 09:  EM64L-G09RevE.01 30-Nov-2015

 ---------------------------------------------
 #p b3lyp/6-311++G(3df,2p) freq symmetry=Loose
 ---------------------------------------------

 ---------
 b3lyp opt
 ---------
 Symbolic Z-matrix:
 Charge =  1 Multiplicity = 1

                         Standard orientation:
 ---------------------------------------------------------------------
 Center     Atomic      Atomic             Coordinates (Angstroms)
 Number     Number       Type             X           Y           Z
 ---------------------------------------------------------------------
      1          6           0       -0.022855   -1.269264    0.000000
      2          6           0       -0.760483    0.006053    0.000000
      3          6           0        0.000000    1.269355   -0.000000
      4          7           0        0.671432   -0.005266   -0.000000
 ---------------------------------------------------------------------

 SCF Done:  E(RB3LYP) =  -168.395250224     A.U. after   11 cycles

 The electronic state is 1-A'.
 Alpha  occ. eigenvalues --  -14.78911 -10.64245 -10.64239 -10.63977  -1.45799
 Alpha  occ. eigenvalues --   -1.11011  -0.95173  -0.80638  -0.75754  -0.74599
 Alpha  occ. eigenvalues --   -0.64385  -0.60709
 Alpha virt. eigenvalues --   -0.47130  -0.44298  -0.35325  -0.30177  -0.18608
 Alpha virt. eigenvalues --   -0.16668  -0.12364  -0.12007  -0.11904  -0.10390
 Alpha virt. eigenvalues --   -0.08588  -0.05869  -0.05035  -0.04949  -0.03683

 Mulliken charges:
               1
     1  C    0.233416
     2  C    0.537564
     3  C    0.233847
     4  N   -0.004827
 Sum of Mulliken charges =   1.00000

 Dipole moment (field-independent basis, Debye):
    X=             -0.6437    Y=              0.0036    Z=              0.0000  Tot=              0.6437
 Quadrupole moment (field-independent basis, Debye-Ang):
   XX=            -18.7823   YY=            -19.3404   ZZ=            -17.5595
   XY=              0.0050   XZ=              0.0000   YZ=              0.0000

  Exact polarizability:  26.708   0.085  34.519  -0.000   0.000  22.149
 Approx polarizability:  61.467   0.071  60.831  -0.000  -0.000  37.760

                      1                      2                      3
                     A"                     A'                     A'
 Frequencies --    292.7314               391.2114               754.9732
 Red. masses --     12.4336                12.2574                12.9910
 Frc consts  --      0.6277                 1.1053                 4.3627
 IR Inten    --     20.3549                22.2584                84.1858

                      4                      5                      6
                     A'                     A'                     A'
 Frequencies --    840.9383              1239.9488              1246.1348
 Red. masses --     12.4552                12.5686                12.1153
 Frc consts  --      5.1895                11.3853                11.0845
 IR Inten    --     11.6603                 7.8203               364.0867

 - Thermochemistry -
 -------------------
 Temperature   298.150 Kelvin.  Pressure   1.00000 Atm.
 Atom     1 has atomic number  6 and mass  12.00000

 Molecular mass:    50.00307 amu.
 Principal axes and moments of inertia in atomic units:
                           1         2         3
     Eigenvalues --    47.34101 138.09544 185.43645
           X            0.00958   0.99995   0.00000
           Y            0.99995  -0.00958   0.00000
           Z           -0.00000  -0.00000   1.00000
 This molecule is an asymmetric top.
 Rotational symmetry number  1.
 Rotational temperatures (Kelvin)      1.82957     0.62720     0.46708
 Rotational constants (GHZ):          38.12215    13.06880     9.73240
 Zero-point vibrational energy      28506.6 (Joules/Mol)
                                    6.81325 (Kcal/Mol)
 Warning -- explicit consideration of   2 degrees of freedom as
           vibrations may cause significant error
 Vibrational temperatures:    421.17   562.87  1086.24  1209.92  1784.01
          (Kelvin)           1792.91

 Zero-point correction=                           0.010858 (Hartree/Particle)
 Thermal correction to Energy=                    0.014625
 Thermal correction to Enthalpy=                  0.015570
 Thermal correction to Gibbs Free Energy=        -0.014041
 Sum of electronic and zero-point Energies=           -168.384393
 Sum of electronic and thermal Energies=              -168.380625
 Sum of electronic and thermal Enthalpies=            -168.379681
 Sum of electronic and thermal Free Energies=         -168.409291

                     E (Thermal)             CV                S
                      KCal/Mol        Cal/Mol-Kelvin    Cal/Mol-Kelvin
 Total                    9.178             10.808             62.320
 Electronic               0.000              0.000              0.000
 Translational            0.889              2.981             37.652
 Rotational               0.889              2.981             21.721
 Vibrational              7.400              4.846              2.947
 Vibration     1          0.688              1.687              1.458
 Vibration     2          0.759              1.489              0.996

 Optimization completed.
    -- Stationary point found.
 Normal termination of Gaussian 09 at Tue Aug 16 17:46:50 2016.
