 Gaussian 09, Revision E.01,
 Gaussian 09:  EM64L-G09RevE.01 30-Nov-2015

 ---------------------------------------------
 #p b3lyp/6-311++G(3df,2p) freq symmetry=Loose
 ---------------------------------------------

 ---------
 b3lyp opt
 ---------
 Symbolic Z-matrix:
 Charge =  1 Multiplicity = 1

                         Standard orientation:
 ---------------------------------------------------------------------
 Center     Atomic      Atomic             Coordinates (Angstroms)
 Number     Number       Type             X           Y           Z
 ---------------------------------------------------------------------
      1          6           0       -0.779207   -0.478175    0.000000
      2          6           0        0.002695    2.068966   -0.000000
      3          6           0        0.780320   -0.478874    0.000000
      4          6           0       -0.000000    0.719224   -0.000000
      5          7           0       -0.003263   -1.569550    0.000000
 ---------------------------------------------------------------------

 SCF Done:  E(RB3LYP) =  -206.517068536     A.U. after   12 cycles

 The electronic state is 1-A'.
 Alpha  occ. eigenvalues --  -14.70095 -10.62606 -10.62570 -10.59159 -10.54573
 Alpha  occ. eigenvalues --   -1.40856  -1.13618  -1.00411  -0.89813  -0.77790
 Alpha  occ. eigenvalues --   -0.77461  -0.70476  -0.60190  -0.60035  -0.59707
 Alpha virt. eigenvalues --   -0.45061  -0.39031  -0.38720  -0.32371  -0.19697
 Alpha virt. eigenvalues --   -0.15698  -0.13628  -0.11898  -0.11100  -0.09002
 Alpha virt. eigenvalues --   -0.07585  -0.06984  -0.05737  -0.05524  -0.04884

 Mulliken charges:
               1
     1  C    0.185192
     2  C   -0.453806
     3  C    0.181435
     4  C    1.391689
     5  N   -0.304510
 Sum of Mulliken charges =   1.00000

 Dipole moment (field-independent basis, Debye):
    X=             -0.0111    Y=              1.0331    Z=             -0.0000  Tot=              1.0332
 Quadrupole moment (field-independent basis, Debye-Ang):
   XX=            -22.3087   YY=            -22.2644   ZZ=            -24.1803
   XY=              0.0034   XZ=             -0.0000   YZ=              0.0000

  Exact polarizability:  38.471   0.047  59.822  -0.000   0.000  24.986
 Approx polarizability:  96.861   0.154 131.784  -0.000  -0.000  38.931

                      1                      2                      3
                     A"                     A'                     A'
 Frequencies --    199.4400               200.8533               540.1213
 Red. masses --     12.3697                12.1610                12.3683
 Frc consts  --      0.2899                 0.2891                 2.1259
 IR Inten    --      5.0248                14.0092                73.9346

                      4                      5                      6
                     A"                     A'                     A'
 Frequencies --    637.2408               655.4655               794.7851
 Red. masses --     12.3747                12.2917                12.4530
 Frc consts  --      2.9607                 3.1114                 4.6347
 IR Inten    --     12.9785                 9.7116                16.6704

                      7                      8                      9
                     A'                     A'                     A'
 Frequencies --   1026.0636              1523.8068              1744.8690
 Red. masses --     12.0177                12.9431                12.0003
 Frc consts  --      7.4546                17.7071                21.5263
 IR Inten    --      0.4821                 0.1141               374.4153

 - Thermochemistry -
 -------------------
 Temperature   298.150 Kelvin.  Pressure   1.00000 Atm.
 Atom     1 has atomic number  6 and mass  12.00000

 Molecular mass:    62.00307 amu.
 Principal axes and moments of inertia in atomic units:
                           1         2         3
     Eigenvalues --    52.11180 348.41837 400.53016
           X            0.00151   1.00000   0.00000
           Y            1.00000  -0.00151   0.00000
           Z           -0.00000  -0.00000   1.00000
 This molecule is an asymmetric top.
 Rotational symmetry number  1.
 Rotational temperatures (Kelvin)      1.66208     0.24859     0.21625
 Rotational constants (GHZ):          34.63210     5.17981     4.50588
 Zero-point vibrational energy      43799.1 (Joules/Mol)
                                   10.46825 (Kcal/Mol)
 Warning -- explicit consideration of   3 degrees of freedom as
           vibrations may cause significant error
 Vibrational temperatures:    286.95   288.98   777.11   916.85   943.07
          (Kelvin)           1143.52  1476.27  2192.42  2510.47

 Zero-point correction=                           0.016682 (Hartree/Particle)
 Thermal correction to Energy=                    0.021224
 Thermal correction to Enthalpy=                  0.022168
 Thermal correction to Gibbs Free Energy=        -0.009992
 Sum of electronic and zero-point Energies=           -206.500386
 Sum of electronic and thermal Energies=              -206.495845
 Sum of electronic and thermal Enthalpies=            -206.494901
 Sum of electronic and thermal Free Energies=         -206.527061

                     E (Thermal)             CV                S
                      KCal/Mol        Cal/Mol-Kelvin    Cal/Mol-Kelvin
 Total                   13.318             13.782             67.687
 Electronic               0.000              0.000              0.000
 Translational            0.889              2.981             38.293
 Rotational               0.889              2.981             23.501
 Vibrational             11.541              7.820              5.892
 Vibration     1          0.638              1.841              2.138
 Vibration     2          0.638              1.839              2.125
 Vibration     3          0.895              1.161              0.565

 Normal termination of Gaussian 09 at Tue Aug 16 18:00:36 2016.
