 Gaussian 09, Revision E.01,
 Gaussian 09:  EM64L-G09RevE.01 30-Nov-2015

 ---------------------------------------------
 #p b3lyp/6-311++G(3df,2p) freq symmetry=Loose
 ---------------------------------------------

 ---------
 b3lyp opt
 ---------
 Symbolic Z-matrix:
 Charge =  1 Multiplicity = 3

                         Standard orientation:
 ---------------------------------------------------------------------
 Center     Atomic      Atomic             Coordinates (Angstroms)
 Number     Number       Type             X           Y           Z
 ---------------------------------------------------------------------
      1          6           0       -0.000000   -0.000000    2.440436
      2          6           0        0.000000    0.000000   -2.545724
      3          6           0        0.000000    0.000000   -1.297923
      4          6           0        0.000000    0.000000   -0.019553
      5          7           0       -0.000000   -0.000000    1.219512
 ---------------------------------------------------------------------

 SCF Done:  E(UB3LYP) =  -206.567559421     A.U. after   16 cycles

 Unable to determine electronic state:  an orbital has unidentified symmetry.
 Alpha  occ. eigenvalues --  -14.65868 -10.58166 -10.57899 -10.53133 -10.49622
 Alpha  occ. eigenvalues --   -1.27787  -1.11074  -1.05550  -0.96114  -0.72864
 Alpha  occ. eigenvalues --   -0.71720  -0.69576  -0.62616  -0.61260  -0.57947
 Alpha  occ. eigenvalues --   -0.49926
 Alpha virt. eigenvalues --   -0.42849  -0.27690  -0.26346  -0.16785  -0.13046
 Alpha virt. eigenvalues --   -0.12457  -0.11701  -0.10130  -0.09586  -0.08935
 Alpha virt. eigenvalues --   -0.06682  -0.06103  -0.06004  -0.03617  -0.01024

  Beta  occ. eigenvalues --  -14.66106 -10.57368 -10.54632 -10.52719 -10.49774
  Beta  occ. eigenvalues --   -1.27510  -1.09630  -1.03424  -0.93742  -0.71995
  Beta  occ. eigenvalues --   -0.70801  -0.59996  -0.59039  -0.57103
  Beta virt. eigenvalues --   -0.45437  -0.40116  -0.37903  -0.25011  -0.23686
  Beta virt. eigenvalues --   -0.16613  -0.12062  -0.11618  -0.10920  -0.08690
  Beta virt. eigenvalues --   -0.08314  -0.07514  -0.05746  -0.05574  -0.05423

 Mulliken charges and spin densities:
               1          2
     1  C    0.285897   0.235993
     2  C    0.262776   1.754440
     3  C    0.983435  -0.310026
     4  C    0.226659   0.423512
     5  N   -0.758767  -0.103919
 Sum of Mulliken charges =   1.00000   2.00000

 Dipole moment (field-independent basis, Debye):
    X=              0.0000    Y=             -0.0000    Z=             -3.2874  Tot=              3.2874
 Quadrupole moment (field-independent basis, Debye-Ang):
   XX=            -23.5122   YY=            -25.0108   ZZ=             -7.0456
   XY=             -0.0000   XZ=             -0.0000   YZ=              0.0000

  Exact polarizability:  25.833   0.000  26.093   0.000  -0.000 101.532
 Approx polarizability:  36.757   0.000  35.305  -0.000  -0.000 235.451

                      1                      2                      3
                     ?A                     ?A                     ?A
 Frequencies --    120.4636               133.6381               253.8461
 Red. masses --     12.0373                12.3072                12.6307
 Frc consts  --      0.1029                 0.1295                 0.4795
 IR Inten    --      0.0334                 0.1594                 1.7475

                      4                      5                      6
                     ?A                     ?A                     ?A
 Frequencies --    298.2102               343.0162               573.5251
 Red. masses --     12.6566                12.5015                12.2473
 Frc consts  --      0.6631                 0.8666                 2.3735
 IR Inten    --      0.4579                 1.0725                11.7042

                      7                      8                      9
                     SG                     SG                     SG
 Frequencies --    823.4629              1574.7252              1942.7012
 Red. masses --     12.2822                12.1654                12.6940
 Frc consts  --      4.9070                17.7740                28.2267
 IR Inten    --      0.7480               208.7415               807.4840

                     10
                     SG
 Frequencies --   1976.7605
 Red. masses --     12.2386
 Frc consts  --     28.1768
 IR Inten    --      9.8500

 - Thermochemistry -
 -------------------
 Temperature   298.150 Kelvin.  Pressure   1.00000 Atm.
 Atom     1 has atomic number  6 and mass  12.00000

 Molecular mass:    62.00307 amu.
 Principal axes and moments of inertia in atomic units:
                           1         2         3
     Eigenvalues --     0.00000 679.51142 679.51142
           X           -0.00000   0.76193  -0.64767
           Y           -0.00000   0.64767   0.76193
           Z            1.00000   0.00000  -0.00000
 This molecule is a prolate symmetric top.
 Rotational symmetry number  1.
 Warning -- assumption of classical behavior for rotation
           may cause significant error
 Rotational temperature (Kelvin)      0.12746
 Rotational constant (GHZ):           2.655939
 Zero-point vibrational energy      48092.0 (Joules/Mol)
                                   11.49426 (Kcal/Mol)
 Warning -- explicit consideration of   6 degrees of freedom as
           vibrations may cause significant error
 Vibrational temperatures:    173.32   192.28   365.23   429.06   493.52
          (Kelvin)            825.17  1184.78  2265.68  2795.11  2844.11

 Zero-point correction=                           0.018317 (Hartree/Particle)
 Thermal correction to Energy=                    0.023571
 Thermal correction to Enthalpy=                  0.024515
 Thermal correction to Gibbs Free Energy=        -0.008218
 Sum of electronic and zero-point Energies=           -206.549242
 Sum of electronic and thermal Energies=              -206.543989
 Sum of electronic and thermal Enthalpies=            -206.543044
 Sum of electronic and thermal Free Energies=         -206.575778

                     E (Thermal)             CV                S
                      KCal/Mol        Cal/Mol-Kelvin    Cal/Mol-Kelvin
 Total                   14.791             15.629             68.892
 Electronic               0.000              0.000              2.183
 Translational            0.889              2.981             38.293
 Rotational               0.592              1.987             17.403
 Vibrational             13.310             10.661             11.013
 Vibration     1          0.609              1.932              3.093
 Vibration     2          0.613              1.920              2.893
 Vibration     3          0.665              1.756              1.704
 Vibration     4          0.691              1.677              1.427
 Vibration     5          0.722              1.589              1.198
 Vibration     6          0.930              1.089              0.498

 Optimization completed.
    -- Stationary point found.
 Normal termination of Gaussian 09 at Tue Aug 16 18:01:47 2016.
