 Gaussian 09, Revision E.01,
 Gaussian 09:  EM64L-G09RevE.01 30-Nov-2015

 ---------------------------------------------
 #p b3lyp/6-311++G(3df,2p) freq symmetry=Loose
 ---------------------------------------------

 ---------
 b3lyp opt
 ---------
 Symbolic Z-matrix:
 Charge =  1 Multiplicity = 1

                         Standard orientation:
 ---------------------------------------------------------------------
 Center     Atomic      Atomic             Coordinates (Angstroms)
 Number     Number       Type             X           Y           Z
 ---------------------------------------------------------------------
      1          7           0        0.000000    0.000000   -0.000126
      2          6           0       -0.000000   -0.000000   -2.537651
      3          6           0       -0.000000   -0.000000   -1.209352
      4          6           0        0.000000    0.000000    2.537985
      5          6           0        0.000000    0.000000    1.209164
 ---------------------------------------------------------------------

 SCF Done:  E(RB3LYP) =  -206.536918934     A.U. after   12 cycles

 The electronic state is 1-SG.
 Alpha  occ. eigenvalues --  -14.75822 -10.55884 -10.55860 -10.53117 -10.53105
 Alpha  occ. eigenvalues --   -1.32856  -1.12216  -1.03039  -0.99653  -0.76519
 Alpha  occ. eigenvalues --   -0.76519  -0.58141  -0.57799  -0.57536  -0.57536
 Alpha virt. eigenvalues --   -0.44868  -0.44868  -0.26849  -0.26849  -0.19179
 Alpha virt. eigenvalues --   -0.13979  -0.13979  -0.12343  -0.11048  -0.11048
 Alpha virt. eigenvalues --   -0.07884  -0.05958  -0.05958  -0.05880  -0.04711

 Mulliken charges:
               1
     1  N   -0.974227
     2  C   -0.248360
     3  C    1.235467
     4  C   -0.246967
     5  C    1.234088
 Sum of Mulliken charges =   1.00000

 Dipole moment (field-independent basis, Debye):
    X=              0.0000    Y=              0.0000    Z=              0.0054  Tot=              0.0054
 Quadrupole moment (field-independent basis, Debye-Ang):
   XX=            -23.9887   YY=            -23.9887   ZZ=            -17.1306
   XY=              0.0000   XZ=              0.0000   YZ=             -0.0000

  Exact polarizability:  28.238   0.000  28.238   0.000   0.000 127.580
 Approx polarizability:  42.078   0.000  42.078   0.000   0.000 613.270

                      1                      2                      3
                     PI                     PI                     PI
 Frequencies --    112.0519               112.0519               217.8224
 Red. masses --     12.3257                12.3257                12.0000
 Frc consts  --      0.0912                 0.0912                 0.3355
 IR Inten    --      6.1314                 6.1314                 0.0004

                      4                      5                      6
                     PI                     PI                     PI
 Frequencies --    217.8224               552.1625               552.1625
 Red. masses --     12.0000                13.1048                13.1048
 Frc consts  --      0.3355                 2.3540                 2.3540
 IR Inten    --      0.0004                 0.3646                 0.3646

                      7                      8                      9
                     SG                     SG                     SG
 Frequencies --    820.7775              1341.1932              2007.2375
 Red. masses --     12.0000                12.4588                12.0000
 Frc consts  --      4.7630                13.2041                28.4859
 IR Inten    --      0.0011               863.1555                 0.0064

                     10
                     SG
 Frequencies --   2245.4922
 Red. masses --     12.9578
 Frc consts  --     38.4949
 IR Inten    --   2347.2934

 - Thermochemistry -
 -------------------
 Temperature   298.150 Kelvin.  Pressure   1.00000 Atm.
 Atom     1 has atomic number  7 and mass  14.00307

 Molecular mass:    62.00307 amu.
 Principal axes and moments of inertia in atomic units:
                           1         2         3
     Eigenvalues --     0.00000 677.31611 677.31611
           X            0.00000   0.65350   0.75693
           Y            0.00000   0.75693  -0.65350
           Z            1.00000  -0.00000  -0.00000
 This molecule is a prolate symmetric top.
 Rotational symmetry number  1.
 Warning -- assumption of classical behavior for rotation
           may cause significant error
 Rotational temperature (Kelvin)      0.12788
 Rotational constant (GHZ):           2.664548
 Zero-point vibrational energy      48919.9 (Joules/Mol)
                                   11.69214 (Kcal/Mol)
 Warning -- explicit consideration of   6 degrees of freedom as
           vibrations may cause significant error
 Vibrational temperatures:    161.22   161.22   313.40   313.40   794.44
          (Kelvin)            794.44  1180.91  1929.68  2887.96  3230.76

 Zero-point correction=                           0.018633 (Hartree/Particle)
 Thermal correction to Energy=                    0.023943
 Thermal correction to Enthalpy=                  0.024887
 Thermal correction to Gibbs Free Energy=        -0.007140
 Sum of electronic and zero-point Energies=           -206.518286
 Sum of electronic and thermal Energies=              -206.512976
 Sum of electronic and thermal Enthalpies=            -206.512032
 Sum of electronic and thermal Free Energies=         -206.544058

                     E (Thermal)             CV                S
                      KCal/Mol        Cal/Mol-Kelvin    Cal/Mol-Kelvin
 Total                   15.024             15.507             67.405
 Electronic               0.000              0.000              0.000
 Translational            0.889              2.981             38.293
 Rotational               0.592              1.987             17.397
 Vibrational             13.543             10.539             11.716
 Vibration     1          0.607              1.939              3.233
 Vibration     2          0.607              1.939              3.233
 Vibration     3          0.646              1.814              1.977
 Vibration     4          0.646              1.814              1.977
 Vibration     5          0.908              1.135              0.540
 Vibration     6          0.908              1.135              0.540

 Normal termination of Gaussian 09 at Tue Aug 16 17:54:23 2016.
