 Gaussian 09, Revision E.01,
 Gaussian 09:  EM64L-G09RevE.01 30-Nov-2015

 ---------------------------------------------
 #p b3lyp/6-311++G(3df,2p) freq symmetry=Loose
 ---------------------------------------------

 ---------
 b3lyp opt
 ---------
 Symbolic Z-matrix:
 Charge =  1 Multiplicity = 3

                         Standard orientation:
 ---------------------------------------------------------------------
 Center     Atomic      Atomic             Coordinates (Angstroms)
 Number     Number       Type             X           Y           Z
 ---------------------------------------------------------------------
      1          6           0        0.000000    0.678083   -1.524200
      2          6           0       -0.000000   -0.678083   -1.524200
      3          6           0        0.000000   -0.000000   -0.296750
      4          6           0       -0.000000    0.000000    2.189714
      5          7           0       -0.000000    0.000000    0.990374
 ---------------------------------------------------------------------

 SCF Done:  E(UB3LYP) =  -206.569828900     A.U. after   16 cycles

 The electronic state is 3-B2.
 Alpha  occ. eigenvalues --  -14.64135 -10.61137 -10.58822 -10.58749 -10.52122
 Alpha  occ. eigenvalues --   -1.29501  -1.23897  -1.03882  -0.84869  -0.78080
 Alpha  occ. eigenvalues --   -0.74248  -0.67914  -0.65324  -0.63671  -0.57110
 Alpha  occ. eigenvalues --   -0.56049
 Alpha virt. eigenvalues --   -0.36156  -0.32749  -0.26644  -0.18466  -0.16359
 Alpha virt. eigenvalues --   -0.13427  -0.12385  -0.11610  -0.09239  -0.08264
 Alpha virt. eigenvalues --   -0.07217  -0.06112  -0.05874  -0.05385  -0.04399

  Beta  occ. eigenvalues --  -14.64152 -10.60791 -10.57005 -10.56944 -10.51970
  Beta  occ. eigenvalues --   -1.28214  -1.22540  -1.03198  -0.79343  -0.73793
  Beta  occ. eigenvalues --   -0.73738  -0.64153  -0.62796  -0.56777
  Beta virt. eigenvalues --   -0.47392  -0.42166  -0.35320  -0.29133  -0.24754
  Beta virt. eigenvalues --   -0.18200  -0.15599  -0.12647  -0.11671  -0.11555
  Beta virt. eigenvalues --   -0.08594  -0.06667  -0.05602  -0.05315  -0.05298

 Mulliken charges and spin densities:
               1          2
     1  C    0.279141   0.996767
     2  C    0.279141   0.996767
     3  C    0.727619  -0.016268
     4  C    0.232768   0.074407
     5  N   -0.518669  -0.051673
 Sum of Mulliken charges =   1.00000   2.00000

 Dipole moment (field-independent basis, Debye):
    X=             -0.0000    Y=              0.0000    Z=             -2.8347  Tot=              2.8347
 Quadrupole moment (field-independent basis, Debye-Ang):
   XX=            -23.6589   YY=            -22.2893   ZZ=            -17.5060
   XY=             -0.0000   XZ=              0.0000   YZ=             -0.0000

  Exact polarizability:  26.255  -0.000  34.826  -0.000   0.000  70.851
 Approx polarizability:  39.296   0.000  64.013  -0.000   0.000 129.550

                      1                      2                      3
                     B1                     B2                     B2
 Frequencies --    156.9181               162.3976               482.0247
 Red. masses --     12.8746                12.6449                12.5670
 Frc consts  --      0.1868                 0.1965                 1.7204
 IR Inten    --      0.2417                 0.0948                 1.2254

                      4                      5                      6
                     B1                     A1                     B2
 Frequencies --    536.3176               789.4774              1094.0597
 Red. masses --     12.3389                12.2988                12.0060
 Frc consts  --      2.0911                 4.5164                 8.4670
 IR Inten    --      2.8710                 0.0452                38.7380

                      7                      8                      9
                     A1                     A1                     A1
 Frequencies --   1376.4486              1679.9797              2067.4011
 Red. masses --     12.0104                12.0093                13.1119
 Frc consts  --     13.4068                19.9700                33.0191
 IR Inten    --     28.2731                17.6593              1020.1421

 - Thermochemistry -
 -------------------
 Temperature   298.150 Kelvin.  Pressure   1.00000 Atm.
 Atom     1 has atomic number  6 and mass  12.00000

 Molecular mass:    62.00307 amu.
 Principal axes and moments of inertia in atomic units:
                           1         2         3
     Eigenvalues --    39.40714 457.40397 496.81111
           X           -0.00000  -0.00000   1.00000
           Y            0.00000   1.00000   0.00000
           Z            1.00000  -0.00000   0.00000
 This molecule is an asymmetric top.
 Rotational symmetry number  2.
 Rotational temperatures (Kelvin)      2.19792     0.18936     0.17434
 Rotational constants (GHZ):          45.79732     3.94562     3.63265
 Zero-point vibrational energy      49914.3 (Joules/Mol)
                                   11.92981 (Kcal/Mol)
 Warning -- explicit consideration of   4 degrees of freedom as
           vibrations may cause significant error
 Vibrational temperatures:    225.77   233.65   693.53   771.64  1135.88
          (Kelvin)           1574.11  1980.40  2417.11  2974.53

 Zero-point correction=                           0.019011 (Hartree/Particle)
 Thermal correction to Energy=                    0.023652
 Thermal correction to Enthalpy=                  0.024596
 Thermal correction to Gibbs Free Energy=        -0.008426
 Sum of electronic and zero-point Energies=           -206.550818
 Sum of electronic and thermal Energies=              -206.546177
 Sum of electronic and thermal Enthalpies=            -206.545233
 Sum of electronic and thermal Free Energies=         -206.578255

                     E (Thermal)             CV                S
                      KCal/Mol        Cal/Mol-Kelvin    Cal/Mol-Kelvin
 Total                   14.842             13.321             69.500
 Electronic               0.000              0.000              2.183
 Translational            0.889              2.981             38.293
 Rotational               0.889              2.981             22.331
 Vibrational             13.064              7.360              6.692
 Vibration     1          0.621              1.895              2.587
 Vibration     2          0.623              1.889              2.522
 Vibration     3          0.838              1.290              0.705
 Vibration     4          0.891              1.170              0.573

 Optimization completed.
    -- Stationary point found.
 Normal termination of Gaussian 09 at Tue Aug 16 18:00:57 2016.
