 Gaussian 09, Revision E.01,
 Gaussian 09:  EM64L-G09RevE.01 30-Nov-2015

 ---------------------------------------------
 #p b3lyp/6-311++G(3df,2p) freq symmetry=Loose
 ---------------------------------------------

 ---------
 b3lyp opt
 ---------
 Symbolic Z-matrix:
 Charge =  0 Multiplicity = 4

                         Standard orientation:
 ---------------------------------------------------------------------
 Center     Atomic      Atomic             Coordinates (Angstroms)
 Number     Number       Type             X           Y           Z
 ---------------------------------------------------------------------
      1          6           0       -0.143703   -0.077280    0.835036
      2          6           0       -0.143703    1.079439   -0.000000
      3          6           0       -0.846279   -1.096501    0.000000
      4          6           0       -0.143703   -0.077280   -0.835036
      5          7           0        1.094905    0.147103    0.000000
 ---------------------------------------------------------------------

 SCF Done:  E(UB3LYP) =  -206.733812570     A.U. after   16 cycles

 The electronic state is 4-A'.
 Alpha  occ. eigenvalues --  -14.41048 -10.30467 -10.30394 -10.30389 -10.29360
 Alpha  occ. eigenvalues --   -1.13986  -0.81502  -0.68939  -0.65191  -0.50781
 Alpha  occ. eigenvalues --   -0.46200  -0.41127  -0.38933  -0.36553  -0.35221
 Alpha  occ. eigenvalues --   -0.32577  -0.24702
 Alpha virt. eigenvalues --   -0.10799   0.01081   0.02419   0.02567   0.03425
 Alpha virt. eigenvalues --    0.06096   0.06138   0.07157   0.07541   0.07975
 Alpha virt. eigenvalues --    0.09232   0.09371   0.11586   0.12155   0.12435

  Beta  occ. eigenvalues --  -14.40349 -10.30055 -10.30046 -10.28582 -10.26603
  Beta  occ. eigenvalues --   -1.12379  -0.77826  -0.65261  -0.63887  -0.44193
  Beta  occ. eigenvalues --   -0.43635  -0.36283  -0.35442  -0.33821
  Beta virt. eigenvalues --   -0.20493  -0.19105  -0.08357  -0.08351   0.02704
  Beta virt. eigenvalues --    0.02931   0.03029   0.04359   0.07039   0.07211
  Beta virt. eigenvalues --    0.07625   0.08190   0.08704   0.09598   0.10476

 Mulliken charges and spin densities:
               1          2
     1  C    0.595991  -0.031957
     2  C   -0.228602   0.946819
     3  C   -0.474834   1.814898
     4  C    0.595991  -0.031957
     5  N   -0.488546   0.302196
 Sum of Mulliken charges =  -0.00000   3.00000

 Dipole moment (field-independent basis, Debye):
    X=             -1.1301    Y=              0.2825    Z=              0.0000  Tot=              1.1649
 Quadrupole moment (field-independent basis, Debye-Ang):
   XX=            -30.0406   YY=            -27.7695   ZZ=            -27.7726
   XY=              0.0041   XZ=              0.0000   YZ=              0.0000

  Exact polarizability:  42.601   7.686  49.190  -0.000   0.000  43.074
 Approx polarizability:  77.216  16.875  85.601   0.000  -0.000  97.475

                      1                      2                      3
                     A"                     A'                     A"
 Frequencies --    497.7495               578.0193               649.9080
 Red. masses --     12.4790                12.0513                12.1836
 Frc consts  --      1.8216                 2.3723                 3.0320
 IR Inten    --      0.1295                 5.2129                51.3495

                      4                      5                      6
                     A'                     A'                     A'
 Frequencies --    650.0297               844.6152               916.1722
 Red. masses --     12.7940                12.1712                13.1413
 Frc consts  --      3.1851                 5.1156                 6.4989
 IR Inten    --     17.0624                12.1750                 4.7461

                      7                      8                      9
                     A"                     A'                     A'
 Frequencies --   1019.4783              1036.1291              1398.0593
 Red. masses --     12.0017                12.0485                12.0695
 Frc consts  --      7.3493                 7.6210                13.8992
 IR Inten    --     23.4415                 1.8019                 3.4025

 - Thermochemistry -
 -------------------
 Temperature   298.150 Kelvin.  Pressure   1.00000 Atm.
 Atom     1 has atomic number  6 and mass  12.00000

 Molecular mass:    62.00307 amu.
 Principal axes and moments of inertia in atomic units:
                           1         2         3
     Eigenvalues --   115.52685 196.34141 200.33708
           X            0.66520   0.00000   0.74666
           Y            0.74666  -0.00000  -0.66520
           Z           -0.00000   1.00000  -0.00000
 This molecule is an asymmetric top.
 Rotational symmetry number  1.
 Rotational temperatures (Kelvin)      0.74973     0.44114     0.43234
 Rotational constants (GHZ):          15.62183     9.19185     9.00852
 Zero-point vibrational energy      45399.2 (Joules/Mol)
                                   10.85068 (Kcal/Mol)
 Warning -- explicit consideration of   2 degrees of freedom as
           vibrations may cause significant error
 Vibrational temperatures:    716.15   831.64   935.07   935.25  1215.21
          (Kelvin)           1318.17  1466.80  1490.76  2011.49

 Zero-point correction=                           0.017292 (Hartree/Particle)
 Thermal correction to Energy=                    0.020982
 Thermal correction to Enthalpy=                  0.021927
 Thermal correction to Gibbs Free Energy=        -0.009655
 Sum of electronic and zero-point Energies=           -206.716521
 Sum of electronic and thermal Energies=              -206.712830
 Sum of electronic and thermal Enthalpies=            -206.711886
 Sum of electronic and thermal Free Energies=         -206.743467

                     E (Thermal)             CV                S
                      KCal/Mol        Cal/Mol-Kelvin    Cal/Mol-Kelvin
 Total                   13.167             12.012             66.468
 Electronic               0.000              0.000              2.755
 Translational            0.889              2.981             38.293
 Rotational               0.889              2.981             23.034
 Vibrational             11.389              6.050              2.386
 Vibration     1          0.853              1.255              0.664
 Vibration     2          0.935              1.079              0.489

 Normal termination of Gaussian 09 at Tue Aug 16 18:05:56 2016.
