 Gaussian 09, Revision E.01,
 Gaussian 09:  EM64L-G09RevE.01 30-Nov-2015

 ---------------------------------------------
 #p b3lyp/6-311++G(3df,2p) freq symmetry=Loose
 ---------------------------------------------

 ---------
 b3lyp opt
 ---------
 Symbolic Z-matrix:
 Charge =  1 Multiplicity = 3

                         Standard orientation:
 ---------------------------------------------------------------------
 Center     Atomic      Atomic             Coordinates (Angstroms)
 Number     Number       Type             X           Y           Z
 ---------------------------------------------------------------------
      1          7           0       -1.232277   -0.399577   -0.000745
      2          6           0       -0.026533   -0.762621    0.000851
      3          6           0        0.747386    0.727964   -0.000584
      4          6           0       -0.615020    0.927541    0.000726
      5          6           0        1.331824   -0.426711   -0.000125
 ---------------------------------------------------------------------

 SCF Done:  E(UB3LYP) =  -206.478948667     A.U. after   19 cycles

 The electronic state is 3-A.
 Alpha  occ. eigenvalues --  -14.66338 -10.62447 -10.61311 -10.57893 -10.57144
 Alpha  occ. eigenvalues --   -1.36482  -1.18405  -1.02485  -0.84810  -0.82377
 Alpha  occ. eigenvalues --   -0.78043  -0.74780  -0.63842  -0.59719  -0.59472
 Alpha  occ. eigenvalues --   -0.56026
 Alpha virt. eigenvalues --   -0.44284  -0.32286  -0.27903  -0.25380  -0.16652
 Alpha virt. eigenvalues --   -0.11868  -0.11760  -0.10325  -0.09544  -0.08939
 Alpha virt. eigenvalues --   -0.08130  -0.07150  -0.06089  -0.05803  -0.02656

  Beta  occ. eigenvalues --  -14.66620 -10.61885 -10.58811 -10.58174 -10.55485
  Beta  occ. eigenvalues --   -1.35616  -1.17862  -0.98711  -0.83395  -0.81473
  Beta  occ. eigenvalues --   -0.74664  -0.71781  -0.60093  -0.58874
  Beta virt. eigenvalues --   -0.44704  -0.42646  -0.41501  -0.31000  -0.24882
  Beta virt. eigenvalues --   -0.20060  -0.16343  -0.11460  -0.11159  -0.09673
  Beta virt. eigenvalues --   -0.08834  -0.08555  -0.07083  -0.05918  -0.05853

 Mulliken charges and spin densities:
               1          2
     1  N   -0.550381  -0.201090
     2  C    0.599987   0.219802
     3  C    0.414117  -0.428484
     4  C    0.301802   1.413753
     5  C    0.234475   0.996019
 Sum of Mulliken charges =   1.00000   2.00000

 Dipole moment (field-independent basis, Debye):
    X=              1.8446    Y=              0.9549    Z=              0.0014  Tot=              2.0771
 Quadrupole moment (field-independent basis, Debye-Ang):
   XX=            -21.9332   YY=            -18.6823   ZZ=            -24.7553
   XY=             -0.4439   XZ=             -0.0015   YZ=              0.0000

  Exact polarizability:  50.881  -5.247  38.597  -0.002  -0.008  22.282
 Approx polarizability: 118.860 -20.277  87.166   0.003  -0.020  32.272

                      1                      2                      3
                      A                      A                      A
 Frequencies --     58.7695               386.9247               408.9846
 Red. masses --     12.4667                12.0651                12.3907
 Frc consts  --      0.0254                 1.0642                 1.2211
 IR Inten    --      2.8938                 0.1159                18.9877

                      4                      5                      6
                      A                      A                      A
 Frequencies --    603.4652               642.2333               942.2361
 Red. masses --     12.8239                12.1250                12.1374
 Frc consts  --      2.7515                 2.9466                 6.3489
 IR Inten    --      3.1998                11.8581                 2.4921

                      7                      8                      9
                      A                      A                      A
 Frequencies --   1202.2106              1523.3848              1601.8136
 Red. masses --     12.1931                12.0995                12.4863
 Frc consts  --     10.3830                16.5438                18.8759
 IR Inten    --      3.0425                13.8362                47.8654

 - Thermochemistry -
 -------------------
 Temperature   298.150 Kelvin.  Pressure   1.00000 Atm.
 Atom     1 has atomic number  7 and mass  14.00307

 Molecular mass:    62.00307 amu.
 Principal axes and moments of inertia in atomic units:
                           1         2         3
     Eigenvalues --   100.28627 192.12088 292.40696
           X            1.00000  -0.00006  -0.00000
           Y            0.00006   1.00000  -0.00000
           Z            0.00000   0.00000   1.00000
 This molecule is an asymmetric top.
 Rotational symmetry number  1.
 Rotational temperatures (Kelvin)      0.86367     0.45083     0.29621
 Rotational constants (GHZ):          17.99589     9.39378     6.17202
 Zero-point vibrational energy      44082.5 (Joules/Mol)
                                   10.53598 (Kcal/Mol)
 Warning -- explicit consideration of   4 degrees of freedom as
           vibrations may cause significant error
 Vibrational temperatures:     84.56   556.70   588.44   868.25   924.03
          (Kelvin)           1355.67  1729.71  2191.81  2304.65

 Zero-point correction=                           0.016790 (Hartree/Particle)
 Thermal correction to Energy=                    0.021429
 Thermal correction to Enthalpy=                  0.022373
 Thermal correction to Gibbs Free Energy=        -0.011441
 Sum of electronic and zero-point Energies=           -206.462159
 Sum of electronic and thermal Energies=              -206.457520
 Sum of electronic and thermal Enthalpies=            -206.456576
 Sum of electronic and thermal Free Energies=         -206.490390

                     E (Thermal)             CV                S
                      KCal/Mol        Cal/Mol-Kelvin    Cal/Mol-Kelvin
 Total                   13.447             13.622             71.168
 Electronic               0.000              0.000              2.183
 Translational            0.889              2.981             38.293
 Rotational               0.889              2.981             23.248
 Vibrational             11.669              7.660              7.444
 Vibration     1          0.596              1.974              4.498
 Vibration     2          0.755              1.498              1.012
 Vibration     3          0.773              1.451              0.930
 Vibration     4          0.962              1.024              0.444

 Normal termination of Gaussian 09 at Tue Aug 16 18:14:42 2016.
