 Gaussian 09, Revision E.01,
 Gaussian 09:  EM64L-G09RevE.01 30-Nov-2015

 ---------------------------------------------
 #p b3lyp/6-311++G(3df,2p) freq symmetry=Loose
 ---------------------------------------------

 ---------
 b3lyp opt
 ---------
 Symbolic Z-matrix:
 Charge =  1 Multiplicity = 3

                         Standard orientation:
 ---------------------------------------------------------------------
 Center     Atomic      Atomic             Coordinates (Angstroms)
 Number     Number       Type             X           Y           Z
 ---------------------------------------------------------------------
      1          6           0        0.000000    0.777311   -0.592174
      2          6           0        0.000000    0.000000   -1.680113
      3          6           0       -0.000000   -0.000000    0.664048
      4          6           0       -0.000000   -0.777311   -0.592174
      5          7           0       -0.000000   -0.000000    1.886068
 ---------------------------------------------------------------------

 SCF Done:  E(UB3LYP) =  -206.531941406     A.U. after   15 cycles

 The electronic state is 3-B2.
 Alpha  occ. eigenvalues --  -14.66211 -10.61091 -10.61071 -10.58659 -10.57293
 Alpha  occ. eigenvalues --   -1.33579  -1.22256  -1.01032  -0.88949  -0.76958
 Alpha  occ. eigenvalues --   -0.76021  -0.70996  -0.66790  -0.62572  -0.60476
 Alpha  occ. eigenvalues --   -0.59067
 Alpha virt. eigenvalues --   -0.39372  -0.37192  -0.31890  -0.18664  -0.16032
 Alpha virt. eigenvalues --   -0.13081  -0.12264  -0.12222  -0.09241  -0.08102
 Alpha virt. eigenvalues --   -0.07577  -0.05898  -0.05701  -0.05446  -0.03216

  Beta  occ. eigenvalues --  -14.64471 -10.60367 -10.60348 -10.57350 -10.56958
  Beta  occ. eigenvalues --   -1.33041  -1.18554  -0.98908  -0.86320  -0.75345
  Beta  occ. eigenvalues --   -0.74323  -0.66218  -0.62206  -0.61093
  Beta virt. eigenvalues --   -0.46375  -0.43325  -0.38046  -0.34835  -0.27323
  Beta virt. eigenvalues --   -0.17004  -0.15516  -0.12673  -0.12174  -0.11242
  Beta virt. eigenvalues --   -0.09085  -0.07106  -0.06671  -0.05512  -0.05471

 Mulliken charges and spin densities:
               1          2
     1  C    0.786168   0.286512
     2  C   -0.353628   0.765814
     3  C    0.385853  -0.201038
     4  C    0.786168   0.286512
     5  N   -0.604560   0.862200
 Sum of Mulliken charges =   1.00000   2.00000

 Dipole moment (field-independent basis, Debye):
    X=             -0.0000    Y=              0.0000    Z=             -2.4988  Tot=              2.4988
 Quadrupole moment (field-independent basis, Debye-Ang):
   XX=            -23.6069   YY=            -22.6320   ZZ=            -20.0046
   XY=             -0.0000   XZ=              0.0000   YZ=              0.0000

  Exact polarizability:  22.995  -0.000  32.845  -0.000  -0.000  58.883
 Approx polarizability:  34.808   0.000  70.021  -0.000  -0.000 122.022

                      1                      2                      3
                     B1                     B2                     B1
 Frequencies --    256.4043               373.8559               559.2273
 Red. masses --     12.3963                12.5915                12.0678
 Frc consts  --      0.4802                 1.0369                 2.2236
 IR Inten    --      5.0407                10.3066                 0.1298

                      4                      5                      6
                     B2                     A1                     A1
 Frequencies --    607.4767               678.7717               966.4199
 Red. masses --     12.0003                12.3651                12.3906
 Frc consts  --      2.6092                 3.3566                 6.8183
 IR Inten    --     17.5665                11.6341                 1.2989

                      7                      8                      9
                     B2                     A1                     A1
 Frequencies --   1238.9487              1679.1272              1823.1965
 Red. masses --     12.0008                12.0000                12.6274
 Frc consts  --     10.8535                19.9342                24.7303
 IR Inten    --      1.2596                32.5829                 2.9106

 - Thermochemistry -
 -------------------
 Temperature   298.150 Kelvin.  Pressure   1.00000 Atm.
 Atom     1 has atomic number  6 and mass  12.00000

 Molecular mass:    62.00307 amu.
 Principal axes and moments of inertia in atomic units:
                           1         2         3
     Eigenvalues --    51.78433 347.79826 399.58259
           X           -0.00000   0.00000   1.00000
           Y           -0.00000   1.00000  -0.00000
           Z            1.00000   0.00000   0.00000
 This molecule is an asymmetric top.
 Rotational symmetry number  2.
 Rotational temperatures (Kelvin)      1.67259     0.24903     0.21676
 Rotational constants (GHZ):          34.85111     5.18905     4.51657
 Zero-point vibrational energy      48947.8 (Joules/Mol)
                                   11.69880 (Kcal/Mol)
 Warning -- explicit consideration of   4 degrees of freedom as
           vibrations may cause significant error
 Vibrational temperatures:    368.91   537.89   804.60   874.02   976.60
          (Kelvin)           1390.46  1782.57  2415.89  2623.17

 Zero-point correction=                           0.018643 (Hartree/Particle)
 Thermal correction to Energy=                    0.022810
 Thermal correction to Enthalpy=                  0.023754
 Thermal correction to Gibbs Free Energy=        -0.007978
 Sum of electronic and zero-point Energies=           -206.513298
 Sum of electronic and thermal Energies=              -206.509131
 Sum of electronic and thermal Enthalpies=            -206.508187
 Sum of electronic and thermal Free Energies=         -206.539919

                     E (Thermal)             CV                S
                      KCal/Mol        Cal/Mol-Kelvin    Cal/Mol-Kelvin
 Total                   14.314             12.904             66.785
 Electronic               0.000              0.000              2.183
 Translational            0.889              2.981             38.293
 Rotational               0.889              2.981             22.114
 Vibrational             12.536              6.943              4.195
 Vibration     1          0.666              1.752              1.686
 Vibration     2          0.745              1.526              1.064
 Vibration     3          0.915              1.120              0.525
 Vibration     4          0.966              1.016              0.437

 Optimization completed.
    -- Stationary point found.
 Normal termination of Gaussian 09 at Tue Aug 16 18:00:53 2016.
