 Gaussian 09, Revision E.01,
 Gaussian 09:  EM64L-G09RevE.01 30-Nov-2015

 ---------------------------------------------
 #p b3lyp/6-311++G(3df,2p) freq symmetry=Loose
 ---------------------------------------------

 ---------
 b3lyp opt
 ---------
 Symbolic Z-matrix:
 Charge =  1 Multiplicity = 1

                         Standard orientation:
 ---------------------------------------------------------------------
 Center     Atomic      Atomic             Coordinates (Angstroms)
 Number     Number       Type             X           Y           Z
 ---------------------------------------------------------------------
      1          6           0       -0.000000    1.191254   -1.237548
      2          6           0       -0.000000   -1.191254   -1.237548
      3          6           0        0.000000    0.000000   -0.533384
      4          6           0       -0.000000   -0.000000    2.025674
      5          7           0       -0.000000   -0.000000    0.842405
 ---------------------------------------------------------------------

 SCF Done:  E(RB3LYP) =  -206.471704709     A.U. after   16 cycles

 The electronic state is 1-A1.
 Alpha  occ. eigenvalues --  -14.63728 -10.63276 -10.63274 -10.56063 -10.50670
 Alpha  occ. eigenvalues --   -1.26128  -1.14642  -0.98618  -0.95868  -0.71629
 Alpha  occ. eigenvalues --   -0.66535  -0.65056  -0.59871  -0.59844  -0.56673
 Alpha virt. eigenvalues --   -0.47822  -0.44389  -0.40818  -0.30090  -0.23645
 Alpha virt. eigenvalues --   -0.17548  -0.15983  -0.12059  -0.11087  -0.10119
 Alpha virt. eigenvalues --   -0.08293  -0.07024  -0.06492  -0.05617  -0.05339

 Mulliken charges:
               1
     1  C    0.012147
     2  C    0.012147
     3  C    1.196086
     4  C    0.206713
     5  N   -0.427093
 Sum of Mulliken charges =   1.00000

 Dipole moment (field-independent basis, Debye):
    X=              0.0000    Y=              0.0000    Z=             -2.8393  Tot=              2.8393
 Quadrupole moment (field-independent basis, Debye-Ang):
   XX=            -24.7222   YY=            -23.0755   ZZ=            -20.0494
   XY=             -0.0000   XZ=             -0.0000   YZ=              0.0000

  Exact polarizability:  28.798  -0.000  47.224   0.000   0.000  82.950
 Approx polarizability:  43.951  -0.000 113.300   0.000  -0.000 211.902

                      1                      2                      3
                     B2                     B2                     B1
 Frequencies --     51.2545               188.0805               189.7707
 Red. masses --     12.0021                13.3309                12.9269
 Frc consts  --      0.0186                 0.2778                 0.2743
 IR Inten    --      0.9748                 1.5153                 0.0098

                      4                      5                      6
                     A1                     B1                     A1
 Frequencies --    262.2619               358.9146               857.3402
 Red. masses --     12.1581                12.3043                12.2227
 Frc consts  --      0.4927                 0.9339                 5.2933
 IR Inten    --     25.6302                14.9171                10.4174

                      7                      8                      9
                     A1                     B2                     A1
 Frequencies --   1278.2988              1394.0070              2093.3242
 Red. masses --     12.0113                12.0009                13.0233
 Frc consts  --     11.5639                13.7402                33.6236
 IR Inten    --     75.5008               436.5524                23.8571

 - Thermochemistry -
 -------------------
 Temperature   298.150 Kelvin.  Pressure   1.00000 Atm.
 Atom     1 has atomic number  6 and mass  12.00000

 Molecular mass:    62.00307 amu.
 Principal axes and moments of inertia in atomic units:
                           1         2         3
     Eigenvalues --   121.62349 354.77828 476.40177
           X            0.00000   0.00000   1.00000
           Y            0.00000   1.00000  -0.00000
           Z            1.00000  -0.00000  -0.00000
 This molecule is an asymmetric top.
 Rotational symmetry number  2.
 Rotational temperatures (Kelvin)      0.71215     0.24414     0.18181
 Rotational constants (GHZ):          14.83876     5.08696     3.78828
 Zero-point vibrational energy      39914.9 (Joules/Mol)
                                    9.53989 (Kcal/Mol)
 Warning -- explicit consideration of   5 degrees of freedom as
           vibrations may cause significant error
 Vibrational temperatures:     73.74   270.61   273.04   377.34   516.40
          (Kelvin)           1233.52  1839.18  2005.66  3011.82

 Zero-point correction=                           0.015203 (Hartree/Particle)
 Thermal correction to Energy=                    0.020929
 Thermal correction to Enthalpy=                  0.021873
 Thermal correction to Gibbs Free Energy=        -0.013136
 Sum of electronic and zero-point Energies=           -206.456502
 Sum of electronic and thermal Energies=              -206.450776
 Sum of electronic and thermal Enthalpies=            -206.449832
 Sum of electronic and thermal Free Energies=         -206.484841

                     E (Thermal)             CV                S
                      KCal/Mol        Cal/Mol-Kelvin    Cal/Mol-Kelvin
 Total                   13.133             15.784             73.683
 Electronic               0.000              0.000              0.000
 Translational            0.889              2.981             38.293
 Rotational               0.889              2.981             23.156
 Vibrational             11.356              9.822             12.233
 Vibration     1          0.596              1.977              4.768
 Vibration     2          0.633              1.856              2.247
 Vibration     3          0.633              1.854              2.230
 Vibration     4          0.670              1.742              1.647
 Vibration     5          0.734              1.557              1.127

 Optimization completed.
    -- Stationary point found.
 Normal termination of Gaussian 09 at Tue Aug 16 17:54:05 2016.
