 Gaussian 09, Revision E.01,
 Gaussian 09:  EM64L-G09RevE.01 30-Nov-2015

 ---------------------------------------------
 #p b3lyp/6-311++G(3df,2p) freq symmetry=Loose
 ---------------------------------------------

 ---------
 b3lyp opt
 ---------
 Symbolic Z-matrix:
 Charge =  0 Multiplicity = 2

                         Standard orientation:
 ---------------------------------------------------------------------
 Center     Atomic      Atomic             Coordinates (Angstroms)
 Number     Number       Type             X           Y           Z
 ---------------------------------------------------------------------
      1          6           0       -0.000000    1.059887   -0.029856
      2          6           0       -0.000000   -0.000000   -1.070773
      3          6           0        0.917889   -0.529944   -0.029856
      4          6           0       -0.917889   -0.529944   -0.029856
      5          7           0        0.000000    0.000000    0.994577
 ---------------------------------------------------------------------

 SCF Done:  E(UB3LYP) =  -206.793388117     A.U. after   14 cycles

 The electronic state is 2-A1.
 Alpha  occ. eigenvalues --  -14.46637 -10.32441 -10.31274 -10.31267 -10.31267
 Alpha  occ. eigenvalues --   -1.16580  -0.82395  -0.69094  -0.69094  -0.50052
 Alpha  occ. eigenvalues --   -0.47490  -0.47490  -0.37082  -0.34469  -0.32087
 Alpha  occ. eigenvalues --   -0.32087
 Alpha virt. eigenvalues --   -0.11984  -0.11984  -0.01790   0.01880   0.02758
 Alpha virt. eigenvalues --    0.02774   0.02774   0.07605   0.07971   0.07971
 Alpha virt. eigenvalues --    0.08539   0.08539   0.11119   0.11119   0.11471

  Beta  occ. eigenvalues --  -14.46094 -10.31252 -10.31242 -10.31242 -10.30966
  Beta  occ. eigenvalues --   -1.15479  -0.80469  -0.68793  -0.68793  -0.46684
  Beta  occ. eigenvalues --   -0.46684  -0.44734  -0.36034  -0.32036  -0.32036
  Beta virt. eigenvalues --   -0.19929  -0.11630  -0.11630  -0.01915   0.02368
  Beta virt. eigenvalues --    0.02987   0.03046   0.03046   0.07873   0.07991
  Beta virt. eigenvalues --    0.07991   0.08582   0.08582   0.11527   0.11527

 Mulliken charges and spin densities:
               1          2
     1  C   -0.068697  -0.007118
     2  C    0.499158   0.799828
     3  C   -0.068697  -0.007118
     4  C   -0.068697  -0.007118
     5  N   -0.293066   0.221527
 Sum of Mulliken charges =  -0.00000   1.00000

 Dipole moment (field-independent basis, Debye):
    X=              0.0000    Y=              0.0000    Z=             -0.8416  Tot=              0.8416
 Quadrupole moment (field-independent basis, Debye-Ang):
   XX=            -30.4156   YY=            -30.4156   ZZ=            -28.2239
   XY=              0.0000   XZ=              0.0000   YZ=              0.0000

  Exact polarizability:  47.622   0.000  47.620  -0.000   0.000  44.406
 Approx polarizability: 110.802   0.000 110.802  -0.000   0.000  87.722

                      1                      2                      3
                      E                      E                      E
 Frequencies --    386.3373               386.3455               568.2641
 Red. masses --     12.7385                12.7385                12.0516
 Frc consts  --      1.1202                 1.1203                 2.2930
 IR Inten    --      8.9487                 8.9465                20.7701

                      4                      5                      6
                      E                     A1                      E
 Frequencies --    568.2666               842.6293               877.2964
 Red. masses --     12.0516                12.2371                12.0856
 Frc consts  --      2.2930                 5.1192                 5.4804
 IR Inten    --     20.7745                18.6414                 0.4285

                      7                      8                      9
                      E                     A1                     A1
 Frequencies --    877.2982              1058.7895              1266.4826
 Red. masses --     12.0856                12.5416                12.6074
 Frc consts  --      5.4804                 8.2837                11.9144
 IR Inten    --      0.4276                 3.5799                 0.4894

 - Thermochemistry -
 -------------------
 Temperature   298.150 Kelvin.  Pressure   1.00000 Atm.
 Atom     1 has atomic number  6 and mass  12.00000

 Molecular mass:    62.00307 amu.
 Principal axes and moments of inertia in atomic units:
                           1         2         3
     Eigenvalues --   144.41737 170.92124 170.92124
           X            0.00000   0.98439   0.17602
           Y            0.00000  -0.17602   0.98439
           Z            1.00000   0.00000  -0.00000
 This molecule is a prolate symmetric top.
 Rotational symmetry number  3.
 Rotational temperatures (Kelvin)      0.59975     0.50675     0.50675
 Rotational constants (GHZ):          12.49670    10.55891    10.55891
 Zero-point vibrational energy      40862.7 (Joules/Mol)
                                    9.76642 (Kcal/Mol)
 Warning -- explicit consideration of   4 degrees of freedom as
           vibrations may cause significant error
 Vibrational temperatures:    555.85   555.86   817.60   817.61  1212.35
          (Kelvin)           1262.23  1262.23  1523.36  1822.18

 Zero-point correction=                           0.015564 (Hartree/Particle)
 Thermal correction to Energy=                    0.019625
 Thermal correction to Enthalpy=                  0.020570
 Thermal correction to Gibbs Free Energy=        -0.009876
 Sum of electronic and zero-point Energies=           -206.777824
 Sum of electronic and thermal Energies=              -206.773763
 Sum of electronic and thermal Enthalpies=            -206.772819
 Sum of electronic and thermal Free Energies=         -206.803264

                     E (Thermal)             CV                S
                      KCal/Mol        Cal/Mol-Kelvin    Cal/Mol-Kelvin
 Total                   12.315             13.289             64.078
 Electronic               0.000              0.000              1.377
 Translational            0.889              2.981             38.293
 Rotational               0.889              2.981             20.777
 Vibrational             10.538              7.328              3.630
 Vibration     1          0.755              1.499              1.014
 Vibration     2          0.755              1.499              1.014
 Vibration     3          0.924              1.100              0.508
 Vibration     4          0.924              1.100              0.508

 Optimization completed.
    -- Stationary point found.
 Normal termination of Gaussian 09 at Tue Aug 16 18:00:10 2016.
