 Gaussian 09, Revision E.01,
 Gaussian 09:  EM64L-G09RevE.01 30-Nov-2015

 ---------------------------------------------
 #p b3lyp/6-311++G(3df,2p) freq symmetry=Loose
 ---------------------------------------------

 ---------
 b3lyp opt
 ---------
 Symbolic Z-matrix:
 Charge =  0 Multiplicity = 4

                         Standard orientation:
 ---------------------------------------------------------------------
 Center     Atomic      Atomic             Coordinates (Angstroms)
 Number     Number       Type             X           Y           Z
 ---------------------------------------------------------------------
      1          6           0       -0.140107   -0.597500   -0.886753
      2          6           0        0.335598   -1.520175    0.000000
      3          6           0       -0.055381    0.587521   -0.000000
      4          6           0       -0.140107   -0.597500    0.886753
      5          7           0       -0.000000    1.823689   -0.000000
 ---------------------------------------------------------------------

 SCF Done:  E(UB3LYP) =  -206.853383829     A.U. after   17 cycles

 The electronic state is 4-A'.
 Alpha  occ. eigenvalues --  -14.39204 -10.29968 -10.29627 -10.29623 -10.29233
 Alpha  occ. eigenvalues --   -1.02419  -0.94694  -0.67812  -0.65157  -0.50037
 Alpha  occ. eigenvalues --   -0.48773  -0.44838  -0.40002  -0.37172  -0.34064
 Alpha  occ. eigenvalues --   -0.33038  -0.25645
 Alpha virt. eigenvalues --   -0.10279  -0.09257   0.00711   0.02578   0.03280
 Alpha virt. eigenvalues --    0.04142   0.04202   0.07664   0.07883   0.08189
 Alpha virt. eigenvalues --    0.09203   0.09884   0.11488   0.12914   0.13388

  Beta  occ. eigenvalues --  -14.37238 -10.29963 -10.28116 -10.28100 -10.27942
  Beta  occ. eigenvalues --   -1.00245  -0.90709  -0.64636  -0.60619  -0.46405
  Beta  occ. eigenvalues --   -0.45818  -0.41086  -0.34986  -0.32723
  Beta virt. eigenvalues --   -0.19404  -0.18063  -0.11448  -0.07863  -0.05920
  Beta virt. eigenvalues --    0.01463   0.03368   0.03783   0.05202   0.05274
  Beta virt. eigenvalues --    0.08002   0.08274   0.08356   0.09903   0.10801

 Mulliken charges and spin densities:
               1          2
     1  C    0.088476   0.747660
     2  C   -0.028562   0.675572
     3  C    0.594478  -0.154910
     4  C    0.088476   0.747660
     5  N   -0.742868   0.984018
 Sum of Mulliken charges =  -0.00000   3.00000

 Dipole moment (field-independent basis, Debye):
    X=              0.2792    Y=             -1.4810    Z=              0.0000  Tot=              1.5071
 Quadrupole moment (field-independent basis, Debye-Ang):
   XX=            -27.8794   YY=            -32.4004   ZZ=            -28.7329
   XY=             -0.2172   XZ=              0.0000   YZ=             -0.0000

  Exact polarizability:  31.550  -4.231  66.176  -0.000   0.000  49.711
 Approx polarizability:  47.903 -12.391 121.414  -0.000   0.000 102.508

                      1                      2                      3
                     A'                     A"                     A'
 Frequencies --    284.6152               377.3748               545.3684
 Red. masses --     12.3808                12.5834                12.2038
 Frc consts  --      0.5909                 1.0558                 2.1386
 IR Inten    --      5.9991                 9.7831                22.1640

                      4                      5                      6
                     A'                     A"                     A'
 Frequencies --    612.8942               625.7323               930.4531
 Red. masses --     12.0719                12.0056                12.5439
 Frc consts  --      2.6718                 2.7696                 6.3984
 IR Inten    --      1.6631                28.2459                 0.3948

                      7                      8                      9
                     A"                     A'                     A'
 Frequencies --   1094.7083              1445.4961              1736.1585
 Red. masses --     12.0050                12.0250                12.6008
 Frc consts  --      8.4764                14.8037                22.3783
 IR Inten    --      4.4757                 1.0749                19.6402

 - Thermochemistry -
 -------------------
 Temperature   298.150 Kelvin.  Pressure   1.00000 Atm.
 Atom     1 has atomic number  6 and mass  12.00000

 Molecular mass:    62.00307 amu.
 Principal axes and moments of inertia in atomic units:
                           1         2         3
     Eigenvalues --    73.18501 317.37101 378.97185
           X           -0.05266   0.00000   0.99861
           Y            0.99861   0.00000   0.05266
           Z           -0.00000   1.00000  -0.00000
 This molecule is an asymmetric top.
 Rotational symmetry number  1.
 Rotational temperatures (Kelvin)      1.18349     0.27291     0.22855
 Rotational constants (GHZ):          24.65999     5.68653     4.76220
 Zero-point vibrational energy      45773.9 (Joules/Mol)
                                   10.94023 (Kcal/Mol)
 Warning -- explicit consideration of   4 degrees of freedom as
           vibrations may cause significant error
 Vibrational temperatures:    409.50   542.96   784.66   881.82   900.29
          (Kelvin)           1338.71  1575.04  2079.74  2497.94

 Zero-point correction=                           0.017434 (Hartree/Particle)
 Thermal correction to Energy=                    0.021612
 Thermal correction to Enthalpy=                  0.022556
 Thermal correction to Gibbs Free Energy=        -0.010176
 Sum of electronic and zero-point Energies=           -206.835949
 Sum of electronic and thermal Energies=              -206.831772
 Sum of electronic and thermal Enthalpies=            -206.830827
 Sum of electronic and thermal Free Energies=         -206.863560

                     E (Thermal)             CV                S
                      KCal/Mol        Cal/Mol-Kelvin    Cal/Mol-Kelvin
 Total                   13.562             13.181             68.891
 Electronic               0.000              0.000              2.755
 Translational            0.889              2.981             38.293
 Rotational               0.889              2.981             23.691
 Vibrational             11.784              7.220              4.151
 Vibration     1          0.683              1.702              1.506
 Vibration     2          0.748              1.518              1.050
 Vibration     3          0.901              1.150              0.554
 Vibration     4          0.972              1.005              0.428

 Optimization completed.
    -- Stationary point found.
 Normal termination of Gaussian 09 at Tue Aug 16 18:05:20 2016.
