 Gaussian 09, Revision E.01,
 Gaussian 09:  EM64L-G09RevE.01 30-Nov-2015

 ---------------------------------------------
 #p b3lyp/6-311++G(3df,2p) freq symmetry=Loose
 ---------------------------------------------

 ---------
 b3lyp opt
 ---------
 Symbolic Z-matrix:
 Charge =  1 Multiplicity = 3

                         Standard orientation:
 ---------------------------------------------------------------------
 Center     Atomic      Atomic             Coordinates (Angstroms)
 Number     Number       Type             X           Y           Z
 ---------------------------------------------------------------------
      1          6           0       -0.028436   -0.005084    0.943857
      2          6           0        1.103572    0.018209    0.016651
      3          6           0        0.074735   -0.978630   -0.452943
      4          6           0        0.039473    0.979469   -0.448684
      5          7           0       -1.019438   -0.011969   -0.050469
 ---------------------------------------------------------------------

 SCF Done:  E(UB3LYP) =  -206.390827504     A.U. after   17 cycles

 The electronic state is 3-A.
 Alpha  occ. eigenvalues --  -14.74543 -10.63041 -10.61476 -10.61441 -10.61290
 Alpha  occ. eigenvalues --   -1.45663  -1.11443  -0.99625  -0.94757  -0.76961
 Alpha  occ. eigenvalues --   -0.75452  -0.74319  -0.66429  -0.61714  -0.61273
 Alpha  occ. eigenvalues --   -0.60361
 Alpha virt. eigenvalues --   -0.41712  -0.36245  -0.28368  -0.19276  -0.18476
 Alpha virt. eigenvalues --   -0.16086  -0.13465  -0.13020  -0.12321  -0.08405
 Alpha virt. eigenvalues --   -0.07629  -0.07287  -0.07125  -0.06418  -0.06323

  Beta  occ. eigenvalues --  -14.74024 -10.61315 -10.61226 -10.61191 -10.59637
  Beta  occ. eigenvalues --   -1.44195  -1.09364  -0.98296  -0.91810  -0.74452
  Beta  occ. eigenvalues --   -0.72794  -0.70829  -0.62297  -0.59884
  Beta virt. eigenvalues --   -0.48115  -0.45703  -0.39655  -0.33912  -0.25062
  Beta virt. eigenvalues --   -0.18136  -0.17495  -0.14859  -0.12712  -0.11118
  Beta virt. eigenvalues --   -0.10861  -0.07383  -0.07280  -0.06950  -0.06863

 Mulliken charges and spin densities:
               1          2
     1  C    0.274924   0.746239
     2  C    0.637139   0.816591
     3  C    0.129458   0.124255
     4  C    0.133843   0.123996
     5  N   -0.175364   0.188918
 Sum of Mulliken charges =   1.00000   2.00000

 Dipole moment (field-independent basis, Debye):
    X=              1.1598    Y=              0.0335    Z=              0.9633  Tot=              1.5081
 Quadrupole moment (field-independent basis, Debye-Ang):
   XX=            -22.7983   YY=            -23.3171   ZZ=            -22.5457
   XY=             -0.0172   XZ=             -0.1838   YZ=             -0.0227

  Exact polarizability:  37.176  -0.118  42.215  -0.239  -0.042  33.190
 Approx polarizability:  76.577  -0.785 111.286  -0.997  -0.337  74.781

                      1                      2                      3
                      A                      A                      A
 Frequencies --    197.6136               401.4646               458.2387
 Red. masses --     12.8976                12.4201                12.0140
 Frc consts  --      0.2968                 1.1794                 1.4863
 IR Inten    --     20.9141                 0.9177                22.6012

                      4                      5                      6
                      A                      A                      A
 Frequencies --    552.2613               761.7621               764.2552
 Red. masses --     12.2783                12.0056                12.1053
 Frc consts  --      2.2064                 4.1046                 4.1658
 IR Inten    --      4.1583                14.6415                14.0965

                      7                      8                      9
                      A                      A                      A
 Frequencies --    970.1667              1143.3602              1269.0480
 Red. masses --     12.4272                12.3586                12.5778
 Frc consts  --      6.8915                 9.5189                11.9347
 IR Inten    --      4.5585                 0.3717                 2.1612

 - Thermochemistry -
 -------------------
 Temperature   298.150 Kelvin.  Pressure   1.00000 Atm.
 Atom     1 has atomic number  6 and mass  12.00000

 Molecular mass:    62.00307 amu.
 Principal axes and moments of inertia in atomic units:
                           1         2         3
     Eigenvalues --   137.90842 160.23256 186.67324
           X            1.00000  -0.00001  -0.00001
           Y            0.00001   1.00000  -0.00000
           Z            0.00001   0.00000   1.00000
 This molecule is an asymmetric top.
 Rotational symmetry number  1.
 Rotational temperatures (Kelvin)      0.62805     0.54055     0.46399
 Rotational constants (GHZ):          13.08652    11.26326     9.66792
 Zero-point vibrational energy      38987.3 (Joules/Mol)
                                    9.31819 (Kcal/Mol)
 Warning -- explicit consideration of   4 degrees of freedom as
           vibrations may cause significant error
 Vibrational temperatures:    284.32   577.62   659.30   794.58  1096.00
          (Kelvin)           1099.59  1395.85  1645.04  1825.87

 Zero-point correction=                           0.014849 (Hartree/Particle)
 Thermal correction to Energy=                    0.019254
 Thermal correction to Enthalpy=                  0.020198
 Thermal correction to Gibbs Free Energy=        -0.012351
 Sum of electronic and zero-point Energies=           -206.375978
 Sum of electronic and thermal Energies=              -206.371573
 Sum of electronic and thermal Enthalpies=            -206.370629
 Sum of electronic and thermal Free Energies=         -206.403178

                     E (Thermal)             CV                S
                      KCal/Mol        Cal/Mol-Kelvin    Cal/Mol-Kelvin
 Total                   12.082             13.996             68.506
 Electronic               0.000              0.000              2.183
 Translational            0.889              2.981             38.293
 Rotational               0.889              2.981             22.938
 Vibrational             10.305              8.035              5.091
 Vibration     1          0.637              1.843              2.155
 Vibration     2          0.767              1.467              0.957
 Vibration     3          0.816              1.343              0.771
 Vibration     4          0.908              1.135              0.540

 Normal termination of Gaussian 09 at Tue Aug 16 18:14:09 2016.
