 Gaussian 09, Revision E.01,
 Gaussian 09:  EM64L-G09RevE.01 30-Nov-2015

 ---------------------------------------------
 #p b3lyp/6-311++G(3df,2p) freq symmetry=Loose
 ---------------------------------------------

 ---------
 b3lyp opt
 ---------
 Symbolic Z-matrix:
 Charge =  0 Multiplicity = 4

                         Standard orientation:
 ---------------------------------------------------------------------
 Center     Atomic      Atomic             Coordinates (Angstroms)
 Number     Number       Type             X           Y           Z
 ---------------------------------------------------------------------
      1          6           0        0.000000    0.000000    2.437600
      2          6           0       -0.000000   -0.000000   -2.562669
      3          6           0       -0.000000   -0.000000   -1.296903
      4          6           0       -0.000000   -0.000000   -0.028762
      5          7           0        0.000000    0.000000    1.243487
 ---------------------------------------------------------------------

 SCF Done:  E(UB3LYP) =  -206.909285645     A.U. after   17 cycles

 The electronic state is 4-SG.
 Alpha  occ. eigenvalues --  -14.41094 -10.29316 -10.28790 -10.25585 -10.24666
 Alpha  occ. eigenvalues --   -1.02363  -0.85758  -0.79877  -0.70088  -0.47887
 Alpha  occ. eigenvalues --   -0.47887  -0.45244  -0.38173  -0.38173  -0.35287
 Alpha  occ. eigenvalues --   -0.25497  -0.25497
 Alpha virt. eigenvalues --   -0.04023  -0.04023  -0.00022   0.03115   0.03805
 Alpha virt. eigenvalues --    0.03805   0.05415   0.07579   0.07579   0.08390
 Alpha virt. eigenvalues --    0.09758   0.09758   0.12594   0.14250   0.14250

  Beta  occ. eigenvalues --  -14.41476 -10.27199 -10.25653 -10.25026 -10.24812
  Beta  occ. eigenvalues --   -1.01668  -0.83233  -0.76818  -0.66568  -0.45976
  Beta  occ. eigenvalues --   -0.45976  -0.34807  -0.34807  -0.33679
  Beta virt. eigenvalues --   -0.21582  -0.12970  -0.12970  -0.00769  -0.00769
  Beta virt. eigenvalues --    0.00330   0.03880   0.03880   0.04310   0.05747
  Beta virt. eigenvalues --    0.08602   0.08897   0.08897   0.11413   0.11413

 Mulliken charges and spin densities:
               1          2
     1  C    0.042110   0.474347
     2  C   -0.005231   2.219281
     3  C    0.755553  -0.486792
     4  C    0.063257   0.966229
     5  N   -0.855690  -0.173064
 Sum of Mulliken charges =  -0.00000   3.00000

 Dipole moment (field-independent basis, Debye):
    X=             -0.0000    Y=              0.0000    Z=             -2.6366  Tot=              2.6366
 Quadrupole moment (field-independent basis, Debye-Ang):
   XX=            -27.7785   YY=            -27.7785   ZZ=            -32.3450
   XY=             -0.0000   XZ=             -0.0000   YZ=             -0.0000

  Exact polarizability:  32.379  -0.000  32.379   0.000  -0.000 117.853
 Approx polarizability:  43.834   0.000  43.834   0.000   0.000 225.477

                      1                      2                      3
                     PI                     PI                     PI
 Frequencies --    104.8411               104.8412               336.9361
 Red. masses --     12.0153                12.0153                12.7471
 Frc consts  --      0.0778                 0.0778                 0.8526
 IR Inten    --      0.9089                 0.9089                 0.6654

                      4                      5                      6
                     PI                     PI                     PI
 Frequencies --    336.9361               382.0561               382.0562
 Red. masses --     12.7471                12.4317                12.4317
 Frc consts  --      0.8526                 1.0691                 1.0691
 IR Inten    --      0.6654                 1.3646                 1.3646

                      7                      8                      9
                     SG                     SG                     SG
 Frequencies --    800.3061              1547.3603              1815.1780
 Red. masses --     12.3508                12.0185                12.0481
 Frc consts  --      4.6608                16.9544                23.3887
 IR Inten    --      0.5220                 2.1522                 8.7181

                     10
                     SG
 Frequencies --   1966.7765
 Red. masses --     12.9984
 Frc consts  --     29.6244
 IR Inten    --     28.8012

 - Thermochemistry -
 -------------------
 Temperature   298.150 Kelvin.  Pressure   1.00000 Atm.
 Atom     1 has atomic number  6 and mass  12.00000

 Molecular mass:    62.00307 amu.
 Principal axes and moments of inertia in atomic units:
                           1         2         3
     Eigenvalues --     0.00000 685.48656 685.48656
           X            0.00000   0.84800  -0.52999
           Y            0.00000   0.52999   0.84800
           Z            1.00000  -0.00000  -0.00000
 This molecule is a prolate symmetric top.
 Rotational symmetry number  1.
 Warning -- assumption of classical behavior for rotation
           may cause significant error
 Rotational temperature (Kelvin)      0.12635
 Rotational constant (GHZ):           2.632789
 Zero-point vibrational energy      46518.5 (Joules/Mol)
                                   11.11819 (Kcal/Mol)
 Warning -- explicit consideration of   6 degrees of freedom as
           vibrations may cause significant error
 Vibrational temperatures:    150.84   150.84   484.78   484.78   549.69
          (Kelvin)            549.69  1151.46  2226.30  2611.63  2829.75

 Zero-point correction=                           0.017718 (Hartree/Particle)
 Thermal correction to Energy=                    0.023020
 Thermal correction to Enthalpy=                  0.023964
 Thermal correction to Gibbs Free Energy=        -0.009262
 Sum of electronic and zero-point Energies=           -206.891568
 Sum of electronic and thermal Energies=              -206.886266
 Sum of electronic and thermal Enthalpies=            -206.885322
 Sum of electronic and thermal Free Energies=         -206.918547

                     E (Thermal)             CV                S
                      KCal/Mol        Cal/Mol-Kelvin    Cal/Mol-Kelvin
 Total                   14.445             15.830             69.930
 Electronic               0.000              0.000              2.755
 Translational            0.889              2.981             38.293
 Rotational               0.592              1.987             17.420
 Vibrational             12.964             10.862             11.461
 Vibration     1          0.605              1.945              3.362
 Vibration     2          0.605              1.945              3.362
 Vibration     3          0.718              1.602              1.227
 Vibration     4          0.718              1.602              1.227
 Vibration     5          0.752              1.508              1.031
 Vibration     6          0.752              1.508              1.031

 Optimization completed.
    -- Stationary point found.
 Normal termination of Gaussian 09 at Tue Aug 16 18:01:45 2016.
