 Gaussian 09, Revision E.01,
 Gaussian 09:  EM64L-G09RevE.01 30-Nov-2015

 ---------------------------------------------
 #p b3lyp/6-311++G(3df,2p) freq symmetry=Loose
 ---------------------------------------------

 ---------
 b3lyp opt
 ---------
 Symbolic Z-matrix:
 Charge =  1 Multiplicity = 3

                         Standard orientation:
 ---------------------------------------------------------------------
 Center     Atomic      Atomic             Coordinates (Angstroms)
 Number     Number       Type             X           Y           Z
 ---------------------------------------------------------------------
      1          6           0       -0.134699   -0.114940    0.896886
      2          6           0       -0.134699    1.034846   -0.000000
      3          6           0       -0.820542   -1.003974    0.000000
      4          6           0       -0.134699   -0.114940   -0.896886
      5          7           0        1.049691    0.170579   -0.000000
 ---------------------------------------------------------------------

 SCF Done:  E(UB3LYP) =  -206.399496751     A.U. after   17 cycles

 The electronic state is 3-A'.
 Alpha  occ. eigenvalues --  -14.70734 -10.62394 -10.60549 -10.59144 -10.59139
 Alpha  occ. eigenvalues --   -1.43187  -1.10872  -0.95458  -0.93969  -0.77341
 Alpha  occ. eigenvalues --   -0.77175  -0.67941  -0.63988  -0.63416  -0.62353
 Alpha  occ. eigenvalues --   -0.59372
 Alpha virt. eigenvalues --   -0.41767  -0.41159  -0.20075  -0.19545  -0.16599
 Alpha virt. eigenvalues --   -0.15460  -0.13200  -0.12764  -0.08470  -0.08421
 Alpha virt. eigenvalues --   -0.06982  -0.06405  -0.06165  -0.05980  -0.05372

  Beta  occ. eigenvalues --  -14.70456 -10.60674 -10.58812 -10.58711 -10.58708
  Beta  occ. eigenvalues --   -1.42322  -1.08630  -0.94360  -0.91468  -0.75818
  Beta  occ. eigenvalues --   -0.71592  -0.64632  -0.62605  -0.61332
  Beta virt. eigenvalues --   -0.47541  -0.45994  -0.38731  -0.36735  -0.19062
  Beta virt. eigenvalues --   -0.17075  -0.14813  -0.14196  -0.12666  -0.12014
  Beta virt. eigenvalues --   -0.08116  -0.07960  -0.06304  -0.06247  -0.05713

 Mulliken charges and spin densities:
               1          2
     1  C    0.706844   0.043560
     2  C    0.002013   0.785483
     3  C   -0.113823   0.991593
     4  C    0.706844   0.043560
     5  N   -0.301878   0.135805
 Sum of Mulliken charges =   1.00000   2.00000

 Dipole moment (field-independent basis, Debye):
    X=             -1.6844    Y=             -0.3551    Z=             -0.0000  Tot=              1.7214
 Quadrupole moment (field-independent basis, Debye-Ang):
   XX=            -23.2708   YY=            -20.3366   ZZ=            -22.0460
   XY=              1.6701   XZ=              0.0000   YZ=              0.0000

  Exact polarizability:  33.533   6.751  38.555  -0.000   0.000  39.493
 Approx polarizability:  73.620  25.485  86.963  -0.000  -0.000 108.975

                      1                      2                      3
                     A'                     A"                     A'
 Frequencies --    160.9037               545.0980               658.1311
 Red. masses --     12.0481                12.5068                12.6591
 Frc consts  --      0.1838                 2.1895                 3.2306
 IR Inten    --      1.3320                 0.5307                 0.0083

                      4                      5                      6
                     A"                     A'                     A"
 Frequencies --    757.4707               767.3402               893.8142
 Red. masses --     12.2300                12.1230                12.0023
 Frc consts  --      4.1343                 4.2057                 5.6495
 IR Inten    --     24.9028                 4.9154                46.9968

                      7                      8                      9
                     A'                     A'                     A'
 Frequencies --    918.3382              1188.8881              1331.8397
 Red. masses --     13.2180                12.0184                12.1969
 Frc consts  --      6.5678                10.0087                12.7469
 IR Inten    --      5.6338                 7.8876                 5.9238

 - Thermochemistry -
 -------------------
 Temperature   298.150 Kelvin.  Pressure   1.00000 Atm.
 Atom     1 has atomic number  6 and mass  12.00000

 Molecular mass:    62.00307 amu.
 Principal axes and moments of inertia in atomic units:
                           1         2         3
     Eigenvalues --   118.21898 177.95650 197.62127
           X            0.68269   0.00000   0.73071
           Y            0.73071   0.00000  -0.68269
           Z           -0.00000   1.00000  -0.00000
 This molecule is an asymmetric top.
 Rotational symmetry number  1.
 Rotational temperatures (Kelvin)      0.73266     0.48671     0.43828
 Rotational constants (GHZ):          15.26609    10.14147     9.13232
 Zero-point vibrational energy      43196.1 (Joules/Mol)
                                   10.32412 (Kcal/Mol)
 Warning -- explicit consideration of   2 degrees of freedom as
           vibrations may cause significant error
 Vibrational temperatures:    231.50   784.27   946.90  1089.83  1104.03
          (Kelvin)           1286.00  1321.28  1710.54  1916.22

 Zero-point correction=                           0.016453 (Hartree/Particle)
 Thermal correction to Energy=                    0.020546
 Thermal correction to Enthalpy=                  0.021490
 Thermal correction to Gibbs Free Energy=        -0.010674
 Sum of electronic and zero-point Energies=           -206.383044
 Sum of electronic and thermal Energies=              -206.378951
 Sum of electronic and thermal Enthalpies=            -206.378006
 Sum of electronic and thermal Free Energies=         -206.410171

                     E (Thermal)             CV                S
                      KCal/Mol        Cal/Mol-Kelvin    Cal/Mol-Kelvin
 Total                   12.893             12.673             67.696
 Electronic               0.000              0.000              2.183
 Translational            0.889              2.981             38.293
 Rotational               0.889              2.981             22.946
 Vibrational             11.115              6.711              4.274
 Vibration     1          0.622              1.890              2.539
 Vibration     2          0.900              1.150              0.554

 Optimization completed.
    -- Stationary point found.
 Normal termination of Gaussian 09 at Tue Aug 16 18:08:16 2016.
