 Gaussian 09, Revision E.01,
 Gaussian 09:  EM64L-G09RevE.01 30-Nov-2015

 ---------------------------------------------
 #p b3lyp/6-311++G(3df,2p) freq symmetry=Loose
 ---------------------------------------------

 ---------
 b3lyp opt
 ---------
 Symbolic Z-matrix:
 Charge =  0 Multiplicity = 2

                         Standard orientation:
 ---------------------------------------------------------------------
 Center     Atomic      Atomic             Coordinates (Angstroms)
 Number     Number       Type             X           Y           Z
 ---------------------------------------------------------------------
      1          6           0        0.098437   -0.166435    0.873214
      2          6           0       -1.150620    0.126355   -0.000000
      3          6           0        0.838904   -0.989622    0.000000
      4          6           0        0.098437   -0.166435   -0.873214
      5          7           0        0.098437    1.025260   -0.000000
 ---------------------------------------------------------------------

 SCF Done:  E(UB3LYP) =  -206.792565841     A.U. after   19 cycles

 The electronic state is 2-A'.
 Alpha  occ. eigenvalues --  -14.43233 -10.31974 -10.30752 -10.30746 -10.29028
 Alpha  occ. eigenvalues --   -1.14724  -0.83158  -0.66803  -0.66667  -0.49901
 Alpha  occ. eigenvalues --   -0.49713  -0.39419  -0.37298  -0.35080  -0.33333
 Alpha  occ. eigenvalues --   -0.31254
 Alpha virt. eigenvalues --   -0.14599  -0.13233   0.02205   0.02313   0.02781
 Alpha virt. eigenvalues --    0.03832   0.05246   0.06337   0.07322   0.07781
 Alpha virt. eigenvalues --    0.07989   0.09179   0.09608   0.11790   0.11863

  Beta  occ. eigenvalues --  -14.42876 -10.30683 -10.30531 -10.30529 -10.28948
  Beta  occ. eigenvalues --   -1.14053  -0.81521  -0.66238  -0.65675  -0.48897
  Beta  occ. eigenvalues --   -0.46276  -0.37297  -0.35854  -0.34927  -0.31313
  Beta virt. eigenvalues --   -0.21085  -0.12585  -0.12174   0.02524   0.02735
  Beta virt. eigenvalues --    0.02939   0.04044   0.05379   0.06773   0.07779
  Beta virt. eigenvalues --    0.07818   0.08127   0.09191   0.09982   0.11957

 Mulliken charges and spin densities:
               1          2
     1  C    0.504618  -0.018970
     2  C   -0.309240   0.055053
     3  C   -0.269654   0.817963
     4  C    0.504618  -0.018970
     5  N   -0.430340   0.164924
 Sum of Mulliken charges =  -0.00000   1.00000

 Dipole moment (field-independent basis, Debye):
    X=              1.2847    Y=             -0.7895    Z=             -0.0000  Tot=              1.5078
 Quadrupole moment (field-independent basis, Debye-Ang):
   XX=            -30.1974   YY=            -28.5965   ZZ=            -27.8335
   XY=             -0.7138   XZ=             -0.0000   YZ=             -0.0000

  Exact polarizability:  49.418  -9.833  45.020  -0.000  -0.000  46.125
 Approx polarizability: 112.797 -38.843 101.135   0.000  -0.000 119.141

                      1                      2                      3
                     A'                     A'                     A"
 Frequencies --    185.5799               449.4046               536.9681
 Red. masses --     12.0592                12.8202                12.0095
 Frc consts  --      0.2447                 1.5255                 2.0402
 IR Inten    --      0.3775                 9.4966                70.2092

                      4                      5                      6
                     A"                     A'                     A'
 Frequencies --    664.1988               688.8342               815.1156
 Red. masses --     12.5830                12.1139                12.6118
 Frc consts  --      3.2706                 3.3866                 4.9370
 IR Inten    --      0.1863                 1.3840                 5.8429

                      7                      8                      9
                     A"                     A'                     A'
 Frequencies --    856.7839              1171.5327              1265.1434
 Red. masses --     12.1434                12.6435                12.0355
 Frc consts  --      5.2521                10.2241                11.3499
 IR Inten    --     31.8740                 4.8120                 1.4488

 - Thermochemistry -
 -------------------
 Temperature   298.150 Kelvin.  Pressure   1.00000 Atm.
 Atom     1 has atomic number  6 and mass  12.00000

 Molecular mass:    62.00307 amu.
 Principal axes and moments of inertia in atomic units:
                           1         2         3
     Eigenvalues --   119.79829 185.79736 196.70063
           X           -0.66256   0.00000   0.74900
           Y            0.74900   0.00000   0.66256
           Z           -0.00000   1.00000  -0.00000
 This molecule is an asymmetric top.
 Rotational symmetry number  1.
 Rotational temperatures (Kelvin)      0.72300     0.46617     0.44033
 Rotational constants (GHZ):          15.06483     9.71349     9.17507
 Zero-point vibrational energy      39677.5 (Joules/Mol)
                                    9.48315 (Kcal/Mol)
 Warning -- explicit consideration of   3 degrees of freedom as
           vibrations may cause significant error
 Vibrational temperatures:    267.01   646.59   772.58   955.63   991.08
          (Kelvin)           1172.77  1232.72  1685.57  1820.26

 Zero-point correction=                           0.015112 (Hartree/Particle)
 Thermal correction to Energy=                    0.019406
 Thermal correction to Enthalpy=                  0.020350
 Thermal correction to Gibbs Free Energy=        -0.011683
 Sum of electronic and zero-point Energies=           -206.777453
 Sum of electronic and thermal Energies=              -206.773160
 Sum of electronic and thermal Enthalpies=            -206.772216
 Sum of electronic and thermal Free Energies=         -206.804249

                     E (Thermal)             CV                S
                      KCal/Mol        Cal/Mol-Kelvin    Cal/Mol-Kelvin
 Total                   12.177             13.680             67.419
 Electronic               0.000              0.000              1.377
 Translational            0.889              2.981             38.293
 Rotational               0.889              2.981             22.997
 Vibrational             10.400              7.718              4.751
 Vibration     1          0.632              1.860              2.272
 Vibration     2          0.808              1.362              0.798
 Vibration     3          0.892              1.168              0.572

 Optimization completed.
    -- Stationary point found.
 Normal termination of Gaussian 09 at Tue Aug 16 18:07:02 2016.
