 Gaussian 09, Revision E.01,
 Gaussian 09:  EM64L-G09RevE.01 30-Nov-2015

 ---------------------------------------------
 #p b3lyp/6-311++G(3df,2p) freq symmetry=Loose
 ---------------------------------------------

 ---------
 b3lyp opt
 ---------
 Symbolic Z-matrix:
 Charge =  1 Multiplicity = 3

                         Standard orientation:
 ---------------------------------------------------------------------
 Center     Atomic      Atomic             Coordinates (Angstroms)
 Number     Number       Type             X           Y           Z
 ---------------------------------------------------------------------
      1          6           0        0.107908   -0.632970   -0.006685
      2          6           0        1.429504   -0.380751    0.075967
      3          6           0        0.774419    0.772295   -0.120360
      4          6           0       -0.838670    0.753134    0.117517
      5          7           0       -1.262710   -0.438607   -0.056948
 ---------------------------------------------------------------------

 SCF Done:  E(UB3LYP) =  -206.491298836     A.U. after   17 cycles

 The electronic state is 3-A.
 Alpha  occ. eigenvalues --  -14.68356 -10.64083 -10.62549 -10.59701 -10.56298
 Alpha  occ. eigenvalues --   -1.39249  -1.22838  -0.95835  -0.88591  -0.81721
 Alpha  occ. eigenvalues --   -0.77852  -0.74006  -0.66953  -0.62903  -0.58122
 Alpha  occ. eigenvalues --   -0.56253
 Alpha virt. eigenvalues --   -0.42007  -0.30253  -0.29669  -0.25567  -0.18173
 Alpha virt. eigenvalues --   -0.14117  -0.12116  -0.11818  -0.10337  -0.09011
 Alpha virt. eigenvalues --   -0.08760  -0.06263  -0.06077  -0.05497  -0.04517

  Beta  occ. eigenvalues --  -14.68113 -10.63736 -10.61060 -10.58368 -10.54871
  Beta  occ. eigenvalues --   -1.38613  -1.21942  -0.92891  -0.86336  -0.78724
  Beta  occ. eigenvalues --   -0.76986  -0.69540  -0.61648  -0.61370
  Beta virt. eigenvalues --   -0.44110  -0.42845  -0.39578  -0.28663  -0.26211
  Beta virt. eigenvalues --   -0.22946  -0.16950  -0.12405  -0.11983  -0.10955
  Beta virt. eigenvalues --   -0.09680  -0.08642  -0.07888  -0.06118  -0.05541

 Mulliken charges and spin densities:
               1          2
     1  C    0.631797   0.072625
     2  C    0.252721   0.669626
     3  C    0.124679   0.540510
     4  C    0.408447   0.722191
     5  N   -0.417643  -0.004951
 Sum of Mulliken charges =   1.00000   2.00000

 Dipole moment (field-independent basis, Debye):
    X=              0.7180    Y=              0.7148    Z=              0.0768  Tot=              1.0161
 Quadrupole moment (field-independent basis, Debye-Ang):
   XX=            -21.6950   YY=            -21.8456   ZZ=            -23.7227
   XY=             -1.4904   XZ=              0.0127   YZ=              0.0597

  Exact polarizability:  53.032  -3.510  35.326  -0.003  -0.270  23.346
 Approx polarizability: 112.123  -6.054  76.472   1.269  -0.946  36.896

                      1                      2                      3
                      A                      A                      A
 Frequencies --    116.2600               429.8919               520.3940
 Red. masses --     12.1209                12.2145                12.1099
 Frc consts  --      0.0965                 1.3300                 1.9322
 IR Inten    --      3.7204                 4.6527                 2.1076

                      4                      5                      6
                      A                      A                      A
 Frequencies --    538.0999               814.2583               862.4093
 Red. masses --     12.3366                12.3503                12.7191
 Frc consts  --      2.1046                 4.8245                 5.5736
 IR Inten    --      3.8142                35.3326                 1.7231

                      7                      8                      9
                      A                      A                      A
 Frequencies --   1261.6894              1485.6174              1659.1102
 Red. masses --     12.1296                12.5195                12.2732
 Frc consts  --     11.3763                16.2799                19.9049
 IR Inten    --      6.0957                16.0331                23.8989

 - Thermochemistry -
 -------------------
 Temperature   298.150 Kelvin.  Pressure   1.00000 Atm.
 Atom     1 has atomic number  6 and mass  12.00000

 Molecular mass:    62.00307 amu.
 Principal axes and moments of inertia in atomic units:
                           1         2         3
     Eigenvalues --    84.49094 225.26415 306.50712
           X            1.00000  -0.00004  -0.00000
           Y            0.00004   1.00000  -0.00000
           Z            0.00000   0.00000   1.00000
 This molecule is an asymmetric top.
 Rotational symmetry number  1.
 Rotational temperatures (Kelvin)      1.02513     0.38450     0.28258
 Rotational constants (GHZ):          21.36017     8.01167     5.88809
 Zero-point vibrational energy      45982.8 (Joules/Mol)
                                   10.99016 (Kcal/Mol)
 Warning -- explicit consideration of   4 degrees of freedom as
           vibrations may cause significant error
 Vibrational temperatures:    167.27   618.52   748.73   774.20  1171.53
          (Kelvin)           1240.81  1815.29  2137.47  2387.09

 Zero-point correction=                           0.017514 (Hartree/Particle)
 Thermal correction to Energy=                    0.021896
 Thermal correction to Enthalpy=                  0.022840
 Thermal correction to Gibbs Free Energy=        -0.010118
 Sum of electronic and zero-point Energies=           -206.473785
 Sum of electronic and thermal Energies=              -206.469403
 Sum of electronic and thermal Enthalpies=            -206.468459
 Sum of electronic and thermal Free Energies=         -206.501417

                     E (Thermal)             CV                S
                      KCal/Mol        Cal/Mol-Kelvin    Cal/Mol-Kelvin
 Total                   13.740             13.143             69.367
 Electronic               0.000              0.000              2.183
 Translational            0.889              2.981             38.293
 Rotational               0.889              2.981             23.282
 Vibrational             11.963              7.182              5.608
 Vibration     1          0.608              1.936              3.162
 Vibration     2          0.791              1.405              0.859
 Vibration     3          0.875              1.205              0.609
 Vibration     4          0.893              1.166              0.569

 Optimization completed.
    -- Stationary point found.
 Normal termination of Gaussian 09 at Tue Aug 16 18:15:34 2016.
