 Gaussian 09, Revision E.01,
 Gaussian 09:  EM64L-G09RevE.01 30-Nov-2015

 ---------------------------------------------
 #p b3lyp/6-311++G(3df,2p) freq symmetry=Loose
 ---------------------------------------------

 ---------
 b3lyp opt
 ---------
 Symbolic Z-matrix:
 Charge =  1 Multiplicity = 1

                         Standard orientation:
 ---------------------------------------------------------------------
 Center     Atomic      Atomic             Coordinates (Angstroms)
 Number     Number       Type             X           Y           Z
 ---------------------------------------------------------------------
      1          6           0        0.000000    0.000000    1.253403
      2          6           0        0.000000    0.000000   -0.087982
      3          6           0        0.000000    0.000000   -1.326249
      4          6           0        0.000000    0.000000   -2.660389
      5          7           0        0.000000    0.000000    2.418187
 ---------------------------------------------------------------------

 SCF Done:  E(RB3LYP) =  -206.637139149     A.U. after   12 cycles

 The electronic state is 1-SG.
 Alpha  occ. eigenvalues --  -14.64938 -10.59707 -10.59103 -10.51686 -10.50628
 Alpha  occ. eigenvalues --   -1.21652  -1.13485  -1.04142  -0.95145  -0.69567
 Alpha  occ. eigenvalues --   -0.69567  -0.65786  -0.61486  -0.61486  -0.59953
 Alpha virt. eigenvalues --   -0.44819  -0.44819  -0.26932  -0.26932  -0.17796
 Alpha virt. eigenvalues --   -0.12805  -0.11088  -0.11088  -0.10797  -0.10797
 Alpha virt. eigenvalues --   -0.10005  -0.06212  -0.06212  -0.05790  -0.04358

 Mulliken charges:
               1
     1  C   -0.133543
     2  C    0.741526
     3  C    1.606532
     4  C   -0.515602
     5  N   -0.698913
 Sum of Mulliken charges =   1.00000

 Dipole moment (field-independent basis, Debye):
    X=              0.0000    Y=              0.0000    Z=             -2.1910  Tot=              2.1910
 Quadrupole moment (field-independent basis, Debye-Ang):
   XX=            -23.7777   YY=            -23.7777   ZZ=            -15.6917
   XY=              0.0000   XZ=              0.0000   YZ=              0.0000

  Exact polarizability:  25.732  -0.000  25.732   0.000  -0.000 104.217
 Approx polarizability:  37.338  -0.000  37.338  -0.000  -0.000 324.209

                      1                      2                      3
                     PI                     PI                     PI
 Frequencies --    106.4066               106.4066               261.3153
 Red. masses --     12.3048                12.3048                12.3220
 Frc consts  --      0.0821                 0.0821                 0.4957
 IR Inten    --      8.5153                 8.5153                 2.0542

                      4                      5                      6
                     PI                     PI                     PI
 Frequencies --    261.3153               564.8006               564.8006
 Red. masses --     12.3220                12.0388                12.0388
 Frc consts  --      0.4957                 2.2627                 2.2627
 IR Inten    --      2.0542                 0.2435                 0.2435

                      7                      8                      9
                     SG                     SG                     SG
 Frequencies --    755.9297              1418.0077              2198.0170
 Red. masses --     12.5961                12.1799                12.2935
 Frc consts  --      4.2408                14.4294                34.9937
 IR Inten    --     38.0612               190.9980               365.5220

                     10
                     SG
 Frequencies --   2324.6075
 Red. masses --     12.3048
 Frc consts  --     39.1765
 IR Inten    --   1409.3953

 - Thermochemistry -
 -------------------
 Temperature   298.150 Kelvin.  Pressure   1.00000 Atm.
 Atom     1 has atomic number  6 and mass  12.00000

 Molecular mass:    62.00307 amu.
 Principal axes and moments of inertia in atomic units:
                           1         2         3
     Eigenvalues --     0.00000 738.74320 738.74320
           X            0.00000  -0.00000   1.00000
           Y            0.00000   1.00000   0.00000
           Z            1.00000   0.00000   0.00000
 This molecule is a prolate symmetric top.
 Rotational symmetry number  1.
 Warning -- assumption of classical behavior for rotation
           may cause significant error
 Rotational temperature (Kelvin)      0.11724
 Rotational constant (GHZ):           2.442989
 Zero-point vibrational energy      51209.8 (Joules/Mol)
                                   12.23943 (Kcal/Mol)
 Warning -- explicit consideration of   6 degrees of freedom as
           vibrations may cause significant error
 Vibrational temperatures:    153.10   153.10   375.97   375.97   812.62
          (Kelvin)            812.62  1087.61  2040.19  3162.45  3344.59

 Zero-point correction=                           0.019505 (Hartree/Particle)
 Thermal correction to Energy=                    0.024712
 Thermal correction to Enthalpy=                  0.025656
 Thermal correction to Gibbs Free Energy=        -0.006238
 Sum of electronic and zero-point Energies=           -206.617634
 Sum of electronic and thermal Energies=              -206.612427
 Sum of electronic and thermal Enthalpies=            -206.611483
 Sum of electronic and thermal Free Energies=         -206.643378

                     E (Thermal)             CV                S
                      KCal/Mol        Cal/Mol-Kelvin    Cal/Mol-Kelvin
 Total                   15.507             15.393             67.128
 Electronic               0.000              0.000              0.000
 Translational            0.889              2.981             38.293
 Rotational               0.592              1.987             17.569
 Vibrational             14.026             10.425             11.265
 Vibration     1          0.605              1.944              3.333
 Vibration     2          0.605              1.944              3.333
 Vibration     3          0.669              1.744              1.653
 Vibration     4          0.669              1.744              1.653
 Vibration     5          0.921              1.107              0.514
 Vibration     6          0.921              1.107              0.514

 Optimization completed.
    -- Stationary point found.
 Normal termination of Gaussian 09 at Tue Aug 16 17:55:22 2016.
