 Gaussian 09, Revision E.01,
 Gaussian 09:  EM64L-G09RevE.01 30-Nov-2015

 ---------------------------------------------
 #p b3lyp/6-311++G(3df,2p) freq symmetry=Loose
 ---------------------------------------------

 ---------
 b3lyp opt
 ---------
 Symbolic Z-matrix:
 Charge =  1 Multiplicity = 3

                         Standard orientation:
 ---------------------------------------------------------------------
 Center     Atomic      Atomic             Coordinates (Angstroms)
 Number     Number       Type             X           Y           Z
 ---------------------------------------------------------------------
      1          6           0       -0.923274    0.748342    0.004016
      2          6           0        0.807484    0.786285   -0.004100
      3          6           0        0.125583   -0.595200   -0.000183
      4          6           0        1.451840   -0.386806    0.002727
      5          7           0       -1.252827   -0.473676   -0.002108
 ---------------------------------------------------------------------

 SCF Done:  E(UB3LYP) =  -206.491268867     A.U. after   16 cycles

 The electronic state is 3-A.
 Alpha  occ. eigenvalues --  -14.68190 -10.63908 -10.62472 -10.59617 -10.55967
 Alpha  occ. eigenvalues --   -1.38605  -1.23408  -0.94475  -0.88771  -0.81219
 Alpha  occ. eigenvalues --   -0.77445  -0.73235  -0.67347  -0.63112  -0.58605
 Alpha  occ. eigenvalues --   -0.56041
 Alpha virt. eigenvalues --   -0.41958  -0.28807  -0.27967  -0.24875  -0.22108
 Alpha virt. eigenvalues --   -0.15776  -0.12048  -0.11756  -0.10346  -0.09617
 Alpha virt. eigenvalues --   -0.09198  -0.06218  -0.06140  -0.05247  -0.05017

  Beta  occ. eigenvalues --  -14.67901 -10.63616 -10.61038 -10.58165 -10.54543
  Beta  occ. eigenvalues --   -1.37999  -1.22471  -0.91536  -0.86467  -0.78050
  Beta  occ. eigenvalues --   -0.76916  -0.68023  -0.61987  -0.61978
  Beta virt. eigenvalues --   -0.44046  -0.42729  -0.40070  -0.27763  -0.24809
  Beta virt. eigenvalues --   -0.21223  -0.20394  -0.14433  -0.11976  -0.11044
  Beta virt. eigenvalues --   -0.09666  -0.09032  -0.08237  -0.06106  -0.05481

 Mulliken charges and spin densities:
               1          2
     1  C    0.429522   0.674525
     2  C    0.070371   0.598805
     3  C    0.693656   0.055736
     4  C    0.221491   0.664414
     5  N   -0.415039   0.006519
 Sum of Mulliken charges =   1.00000   2.00000

 Dipole moment (field-independent basis, Debye):
    X=              0.5772    Y=              0.7099    Z=              0.0031  Tot=              0.9149
 Quadrupole moment (field-independent basis, Debye-Ang):
   XX=            -21.2253   YY=            -22.2814   ZZ=            -23.6250
   XY=             -1.5354   XZ=             -0.0001   YZ=              0.0010

  Exact polarizability:  53.940  -4.015  35.062  -0.003  -0.008  23.002
 Approx polarizability: 112.584  -7.407  74.629   0.042  -0.031  36.052

                      1                      2                      3
                      A                      A                      A
 Frequencies --     47.3799               308.9514               479.9621
 Red. masses --     12.1882                12.0672                12.3463
 Frc consts  --      0.0161                 0.6786                 1.6757
 IR Inten    --      0.6540                 0.6640                 7.7580

                      4                      5                      6
                      A                      A                      A
 Frequencies --    512.7483               796.8101               867.5192
 Red. masses --     12.1898                12.1789                12.8933
 Frc consts  --      1.8882                 4.5558                 5.7170
 IR Inten    --      3.2089                32.6816                 7.7235

                      7                      8                      9
                      A                      A                      A
 Frequencies --   1314.6196              1537.9894              1695.0496
 Red. masses --     12.1293                12.5500                12.2630
 Frc consts  --     12.3506                17.4904                20.7592
 IR Inten    --      9.8566                10.1910                23.5048

 - Thermochemistry -
 -------------------
 Temperature   298.150 Kelvin.  Pressure   1.00000 Atm.
 Atom     1 has atomic number  6 and mass  12.00000

 Molecular mass:    62.00307 amu.
 Principal axes and moments of inertia in atomic units:
                           1         2         3
     Eigenvalues --    83.30617 233.96311 317.26538
           X            1.00000  -0.00004  -0.00000
           Y            0.00004   1.00000  -0.00000
           Z            0.00000   0.00000   1.00000
 This molecule is an asymmetric top.
 Rotational symmetry number  1.
 Rotational temperatures (Kelvin)      1.03970     0.37020     0.27300
 Rotational constants (GHZ):          21.66396     7.71379     5.68843
 Zero-point vibrational energy      45225.0 (Joules/Mol)
                                   10.80903 (Kcal/Mol)
 Warning -- explicit consideration of   4 degrees of freedom as
           vibrations may cause significant error
 Vibrational temperatures:     68.17   444.51   690.56   737.73  1146.43
          (Kelvin)           1248.17  1891.44  2212.82  2438.80

 Zero-point correction=                           0.017225 (Hartree/Particle)
 Thermal correction to Energy=                    0.021919
 Thermal correction to Enthalpy=                  0.022863
 Thermal correction to Gibbs Free Energy=        -0.011278
 Sum of electronic and zero-point Energies=           -206.474044
 Sum of electronic and thermal Energies=              -206.469350
 Sum of electronic and thermal Enthalpies=            -206.468406
 Sum of electronic and thermal Free Energies=         -206.502547

                     E (Thermal)             CV                S
                      KCal/Mol        Cal/Mol-Kelvin    Cal/Mol-Kelvin
 Total                   13.754             13.559             71.855
 Electronic               0.000              0.000              2.183
 Translational            0.889              2.981             38.293
 Rotational               0.889              2.981             23.340
 Vibrational             11.977              7.597              8.039
 Vibration     1          0.595              1.979              4.924
 Vibration     2          0.698              1.657              1.368
 Vibration     3          0.836              1.295              0.710
 Vibration     4          0.868              1.222              0.627

 Normal termination of Gaussian 09 at Tue Aug 16 18:15:20 2016.
