 Gaussian 09, Revision E.01,
 Gaussian 09:  EM64L-G09RevE.01 30-Nov-2015

 ---------------------------------------------
 #p b3lyp/6-311++G(3df,2p) freq symmetry=Loose
 ---------------------------------------------

 ---------
 b3lyp opt
 ---------
 Symbolic Z-matrix:
 Charge =  1 Multiplicity = 1

                         Standard orientation:
 ---------------------------------------------------------------------
 Center     Atomic      Atomic             Coordinates (Angstroms)
 Number     Number       Type             X           Y           Z
 ---------------------------------------------------------------------
      1          6           0        1.796135   -0.788284    0.000169
      2          6           0        0.658223   -0.036941   -0.000187
      3          6           0       -0.757793   -0.234425   -0.000302
      4          6           0        0.541251    1.339801    0.000084
      5          7           0       -1.918127   -0.240130    0.000203
 ---------------------------------------------------------------------

 SCF Done:  E(RB3LYP) =  -206.509508998     A.U. after   14 cycles

 The electronic state is 1-A.
 Alpha  occ. eigenvalues --  -14.62458 -10.64505 -10.63576 -10.54638 -10.51984
 Alpha  occ. eigenvalues --   -1.22390  -1.17085  -1.02010  -0.89452  -0.70671
 Alpha  occ. eigenvalues --   -0.66414  -0.64471  -0.63818  -0.61425  -0.60137
 Alpha virt. eigenvalues --   -0.45281  -0.44980  -0.42847  -0.31112  -0.21882
 Alpha virt. eigenvalues --   -0.17110  -0.16432  -0.12897  -0.10856  -0.10249
 Alpha virt. eigenvalues --   -0.08640  -0.07775  -0.06611  -0.06245  -0.05801

 Mulliken charges:
               1
     1  C    0.013162
     2  C    1.271735
     3  C    0.360590
     4  C    0.030120
     5  N   -0.675607
 Sum of Mulliken charges =   1.00000

 Dipole moment (field-independent basis, Debye):
    X=              3.6393    Y=              0.1568    Z=             -0.0007  Tot=              3.6427
 Quadrupole moment (field-independent basis, Debye-Ang):
   XX=            -21.2253   YY=            -22.1678   ZZ=            -24.4309
   XY=              0.5464   XZ=              0.0004   YZ=              0.0003

  Exact polarizability:  64.916  -2.570  43.668  -0.001   0.000  27.229
 Approx polarizability: 149.740 -15.941 101.214  -0.008   0.000  41.786

                      1                      2                      3
                      A                      A                      A
 Frequencies --     93.3929               211.1667               223.6537
 Red. masses --     12.5273                12.2704                12.1442
 Frc consts  --      0.0644                 0.3224                 0.3579
 IR Inten    --     27.0033                 8.9255                 0.3650

                      4                      5                      6
                      A                      A                      A
 Frequencies --    360.5758               425.1457               822.8902
 Red. masses --     12.1905                12.1864                12.4506
 Frc consts  --      0.9338                 1.2978                 4.9673
 IR Inten    --     25.9577                 0.1921                33.4811

                      7                      8                      9
                      A                      A                      A
 Frequencies --   1222.5944              1566.2084              2264.7842
 Red. masses --     12.0395                12.0577                12.6680
 Frc consts  --     10.6029                17.4266                38.2835
 IR Inten    --     44.0783               582.4105                87.0558

 - Thermochemistry -
 -------------------
 Temperature   298.150 Kelvin.  Pressure   1.00000 Atm.
 Atom     1 has atomic number  6 and mass  12.00000

 Molecular mass:    62.00307 amu.
 Principal axes and moments of inertia in atomic units:
                           1         2         3
     Eigenvalues --   108.84886 377.95785 486.80669
           X            1.00000  -0.00002   0.00000
           Y            0.00002   1.00000   0.00000
           Z           -0.00000  -0.00000   1.00000
 This molecule is an asymmetric top.
 Rotational symmetry number  1.
 Rotational temperatures (Kelvin)      0.79573     0.22916     0.17792
 Rotational constants (GHZ):          16.58025     4.77498     3.70731
 Zero-point vibrational energy      43008.2 (Joules/Mol)
                                   10.27921 (Kcal/Mol)
 Warning -- explicit consideration of   5 degrees of freedom as
           vibrations may cause significant error
 Vibrational temperatures:    134.37   303.82   321.79   518.79   611.69
          (Kelvin)           1183.95  1759.04  2253.42  3258.52

 Zero-point correction=                           0.016381 (Hartree/Particle)
 Thermal correction to Energy=                    0.021756
 Thermal correction to Enthalpy=                  0.022700
 Thermal correction to Gibbs Free Energy=        -0.011787
 Sum of electronic and zero-point Energies=           -206.493128
 Sum of electronic and thermal Energies=              -206.487753
 Sum of electronic and thermal Enthalpies=            -206.486809
 Sum of electronic and thermal Free Energies=         -206.521296

                     E (Thermal)             CV                S
                      KCal/Mol        Cal/Mol-Kelvin    Cal/Mol-Kelvin
 Total                   13.652             15.381             72.583
 Electronic               0.000              0.000              0.000
 Translational            0.889              2.981             38.293
 Rotational               0.889              2.981             24.508
 Vibrational             11.874              9.420              9.781
 Vibration     1          0.602              1.954              3.588
 Vibration     2          0.643              1.824              2.034
 Vibration     3          0.649              1.805              1.929
 Vibration     4          0.735              1.553              1.120
 Vibration     5          0.787              1.416              0.875

 Optimization completed.
    -- Stationary point found.
 Normal termination of Gaussian 09 at Tue Aug 16 18:03:28 2016.
