 Gaussian 09, Revision E.01,
 Gaussian 09:  EM64L-G09RevE.01 30-Nov-2015

 ---------------------------------------------
 #p b3lyp/6-311++G(3df,2p) freq symmetry=Loose
 ---------------------------------------------

 ---------
 b3lyp opt
 ---------
 Symbolic Z-matrix:
 Charge =  1 Multiplicity = 1

                         Standard orientation:
 ---------------------------------------------------------------------
 Center     Atomic      Atomic             Coordinates (Angstroms)
 Number     Number       Type             X           Y           Z
 ---------------------------------------------------------------------
      1          6           0       -0.000000   -1.986535   -0.585355
      2          6           0        0.000000    1.986535   -0.585355
      3          6           0        0.000000    0.746930   -0.034783
      4          6           0       -0.000000   -0.746930   -0.034783
      5          7           0       -0.000000    0.000000    1.063094
 ---------------------------------------------------------------------

 SCF Done:  E(RB3LYP) =  -206.450259449     A.U. after   11 cycles

 The electronic state is 1-A1.
 Alpha  occ. eigenvalues --  -14.74166 -10.58140 -10.58138 -10.55968 -10.55941
 Alpha  occ. eigenvalues --   -1.38168  -1.06410  -1.04468  -0.84541  -0.81677
 Alpha  occ. eigenvalues --   -0.75783  -0.63852  -0.59492  -0.59331  -0.55771
 Alpha virt. eigenvalues --   -0.46819  -0.44658  -0.37623  -0.27481  -0.22968
 Alpha virt. eigenvalues --   -0.17264  -0.11738  -0.11330  -0.11013  -0.09342
 Alpha virt. eigenvalues --   -0.07797  -0.07066  -0.05873  -0.05482  -0.04279

 Mulliken charges:
               1
     1  C   -0.081495
     2  C   -0.081495
     3  C    0.789313
     4  C    0.789313
     5  N   -0.415636
 Sum of Mulliken charges =   1.00000

 Dipole moment (field-independent basis, Debye):
    X=             -0.0000    Y=              0.0000    Z=             -0.3856  Tot=              0.3856
 Quadrupole moment (field-independent basis, Debye-Ang):
   XX=            -24.5160   YY=            -19.6307   ZZ=            -23.7883
   XY=             -0.0000   XZ=              0.0000   YZ=              0.0000

  Exact polarizability:  27.792   0.000  90.384   0.000  -0.000  36.347
 Approx polarizability:  42.533   0.000 376.073  -0.000  -0.000  68.836

                      1                      2                      3
                     A1                     B1                     B2
 Frequencies --    147.0968               241.7892               281.5296
 Red. masses --     12.1604                12.2042                12.3127
 Frc consts  --      0.1550                 0.4204                 0.5750
 IR Inten    --      9.8264                 8.4527                 1.0507

                      4                      5                      6
                     A2                     A1                     B2
 Frequencies --    361.1852               668.5705               958.0719
 Red. masses --     12.0000                12.0439                12.8392
 Frc consts  --      0.9223                 3.1718                 6.9436
 IR Inten    --      0.0000                 0.4932                29.1514

                      7                      8                      9
                     A1                     B2                     A1
 Frequencies --   1121.2056              1390.3456              1823.3786
 Red. masses --     12.9069                12.0344                12.2905
 Frc consts  --      9.5597                13.7063                24.0755
 IR Inten    --      6.5664              1537.7598                31.2979

 - Thermochemistry -
 -------------------
 Temperature   298.150 Kelvin.  Pressure   1.00000 Atm.
 Atom     1 has atomic number  6 and mass  12.00000

 Molecular mass:    62.00307 amu.
 Principal axes and moments of inertia in atomic units:
                           1         2         3
     Eigenvalues --    85.98498 386.03701 472.02199
           X            0.00000   0.00000   1.00000
           Y            1.00000   0.00000  -0.00000
           Z           -0.00000   1.00000   0.00000
 This molecule is an asymmetric top.
 Rotational symmetry number  2.
 Rotational temperatures (Kelvin)      1.00731     0.22437     0.18350
 Rotational constants (GHZ):          20.98903     4.67505     3.82343
 Zero-point vibrational energy      41828.5 (Joules/Mol)
                                    9.99724 (Kcal/Mol)
 Warning -- explicit consideration of   4 degrees of freedom as
           vibrations may cause significant error
 Vibrational temperatures:    211.64   347.88   405.06   519.66   961.92
          (Kelvin)           1378.45  1613.16  2000.39  2623.43

 Zero-point correction=                           0.015932 (Hartree/Particle)
 Thermal correction to Energy=                    0.020905
 Thermal correction to Enthalpy=                  0.021849
 Thermal correction to Gibbs Free Energy=        -0.010867
 Sum of electronic and zero-point Energies=           -206.434328
 Sum of electronic and thermal Energies=              -206.429355
 Sum of electronic and thermal Enthalpies=            -206.428411
 Sum of electronic and thermal Free Energies=         -206.461126

                     E (Thermal)             CV                S
                      KCal/Mol        Cal/Mol-Kelvin    Cal/Mol-Kelvin
 Total                   13.118             14.615             68.856
 Electronic               0.000              0.000              0.000
 Translational            0.889              2.981             38.293
 Rotational               0.889              2.981             22.887
 Vibrational             11.340              8.653              7.676
 Vibration     1          0.617              1.906              2.709
 Vibration     2          0.658              1.776              1.790
 Vibration     3          0.681              1.708              1.524
 Vibration     4          0.735              1.552              1.117

 Optimization completed.
    -- Stationary point found.
 Normal termination of Gaussian 09 at Tue Aug 16 17:51:46 2016.
