 Gaussian 09, Revision E.01,
 Gaussian 09:  EM64L-G09RevE.01 30-Nov-2015

 ---------------------------------------------
 #p b3lyp/6-311++G(3df,2p) freq symmetry=Loose
 ---------------------------------------------

 ---------
 b3lyp opt
 ---------
 Symbolic Z-matrix:
 Charge =  0 Multiplicity = 2

                         Standard orientation:
 ---------------------------------------------------------------------
 Center     Atomic      Atomic             Coordinates (Angstroms)
 Number     Number       Type             X           Y           Z
 ---------------------------------------------------------------------
      1          6           0       -0.000000    1.106076   -0.098360
      2          6           0       -0.915671    0.000000   -0.458384
      3          6           0       -0.000000   -1.106076   -0.098360
      4          6           0        0.915671   -0.000000   -0.458384
      5          7           0        0.000000   -0.000000    0.954417
 ---------------------------------------------------------------------

 SCF Done:  E(UB3LYP) =  -206.800028470     A.U. after   14 cycles

 The electronic state is 2-B2.
 Alpha  occ. eigenvalues --  -14.45407 -10.31487 -10.31487 -10.31041 -10.31039
 Alpha  occ. eigenvalues --   -1.15819  -0.76413  -0.74038  -0.68409  -0.46393
 Alpha  occ. eigenvalues --   -0.45578  -0.44561  -0.39173  -0.35662  -0.33492
 Alpha  occ. eigenvalues --   -0.31893
 Alpha virt. eigenvalues --   -0.12178  -0.06695  -0.02709   0.00663   0.02520
 Alpha virt. eigenvalues --    0.02850   0.03489   0.05669   0.07423   0.07958
 Alpha virt. eigenvalues --    0.08237   0.09093   0.09675   0.09831   0.11747

  Beta  occ. eigenvalues --  -14.45404 -10.30993 -10.30986 -10.30607 -10.30604
  Beta  occ. eigenvalues --   -1.15088  -0.74770  -0.73735  -0.68082  -0.44778
  Beta  occ. eigenvalues --   -0.43949  -0.43909  -0.35762  -0.35697  -0.31720
  Beta virt. eigenvalues --   -0.19687  -0.11744  -0.06500  -0.02722   0.01524
  Beta virt. eigenvalues --    0.02688   0.03090   0.03987   0.06179   0.07533
  Beta virt. eigenvalues --    0.08052   0.08297   0.09405   0.09701   0.10343

 Mulliken charges and spin densities:
               1          2
     1  C    0.226329   0.491723
     2  C   -0.064884   0.022104
     3  C    0.226329   0.491723
     4  C   -0.064884   0.022104
     5  N   -0.322889  -0.027653
 Sum of Mulliken charges =  -0.00000   1.00000

 Dipole moment (field-independent basis, Debye):
    X=              0.0000    Y=             -0.0000    Z=             -0.3540  Tot=              0.3540
 Quadrupole moment (field-independent basis, Debye-Ang):
   XX=            -29.3634   YY=            -29.8188   ZZ=            -28.5857
   XY=              0.0000   XZ=             -0.0000   YZ=             -0.0000

  Exact polarizability:  47.721  -0.000  70.255   0.000   0.000  38.602
 Approx polarizability: 117.487   0.000 149.048  -0.000  -0.000  86.473

                      1                      2                      3
                     B2                     A1                     B1
 Frequencies --    325.0451               352.5520               472.6439
 Red. masses --     12.8640                12.0007                12.5540
 Frc consts  --      0.8008                 0.8788                 1.6523
 IR Inten    --      0.0543                 5.9464                68.8636

                      4                      5                      6
                     A2                     A1                     B1
 Frequencies --    746.7351               787.9944               873.7404
 Red. masses --     12.0000                12.1265                12.2298
 Frc consts  --      3.9424                 4.4364                 5.5009
 IR Inten    --      0.0000                 0.6626                 5.6978

                      7                      8                      9
                     A1                     B2                     A1
 Frequencies --    919.7812               943.5038              1255.4570
 Red. masses --     13.2441                12.0612                12.0763
 Frc consts  --      6.6015                 6.3260                11.2147
 IR Inten    --     10.5737               235.4697                 0.0067

 - Thermochemistry -
 -------------------
 Temperature   298.150 Kelvin.  Pressure   1.00000 Atm.
 Atom     1 has atomic number  6 and mass  12.00000

 Molecular mass:    62.00307 amu.
 Principal axes and moments of inertia in atomic units:
                           1         2         3
     Eigenvalues --   136.24833 169.24077 176.71267
           X           -0.00000   1.00000   0.00000
           Y            1.00000   0.00000   0.00000
           Z            0.00000   0.00000   1.00000
 This molecule is an asymmetric top.
 Rotational symmetry number  2.
 Rotational temperatures (Kelvin)      0.63571     0.51178     0.49014
 Rotational constants (GHZ):          13.24597    10.66375    10.21286
 Zero-point vibrational energy      39940.0 (Joules/Mol)
                                    9.54590 (Kcal/Mol)
 Warning -- explicit consideration of   3 degrees of freedom as
           vibrations may cause significant error
 Vibrational temperatures:    467.67   507.24   680.03  1074.38  1133.75
          (Kelvin)           1257.12  1323.36  1357.49  1806.32

 Zero-point correction=                           0.015212 (Hartree/Particle)
 Thermal correction to Energy=                    0.019384
 Thermal correction to Enthalpy=                  0.020329
 Thermal correction to Gibbs Free Energy=        -0.010695
 Sum of electronic and zero-point Energies=           -206.784816
 Sum of electronic and thermal Energies=              -206.780644
 Sum of electronic and thermal Enthalpies=            -206.779700
 Sum of electronic and thermal Free Energies=         -206.810724

                     E (Thermal)             CV                S
                      KCal/Mol        Cal/Mol-Kelvin    Cal/Mol-Kelvin
 Total                   12.164             13.506             65.296
 Electronic               0.000              0.000              1.377
 Translational            0.889              2.981             38.293
 Rotational               0.889              2.981             21.548
 Vibrational             10.386              7.544              4.076
 Vibration     1          0.709              1.625              1.285
 Vibration     2          0.729              1.570              1.155
 Vibration     3          0.830              1.311              0.730

 Optimization completed.
    -- Stationary point found.
 Normal termination of Gaussian 09 at Tue Aug 16 18:00:08 2016.
