 Gaussian 09, Revision E.01,
 Gaussian 09:  EM64L-G09RevE.01 30-Nov-2015

 ---------------------------------------------
 #p b3lyp/6-311++G(3df,2p) freq symmetry=Loose
 ---------------------------------------------

 ---------
 b3lyp opt
 ---------
 Symbolic Z-matrix:
 Charge =  0 Multiplicity = 2

                         Standard orientation:
 ---------------------------------------------------------------------
 Center     Atomic      Atomic             Coordinates (Angstroms)
 Number     Number       Type             X           Y           Z
 ---------------------------------------------------------------------
      1          6           0        0.050072   -0.113732    0.877694
      2          7           0        0.740917    0.795863    0.000000
      3          6           0        0.050072   -0.113732   -0.877694
      4          6           0        0.050072   -1.278990   -0.000000
      5          6           0       -1.014618    0.577948   -0.000000
 ---------------------------------------------------------------------

 SCF Done:  E(UB3LYP) =  -206.792474029     A.U. after   18 cycles

 The electronic state is 2-A'.
 Alpha  occ. eigenvalues --  -14.43672 -10.31885 -10.31060 -10.31053 -10.30479
 Alpha  occ. eigenvalues --   -1.13940  -0.81482  -0.69422  -0.66800  -0.48306
 Alpha  occ. eigenvalues --   -0.48282  -0.38665  -0.38365  -0.36957  -0.32376
 Alpha  occ. eigenvalues --   -0.31701
 Alpha virt. eigenvalues --   -0.13887  -0.13090  -0.05406   0.02351   0.02778
 Alpha virt. eigenvalues --    0.03746   0.04432   0.06589   0.07515   0.08122
 Alpha virt. eigenvalues --    0.08517   0.08616   0.08902   0.11662   0.12145

  Beta  occ. eigenvalues --  -14.42981 -10.31006 -10.30994 -10.30890 -10.30327
  Beta  occ. eigenvalues --   -1.12849  -0.79344  -0.68245  -0.66440  -0.47414
  Beta  occ. eigenvalues --   -0.45148  -0.38387  -0.36178  -0.35366  -0.31948
  Beta virt. eigenvalues --   -0.20202  -0.12771  -0.12426  -0.03714   0.02480
  Beta virt. eigenvalues --    0.02879   0.03917   0.04767   0.06754   0.07630
  Beta virt. eigenvalues --    0.08143   0.08575   0.08802   0.08925   0.11858

 Mulliken charges and spin densities:
               1          2
     1  C    0.512840  -0.036919
     2  N   -0.531541   0.318837
     3  C    0.512840  -0.036919
     4  C   -0.181788   0.627009
     5  C   -0.312351   0.127991
 Sum of Mulliken charges =  -0.00000   1.00000

 Dipole moment (field-independent basis, Debye):
    X=              0.4230    Y=             -0.9785    Z=             -0.0000  Tot=              1.0660
 Quadrupole moment (field-independent basis, Debye-Ang):
   XX=            -29.9394   YY=            -29.7477   ZZ=            -28.1077
   XY=              0.2946   XZ=             -0.0000   YZ=              0.0000

  Exact polarizability:  43.589  -3.642  57.484  -0.000  -0.000  46.509
 Approx polarizability:  93.048 -12.341 137.612   0.000   0.000 124.954

                      1                      2                      3
                     A'                     A"                     A'
 Frequencies --    206.0433               466.6571               482.8764
 Red. masses --     12.2648                12.2489                12.5349
 Frc consts  --      0.3068                 1.5716                 1.7220
 IR Inten    --     23.1429                12.0598                33.6331

                      4                      5                      6
                     A"                     A"                     A'
 Frequencies --    627.3266               760.1936               812.0404
 Red. masses --     12.2715                12.1885                12.1296
 Frc consts  --      2.8454                 4.1500                 4.7125
 IR Inten    --      5.6134                72.9476                 1.8793

                      7                      8                      9
                     A'                     A'                     A'
 Frequencies --    960.2856              1044.1649              1231.4933
 Red. masses --     12.4836                12.3706                12.4109
 Frc consts  --      6.7825                 7.9465                11.0896
 IR Inten    --      2.2249                16.8014                12.2606

 - Thermochemistry -
 -------------------
 Temperature   298.150 Kelvin.  Pressure   1.00000 Atm.
 Atom     1 has atomic number  6 and mass  12.00000

 Molecular mass:    62.00307 amu.
 Principal axes and moments of inertia in atomic units:
                           1         2         3
     Eigenvalues --   137.88324 183.24621 189.08353
           X            0.02482   0.99969   0.00000
           Y            0.99969  -0.02482   0.00000
           Z            0.00000   0.00000   1.00000
 This molecule is an asymmetric top.
 Rotational symmetry number  1.
 Rotational temperatures (Kelvin)      0.62817     0.47266     0.45807
 Rotational constants (GHZ):          13.08891     9.84872     9.54468
 Zero-point vibrational energy      39423.4 (Joules/Mol)
                                    9.42242 (Kcal/Mol)
 Warning -- explicit consideration of   3 degrees of freedom as
           vibrations may cause significant error
 Vibrational temperatures:    296.45   671.41   694.75   902.58  1093.75
          (Kelvin)           1168.34  1381.64  1502.32  1771.84

 Zero-point correction=                           0.015016 (Hartree/Particle)
 Thermal correction to Energy=                    0.019286
 Thermal correction to Enthalpy=                  0.020231
 Thermal correction to Gibbs Free Energy=        -0.011770
 Sum of electronic and zero-point Energies=           -206.777458
 Sum of electronic and thermal Energies=              -206.773188
 Sum of electronic and thermal Enthalpies=            -206.772243
 Sum of electronic and thermal Free Energies=         -206.804244

                     E (Thermal)             CV                S
                      KCal/Mol        Cal/Mol-Kelvin    Cal/Mol-Kelvin
 Total                   12.102             13.668             67.352
 Electronic               0.000              0.000              1.377
 Translational            0.889              2.981             38.293
 Rotational               0.889              2.981             23.084
 Vibrational             10.325              7.707              4.597
 Vibration     1          0.641              1.831              2.078
 Vibration     2          0.824              1.324              0.747
 Vibration     3          0.839              1.288              0.702

 Optimization completed.
    -- Stationary point found.
 Normal termination of Gaussian 09 at Tue Aug 16 18:06:51 2016.
