 Gaussian 09, Revision E.01,
 Gaussian 09:  EM64L-G09RevE.01 30-Nov-2015

 ---------------------------------------------
 #p b3lyp/6-311++G(3df,2p) freq symmetry=Loose
 ---------------------------------------------

 ---------
 b3lyp opt
 ---------
 Symbolic Z-matrix:
 Charge =  0 Multiplicity = 2

                         Standard orientation:
 ---------------------------------------------------------------------
 Center     Atomic      Atomic             Coordinates (Angstroms)
 Number     Number       Type             X           Y           Z
 ---------------------------------------------------------------------
      1          6           0        1.558248    0.653702   -0.001119
      2          6           0        0.217352    0.058012    0.001369
      3          6           0       -1.077132    0.001754    0.003815
      4          6           0       -2.360900    0.003355   -0.002997
      5          7           0        1.424941   -0.614419   -0.000915
 ---------------------------------------------------------------------

 SCF Done:  E(UB3LYP) =  -206.935199241     A.U. after   19 cycles

 The electronic state is 2-A.
 Alpha  occ. eigenvalues --  -14.44289 -10.35066 -10.31180 -10.26066 -10.22909
 Alpha  occ. eigenvalues --   -1.12606  -0.84666  -0.73128  -0.61761  -0.58211
 Alpha  occ. eigenvalues --   -0.50703  -0.40815  -0.38100  -0.35462  -0.33099
 Alpha  occ. eigenvalues --   -0.29692
 Alpha virt. eigenvalues --   -0.14844  -0.08775  -0.04362   0.00597   0.02719
 Alpha virt. eigenvalues --    0.04027   0.04233   0.05606   0.06343   0.07301
 Alpha virt. eigenvalues --    0.09412   0.10039   0.10174   0.11229   0.12665

  Beta  occ. eigenvalues --  -14.43973 -10.34743 -10.30621 -10.25490 -10.22849
  Beta  occ. eigenvalues --   -1.11884  -0.83897  -0.71597  -0.60072  -0.56251
  Beta  occ. eigenvalues --   -0.50451  -0.39310  -0.35144  -0.34411  -0.32051
  Beta virt. eigenvalues --   -0.20471  -0.14244  -0.08067  -0.01522   0.00694
  Beta virt. eigenvalues --    0.02902   0.04274   0.04308   0.05739   0.06423
  Beta virt. eigenvalues --    0.07681   0.09607   0.10291   0.10478   0.11474

 Mulliken charges and spin densities:
               1          2
     1  C   -0.237810   0.313852
     2  C    0.348128   0.178106
     3  C    0.980262   0.113485
     4  C   -0.640868   0.285485
     5  N   -0.449713   0.109073
 Sum of Mulliken charges =  -0.00000   1.00000

 Dipole moment (field-independent basis, Debye):
    X=              2.0766    Y=             -0.0546    Z=              0.0077  Tot=              2.0773
 Quadrupole moment (field-independent basis, Debye-Ang):
   XX=            -37.0069   YY=            -29.8679   ZZ=            -26.7786
   XY=             -0.2557   XZ=             -0.0201   YZ=              0.0001

  Exact polarizability: 104.827   6.717  39.850  -0.006  -0.005  31.804
 Approx polarizability: 232.283  12.249  62.996  -0.010  -0.011  47.381

                      1                      2                      3
                      A                      A                      A
 Frequencies --    159.1807               169.5952               454.2327
 Red. masses --     12.0713                12.1713                12.1676
 Frc consts  --      0.1802                 0.2063                 1.4791
 IR Inten    --      9.0284                12.3496                 0.4656

                      4                      5                      6
                      A                      A                      A
 Frequencies --    531.9752               688.1478               771.9590
 Red. masses --     12.0392                12.1077                13.0223
 Frc consts  --      2.0074                 3.3781                 4.5722
 IR Inten    --      7.3941                17.2499                 6.7132

                      7                      8                      9
                      A                      A                      A
 Frequencies --   1284.6822              1664.5844              2008.1941
 Red. masses --     12.3071                12.5692                12.0447
 Frc consts  --     11.9673                20.5196                28.6192
 IR Inten    --      5.3153                 5.7279               750.1991

 - Thermochemistry -
 -------------------
 Temperature   298.150 Kelvin.  Pressure   1.00000 Atm.
 Atom     1 has atomic number  6 and mass  12.00000

 Molecular mass:    62.00307 amu.
 Principal axes and moments of inertia in atomic units:
                           1         2         3
     Eigenvalues --    37.33588 496.18615 533.51966
           X            1.00000   0.00002   0.00000
           Y           -0.00002   1.00000  -0.00000
           Z           -0.00000   0.00000   1.00000
 This molecule is an asymmetric top.
 Rotational symmetry number  1.
 Rotational temperatures (Kelvin)      2.31985     0.17456     0.16234
 Rotational constants (GHZ):          48.33799     3.63723     3.38271
 Zero-point vibrational energy      46250.9 (Joules/Mol)
                                   11.05424 (Kcal/Mol)
 Warning -- explicit consideration of   4 degrees of freedom as
           vibrations may cause significant error
 Vibrational temperatures:    229.03   244.01   653.54   765.39   990.09
          (Kelvin)           1110.68  1848.37  2394.96  2889.34

 Zero-point correction=                           0.017616 (Hartree/Particle)
 Thermal correction to Energy=                    0.022367
 Thermal correction to Enthalpy=                  0.023311
 Thermal correction to Gibbs Free Energy=        -0.010152
 Sum of electronic and zero-point Energies=           -206.917583
 Sum of electronic and thermal Energies=              -206.912832
 Sum of electronic and thermal Enthalpies=            -206.911888
 Sum of electronic and thermal Free Energies=         -206.945352

                     E (Thermal)             CV                S
                      KCal/Mol        Cal/Mol-Kelvin    Cal/Mol-Kelvin
 Total                   14.036             14.024             70.430
 Electronic               0.000              0.000              1.377
 Translational            0.889              2.981             38.293
 Rotational               0.889              2.981             23.806
 Vibrational             12.258              8.062              6.953
 Vibration     1          0.621              1.892              2.560
 Vibration     2          0.625              1.880              2.440
 Vibration     3          0.813              1.352              0.783
 Vibration     4          0.887              1.179              0.583

 Normal termination of Gaussian 09 at Tue Aug 16 18:09:55 2016.
