 Gaussian 09, Revision E.01,
 Gaussian 09:  EM64L-G09RevE.01 30-Nov-2015

 ---------------------------------------------
 #p b3lyp/6-311++G(3df,2p) freq symmetry=Loose
 ---------------------------------------------

 ---------
 b3lyp opt
 ---------
 Symbolic Z-matrix:
 Charge =  1 Multiplicity = 3

                         Standard orientation:
 ---------------------------------------------------------------------
 Center     Atomic      Atomic             Coordinates (Angstroms)
 Number     Number       Type             X           Y           Z
 ---------------------------------------------------------------------
      1          6           0        1.108009    0.116395    0.021623
      2          6           0        0.000279   -0.290736    0.883334
      3          6           0       -1.104307    0.134727    0.026316
      4          6           0        0.009400    0.975010   -0.279106
      5          7           0       -0.011470   -0.801768   -0.559000
 ---------------------------------------------------------------------

 SCF Done:  E(UB3LYP) =  -206.396668596     A.U. after   19 cycles

 The electronic state is 3-A.
 Alpha  occ. eigenvalues --  -14.73614 -10.61742 -10.61614 -10.60784 -10.60769
 Alpha  occ. eigenvalues --   -1.45447  -1.05537  -1.04850  -0.94948  -0.76333
 Alpha  occ. eigenvalues --   -0.74652  -0.69627  -0.67119  -0.65032  -0.62637
 Alpha  occ. eigenvalues --   -0.60161
 Alpha virt. eigenvalues --   -0.40672  -0.33528  -0.26657  -0.23330  -0.20906
 Alpha virt. eigenvalues --   -0.15596  -0.13171  -0.12423  -0.08676  -0.08632
 Alpha virt. eigenvalues --   -0.06603  -0.06492  -0.06232  -0.05725  -0.05289

  Beta  occ. eigenvalues --  -14.73578 -10.61323 -10.60274 -10.59327 -10.59318
  Beta  occ. eigenvalues --   -1.44573  -1.04300  -1.03390  -0.92420  -0.75110
  Beta  occ. eigenvalues --   -0.70487  -0.68364  -0.64131  -0.61216
  Beta virt. eigenvalues --   -0.48398  -0.44383  -0.39228  -0.30599  -0.23503
  Beta virt. eigenvalues --   -0.21594  -0.19169  -0.14614  -0.12703  -0.11270
  Beta virt. eigenvalues --   -0.08459  -0.08105  -0.06367  -0.06243  -0.05751

 Mulliken charges and spin densities:
               1          2
     1  C    0.331684   0.592672
     2  C    0.257093   0.619509
     3  C    0.333582   0.594692
     4  C    0.269465   0.174785
     5  N   -0.191824   0.018342
 Sum of Mulliken charges =   1.00000   2.00000

 Dipole moment (field-independent basis, Debye):
    X=              0.0097    Y=              1.0002    Z=              0.7138  Tot=              1.2288
 Quadrupole moment (field-independent basis, Debye-Ang):
   XX=            -22.0008   YY=            -22.0258   ZZ=            -23.1048
   XY=              0.0161   XZ=              0.0004   YZ=             -0.9068

  Exact polarizability:  48.002  -0.089  35.443  -0.057  -1.610  30.826
 Approx polarizability:  98.077   0.133  93.847  -0.085  -4.045  62.472

                      1                      2                      3
                      A                      A                      A
 Frequencies --    179.3271               342.6759               466.9365
 Red. masses --     12.8663                12.1633                12.3767
 Frc consts  --      0.2438                 0.8415                 1.5899
 IR Inten    --      0.9880                12.7182                 1.4690

                      4                      5                      6
                      A                      A                      A
 Frequencies --    770.4285               868.2955               882.9053
 Red. masses --     12.1006                12.8955                12.0198
 Frc consts  --      4.2318                 5.7282                 5.5205
 IR Inten    --     19.2044                 3.8824                 2.1164

                      7                      8                      9
                      A                      A                      A
 Frequencies --    963.3964              1273.0783              1293.9235
 Red. masses --     12.4622                12.0314                12.1228
 Frc consts  --      6.8148                11.4888                11.9583
 IR Inten    --      8.1851                 0.5292                 5.6159

 - Thermochemistry -
 -------------------
 Temperature   298.150 Kelvin.  Pressure   1.00000 Atm.
 Atom     1 has atomic number  6 and mass  12.00000

 Molecular mass:    62.00307 amu.
 Principal axes and moments of inertia in atomic units:
                           1         2         3
     Eigenvalues --   130.31475 157.32961 182.74252
           X            1.00000  -0.00000  -0.00000
           Y            0.00000   1.00000  -0.00019
           Z            0.00000   0.00019   1.00000
 This molecule is an asymmetric top.
 Rotational symmetry number  1.
 Rotational temperatures (Kelvin)      0.66465     0.55052     0.47397
 Rotational constants (GHZ):          13.84909    11.47108     9.87587
 Zero-point vibrational energy      42114.3 (Joules/Mol)
                                   10.06557 (Kcal/Mol)
 Warning -- explicit consideration of   3 degrees of freedom as
           vibrations may cause significant error
 Vibrational temperatures:    258.01   493.03   671.82  1108.47  1249.28
          (Kelvin)           1270.30  1386.11  1831.67  1861.67

 Zero-point correction=                           0.016041 (Hartree/Particle)
 Thermal correction to Energy=                    0.020358
 Thermal correction to Enthalpy=                  0.021302
 Thermal correction to Gibbs Free Energy=        -0.011153
 Sum of electronic and zero-point Energies=           -206.380628
 Sum of electronic and thermal Energies=              -206.376310
 Sum of electronic and thermal Enthalpies=            -206.375366
 Sum of electronic and thermal Free Energies=         -206.407821

                     E (Thermal)             CV                S
                      KCal/Mol        Cal/Mol-Kelvin    Cal/Mol-Kelvin
 Total                   12.775             13.244             68.308
 Electronic               0.000              0.000              2.183
 Translational            0.889              2.981             38.293
 Rotational               0.889              2.981             22.842
 Vibrational             10.998              7.282              4.989
 Vibration     1          0.629              1.868              2.335
 Vibration     2          0.722              1.590              1.200
 Vibration     3          0.824              1.323              0.746

 Normal termination of Gaussian 09 at Tue Aug 16 18:17:47 2016.
