 Gaussian 09, Revision E.01,
 Gaussian 09:  EM64L-G09RevE.01 30-Nov-2015

 ---------------------------------------------
 #p b3lyp/6-311++G(3df,2p) freq symmetry=Loose
 ---------------------------------------------

 ---------
 b3lyp opt
 ---------
 Symbolic Z-matrix:
 Charge =  1 Multiplicity = 1

                         Standard orientation:
 ---------------------------------------------------------------------
 Center     Atomic      Atomic             Coordinates (Angstroms)
 Number     Number       Type             X           Y           Z
 ---------------------------------------------------------------------
      1          6           0       -0.000000   -0.000000   -2.441131
      2          6           0        0.000000    0.000000    2.587139
      3          6           0        0.000000    0.000000    1.265105
      4          6           0        0.000000    0.000000    0.021746
      5          7           0       -0.000000   -0.000000   -1.228165
 ---------------------------------------------------------------------

 SCF Done:  E(RB3LYP) =  -206.623112466     A.U. after   13 cycles

 The electronic state is 1-SG.
 Alpha  occ. eigenvalues --  -14.68018 -10.61287 -10.56488 -10.56208 -10.48515
 Alpha  occ. eigenvalues --   -1.30293  -1.12284  -1.05774  -0.96492  -0.74183
 Alpha  occ. eigenvalues --   -0.74183  -0.60724  -0.60724  -0.60229  -0.57745
 Alpha virt. eigenvalues --   -0.42396  -0.42396  -0.27520  -0.27520  -0.17763
 Alpha virt. eigenvalues --   -0.12988  -0.12988  -0.11601  -0.10284  -0.10284
 Alpha virt. eigenvalues --   -0.10102  -0.05923  -0.05923  -0.05166  -0.04549

 Mulliken charges:
               1
     1  C    0.326935
     2  C   -0.258350
     3  C    1.593347
     4  C    0.074085
     5  N   -0.736016
 Sum of Mulliken charges =   1.00000

 Dipole moment (field-independent basis, Debye):
    X=             -0.0000    Y=             -0.0000    Z=              0.0828  Tot=              0.0828
 Quadrupole moment (field-independent basis, Debye-Ang):
   XX=            -23.9123   YY=            -23.9123   ZZ=            -15.9483
   XY=             -0.0000   XZ=              0.0000   YZ=             -0.0000

  Exact polarizability:  27.218  -0.000  27.218   0.000   0.000 102.044
 Approx polarizability:  40.169   0.000  40.169   0.000   0.000 272.826

                      1                      2                      3
                     PI                     PI                     PI
 Frequencies --    103.3901               103.3901               199.3533
 Red. masses --     12.0519                12.0519                12.8305
 Frc consts  --      0.0759                 0.0759                 0.3004
 IR Inten    --      4.6204                 4.6204                 0.1801

                      4                      5                      6
                     PI                     PI                     PI
 Frequencies --    199.3533               545.7626               545.7626
 Red. masses --     12.8305                12.3201                12.3201
 Frc consts  --      0.3004                 2.1621                 2.1621
 IR Inten    --      0.1801                 7.4411                 7.4411

                      7                      8                      9
                     SG                     SG                     SG
 Frequencies --    812.3920              1486.5676              2035.0732
 Red. masses --     12.2854                12.0115                12.9368
 Frc consts  --      4.7772                15.6393                31.5672
 IR Inten    --     21.4929               431.5200               256.5014

                     10
                     SG
 Frequencies --   2287.4056
 Red. masses --     12.1720
 Frc consts  --     37.5232
 IR Inten    --   2551.8532

 - Thermochemistry -
 -------------------
 Temperature   298.150 Kelvin.  Pressure   1.00000 Atm.
 Atom     1 has atomic number  6 and mass  12.00000

 Molecular mass:    62.00307 amu.
 Principal axes and moments of inertia in atomic units:
                           1         2         3
     Eigenvalues --     0.00000 686.22481 686.22481
           X            0.00000   0.99914   0.04150
           Y            0.00000  -0.04150   0.99914
           Z            1.00000  -0.00000  -0.00000
 This molecule is a prolate symmetric top.
 Rotational symmetry number  1.
 Warning -- assumption of classical behavior for rotation
           may cause significant error
 Rotational temperature (Kelvin)      0.12622
 Rotational constant (GHZ):           2.629956
 Zero-point vibrational energy      49755.4 (Joules/Mol)
                                   11.89182 (Kcal/Mol)
 Warning -- explicit consideration of   6 degrees of freedom as
           vibrations may cause significant error
 Vibrational temperatures:    148.76   148.76   286.82   286.82   785.23
          (Kelvin)            785.23  1168.85  2138.84  2928.01  3291.06

 Zero-point correction=                           0.018951 (Hartree/Particle)
 Thermal correction to Energy=                    0.024357
 Thermal correction to Enthalpy=                  0.025301
 Thermal correction to Gibbs Free Energy=        -0.007051
 Sum of electronic and zero-point Energies=           -206.604162
 Sum of electronic and thermal Energies=              -206.598756
 Sum of electronic and thermal Enthalpies=            -206.597812
 Sum of electronic and thermal Free Energies=         -206.630163

                     E (Thermal)             CV                S
                      KCal/Mol        Cal/Mol-Kelvin    Cal/Mol-Kelvin
 Total                   15.284             15.564             68.090
 Electronic               0.000              0.000              0.000
 Translational            0.889              2.981             38.293
 Rotational               0.592              1.987             17.423
 Vibrational             13.803             10.596             12.374
 Vibration     1          0.605              1.946              3.389
 Vibration     2          0.605              1.946              3.389
 Vibration     3          0.637              1.841              2.139
 Vibration     4          0.637              1.841              2.139
 Vibration     5          0.901              1.149              0.553
 Vibration     6          0.901              1.149              0.553

 Optimization completed.
    -- Stationary point found.
 Normal termination of Gaussian 09 at Tue Aug 16 17:55:24 2016.
