 Gaussian 09, Revision E.01,
 Gaussian 09:  EM64L-G09RevE.01 30-Nov-2015

 ---------------------------------------------
 #p b3lyp/6-311++G(3df,2p) freq symmetry=Loose
 ---------------------------------------------

 ---------
 b3lyp opt
 ---------
 Symbolic Z-matrix:
 Charge =  0 Multiplicity = 4

                         Standard orientation:
 ---------------------------------------------------------------------
 Center     Atomic      Atomic             Coordinates (Angstroms)
 Number     Number       Type             X           Y           Z
 ---------------------------------------------------------------------
      1          6           0        0.000000    0.000000    1.242694
      2          6           0        0.000000    0.000000   -0.082906
      3          6           0        0.000000    0.000000   -1.360539
      4          6           0        0.000000    0.000000   -2.619046
      5          7           0        0.000000    0.000000    2.416969
 ---------------------------------------------------------------------

 SCF Done:  E(UB3LYP) =  -206.954151683     A.U. after   17 cycles

 The electronic state is 4-SG.
 Alpha  occ. eigenvalues --  -14.36014 -10.30518 -10.26939 -10.25554 -10.24821
 Alpha  occ. eigenvalues --   -0.95084  -0.86570  -0.79079  -0.67066  -0.46260
 Alpha  occ. eigenvalues --   -0.44286  -0.44286  -0.41124  -0.38277  -0.38277
 Alpha  occ. eigenvalues --   -0.27566  -0.27566
 Alpha virt. eigenvalues --   -0.03216  -0.03216  -0.00002   0.02639   0.04544
 Alpha virt. eigenvalues --    0.04544   0.05015   0.07126   0.07126   0.08966
 Alpha virt. eigenvalues --    0.11721   0.11721   0.13439   0.15612   0.15612

  Beta  occ. eigenvalues --  -14.34786 -10.26921 -10.25935 -10.25366 -10.25271
  Beta  occ. eigenvalues --   -0.93120  -0.83884  -0.74435  -0.65031  -0.41286
  Beta  occ. eigenvalues --   -0.41286  -0.39345  -0.34750  -0.34750
  Beta virt. eigenvalues --   -0.22648  -0.14847  -0.14847   0.00100   0.00100
  Beta virt. eigenvalues --    0.00404   0.03714   0.04932   0.04932   0.05374
  Beta virt. eigenvalues --    0.07997   0.07997   0.09171   0.12750   0.12750

 Mulliken charges and spin densities:
               1          2
     1  C   -0.151784  -0.474824
     2  C    0.601752   1.026875
     3  C    0.611624  -0.292021
     4  C   -0.120577   2.118709
     5  N   -0.941015   0.621261
 Sum of Mulliken charges =  -0.00000   3.00000

 Dipole moment (field-independent basis, Debye):
    X=              0.0000    Y=              0.0000    Z=             -3.4627  Tot=              3.4627
 Quadrupole moment (field-independent basis, Debye-Ang):
   XX=            -27.5533   YY=            -27.5533   ZZ=            -30.7271
   XY=              0.0000   XZ=              0.0000   YZ=              0.0000

  Exact polarizability:  30.399  -0.000  30.399   0.001  -0.000 111.235
 Approx polarizability:  40.690  -0.000  40.690  -0.000  -0.000 223.086

                      1                      2                      3
                     PI                     PI                     PI
 Frequencies --    132.3038               132.3155               416.6149
 Red. masses --     12.3948                12.3948                12.0356
 Frc consts  --      0.1278                 0.1279                 1.2308
 IR Inten    --      0.8548                 0.8550                 1.4288

                      4                      5                      6
                     PI                     PI                     PI
 Frequencies --    416.6151               468.3631               468.3650
 Red. masses --     12.0356                12.2305                12.2305
 Frc consts  --      1.2308                 1.5807                 1.5807
 IR Inten    --      1.4287                 6.1227                 6.1218

                      7                      8                      9
                     SG                     SG                     SG
 Frequencies --    765.4922              1558.7271              1752.4872
 Red. masses --     12.5990                12.2186                12.0004
 Frc consts  --      4.3498                17.4908                21.7148
 IR Inten    --      0.0686                 0.5186                12.2413

                     10
                     SG
 Frequencies --   2070.6154
 Red. masses --     12.5690
 Frc consts  --     31.7505
 IR Inten    --      0.8694

 - Thermochemistry -
 -------------------
 Temperature   298.150 Kelvin.  Pressure   1.00000 Atm.
 Atom     1 has atomic number  6 and mass  12.00000

 Molecular mass:    62.00307 amu.
 Principal axes and moments of inertia in atomic units:
                           1         2         3
     Eigenvalues --     0.00000 731.86070 731.86070
           X            0.00000  -0.00000   1.00000
           Y            0.00000   1.00000   0.00000
           Z            1.00000   0.00000   0.00000
 This molecule is a prolate symmetric top.
 Rotational symmetry number  1.
 Warning -- assumption of classical behavior for rotation
           may cause significant error
 Rotational temperature (Kelvin)      0.11835
 Rotational constant (GHZ):           2.465963
 Zero-point vibrational energy      48938.6 (Joules/Mol)
                                   11.69661 (Kcal/Mol)
 Warning -- explicit consideration of   6 degrees of freedom as
           vibrations may cause significant error
 Vibrational temperatures:    190.36   190.37   599.42   599.42   673.87
          (Kelvin)            673.87  1101.37  2242.66  2521.43  2979.15

 Zero-point correction=                           0.018640 (Hartree/Particle)
 Thermal correction to Energy=                    0.023529
 Thermal correction to Enthalpy=                  0.024473
 Thermal correction to Gibbs Free Energy=        -0.007820
 Sum of electronic and zero-point Energies=           -206.935512
 Sum of electronic and thermal Energies=              -206.930623
 Sum of electronic and thermal Enthalpies=            -206.929679
 Sum of electronic and thermal Free Energies=         -206.961972

                     E (Thermal)             CV                S
                      KCal/Mol        Cal/Mol-Kelvin    Cal/Mol-Kelvin
 Total                   14.764             15.128             67.966
 Electronic               0.000              0.000              2.755
 Translational            0.889              2.981             38.293
 Rotational               0.592              1.987             17.550
 Vibrational             13.283             10.160              9.367
 Vibration     1          0.612              1.921              2.912
 Vibration     2          0.612              1.921              2.912
 Vibration     3          0.780              1.434              0.904
 Vibration     4          0.780              1.434              0.904
 Vibration     5          0.826              1.320              0.742
 Vibration     6          0.826              1.320              0.742

 Optimization completed.
    -- Stationary point found.
 Normal termination of Gaussian 09 at Tue Aug 16 18:02:09 2016.
