 Gaussian 09, Revision E.01,
 Gaussian 09:  EM64L-G09RevE.01 30-Nov-2015

 ---------------------------------------------
 #p b3lyp/6-311++G(3df,2p) freq symmetry=Loose
 ---------------------------------------------

 ---------
 b3lyp opt
 ---------
 Symbolic Z-matrix:
 Charge =  1 Multiplicity = 3

                         Standard orientation:
 ---------------------------------------------------------------------
 Center     Atomic      Atomic             Coordinates (Angstroms)
 Number     Number       Type             X           Y           Z
 ---------------------------------------------------------------------
      1          6           0        0.000000    0.000000    1.009718
      2          6           0       -0.000000   -0.000000   -0.365389
      3          6           0       -0.000000    0.677520   -1.586552
      4          6           0       -0.000000   -0.677520   -1.586552
      5          7           0        0.000000    0.000000    2.167521
 ---------------------------------------------------------------------

 SCF Done:  E(UB3LYP) =  -206.590454170     A.U. after   15 cycles

 The electronic state is 3-B2.
 Alpha  occ. eigenvalues --  -14.61361 -10.60596 -10.60520 -10.59941 -10.48880
 Alpha  occ. eigenvalues --   -1.28945  -1.18801  -1.00684  -0.85434  -0.78417
 Alpha  occ. eigenvalues --   -0.73121  -0.66595  -0.64825  -0.63017  -0.61651
 Alpha  occ. eigenvalues --   -0.57672
 Alpha virt. eigenvalues --   -0.38538  -0.34100  -0.26136  -0.16408  -0.15697
 Alpha virt. eigenvalues --   -0.14685  -0.12935  -0.11273  -0.09366  -0.07535
 Alpha virt. eigenvalues --   -0.07410  -0.06004  -0.05918  -0.05776  -0.04809

  Beta  occ. eigenvalues --  -14.61103 -10.59611 -10.58734 -10.58674 -10.48963
  Beta  occ. eigenvalues --   -1.26693  -1.18291  -0.99748  -0.79110  -0.74192
  Beta  occ. eigenvalues --   -0.72145  -0.62712  -0.61245  -0.61194
  Beta virt. eigenvalues --   -0.48399  -0.43979  -0.37563  -0.30327  -0.24102
  Beta virt. eigenvalues --   -0.15976  -0.15530  -0.13659  -0.11728  -0.11154
  Beta virt. eigenvalues --   -0.09070  -0.06834  -0.06176  -0.05700  -0.05193

 Mulliken charges and spin densities:
               1          2
     1  C    0.310303   0.085187
     2  C    0.923061  -0.098750
     3  C    0.258087   0.944674
     4  C    0.258087   0.944674
     5  N   -0.749537   0.124216
 Sum of Mulliken charges =   1.00000   2.00000

 Dipole moment (field-independent basis, Debye):
    X=             -0.0000    Y=              0.0000    Z=             -4.2515  Tot=              4.2515
 Quadrupole moment (field-independent basis, Debye-Ang):
   XX=            -23.4787   YY=            -21.9406   ZZ=            -17.6965
   XY=             -0.0000   XZ=             -0.0000   YZ=             -0.0000

  Exact polarizability:  24.449  -0.000  32.821  -0.000   0.000  70.235
 Approx polarizability:  36.071   0.000  60.075   0.000   0.000 144.801

                      1                      2                      3
                     B2                     B1                     B2
 Frequencies --    202.8947               212.8104               526.1327
 Red. masses --     12.5365                12.5083                12.0676
 Frc consts  --      0.3041                 0.3338                 1.9682
 IR Inten    --      3.2810                 5.2936                 1.0759

                      4                      5                      6
                     B1                     A1                     B2
 Frequencies --    569.4570               734.8107              1103.3715
 Red. masses --     12.0350                12.6240                12.0006
 Frc consts  --      2.2994                 4.0161                 8.6079
 IR Inten    --      0.0138                 4.3401                49.9036

                      7                      8                      9
                     A1                     A1                     A1
 Frequencies --   1338.6842              1670.0968              2292.5679
 Red. masses --     12.0681                12.0608                12.6398
 Frc consts  --     12.7423                19.8203                39.1412
 IR Inten    --     42.1318                59.2181               311.0371

 - Thermochemistry -
 -------------------
 Temperature   298.150 Kelvin.  Pressure   1.00000 Atm.
 Atom     1 has atomic number  6 and mass  12.00000

 Molecular mass:    62.00307 amu.
 Principal axes and moments of inertia in atomic units:
                           1         2         3
     Eigenvalues --    39.34174 500.07957 539.42131
           X            0.00000  -0.00000   1.00000
           Y            0.00000   1.00000   0.00000
           Z            1.00000  -0.00000  -0.00000
 This molecule is an asymmetric top.
 Rotational symmetry number  2.
 Rotational temperatures (Kelvin)      2.20158     0.17320     0.16057
 Rotational constants (GHZ):          45.87345     3.60891     3.34570
 Zero-point vibrational energy      51743.4 (Joules/Mol)
                                   12.36698 (Kcal/Mol)
 Warning -- explicit consideration of   4 degrees of freedom as
           vibrations may cause significant error
 Vibrational temperatures:    291.92   306.19   756.99   819.32  1057.23
          (Kelvin)           1587.50  1926.07  2402.89  3298.49

 Zero-point correction=                           0.019708 (Hartree/Particle)
 Thermal correction to Energy=                    0.024157
 Thermal correction to Enthalpy=                  0.025101
 Thermal correction to Gibbs Free Energy=        -0.007475
 Sum of electronic and zero-point Energies=           -206.570746
 Sum of electronic and thermal Energies=              -206.566297
 Sum of electronic and thermal Enthalpies=            -206.565353
 Sum of electronic and thermal Free Energies=         -206.597929

                     E (Thermal)             CV                S
                      KCal/Mol        Cal/Mol-Kelvin    Cal/Mol-Kelvin
 Total                   15.159             13.124             68.562
 Electronic               0.000              0.000              2.183
 Translational            0.889              2.981             38.293
 Rotational               0.889              2.981             22.500
 Vibrational             13.381              7.163              5.586
 Vibration     1          0.639              1.836              2.107
 Vibration     2          0.644              1.821              2.019
 Vibration     3          0.881              1.192              0.596
 Vibration     4          0.926              1.097              0.505

 Optimization completed.
    -- Stationary point found.
 Normal termination of Gaussian 09 at Tue Aug 16 18:00:05 2016.
