 Gaussian 09, Revision E.01,
 Gaussian 09:  EM64L-G09RevE.01 30-Nov-2015

 ---------------------------------------------
 #p b3lyp/6-311++G(3df,2p) freq symmetry=Loose
 ---------------------------------------------

 ---------
 b3lyp opt
 ---------
 Symbolic Z-matrix:
 Charge =  1 Multiplicity = 3

                         Standard orientation:
 ---------------------------------------------------------------------
 Center     Atomic      Atomic             Coordinates (Angstroms)
 Number     Number       Type             X           Y           Z
 ---------------------------------------------------------------------
      1          6           0       -0.000000    1.833478   -0.758866
      2          6           0        0.000000   -1.833478   -0.758866
      3          6           0        0.000000   -0.706043    0.052593
      4          6           0       -0.000000    0.706043    0.052593
      5          7           0        0.000000   -0.000000    1.210755
 ---------------------------------------------------------------------

 SCF Done:  E(UB3LYP) =  -206.450498873     A.U. after   17 cycles

 The electronic state is 3-B2.
 Alpha  occ. eigenvalues --  -14.70433 -10.58602 -10.58601 -10.58251 -10.58206
 Alpha  occ. eigenvalues --   -1.37418  -1.06939  -1.06806  -0.85409  -0.79633
 Alpha  occ. eigenvalues --   -0.77508  -0.64335  -0.60997  -0.60323  -0.59419
 Alpha  occ. eigenvalues --   -0.55351
 Alpha virt. eigenvalues --   -0.44651  -0.38093  -0.32204  -0.25856  -0.19006
 Alpha virt. eigenvalues --   -0.11570  -0.10878  -0.10573  -0.10332  -0.07942
 Alpha virt. eigenvalues --   -0.07129  -0.06387  -0.06326  -0.05760  -0.04494

  Beta  occ. eigenvalues --  -14.69432 -10.58035 -10.57987 -10.57641 -10.57640
  Beta  occ. eigenvalues --   -1.35990  -1.03788  -1.03595  -0.84040  -0.78447
  Beta  occ. eigenvalues --   -0.72664  -0.63141  -0.59265  -0.58657
  Beta virt. eigenvalues --   -0.46456  -0.43369  -0.41707  -0.37082  -0.25751
  Beta virt. eigenvalues --   -0.20753  -0.18389  -0.10856  -0.10673  -0.10326
  Beta virt. eigenvalues --   -0.09487  -0.07270  -0.06735  -0.06086  -0.05658

 Mulliken charges and spin densities:
               1          2
     1  C   -0.053800   0.507930
     2  C   -0.053800   0.507930
     3  C    0.797276   0.264036
     4  C    0.797276   0.264036
     5  N   -0.486952   0.456067
 Sum of Mulliken charges =   1.00000   2.00000

 Dipole moment (field-independent basis, Debye):
    X=             -0.0000    Y=             -0.0000    Z=             -0.4190  Tot=              0.4190
 Quadrupole moment (field-independent basis, Debye-Ang):
   XX=            -24.4100   YY=            -19.0506   ZZ=            -25.2283
   XY=              0.0000   XZ=             -0.0000   YZ=              0.0000

  Exact polarizability:  29.521  -0.000  66.912  -0.000  -0.000  41.457
 Approx polarizability:  40.257  -0.000 128.848   0.000   0.000  81.981

                      1                      2                      3
                     A1                     B1                     B2
 Frequencies --    130.7757               261.8285               293.0977
 Red. masses --     12.1185                12.3131                12.2314
 Frc consts  --      0.1221                 0.4973                 0.6191
 IR Inten    --      7.0571                30.1193                 8.6982

                      4                      5                      6
                     A2                     B2                     A1
 Frequencies --    342.9987               787.0636               831.4588
 Red. masses --     12.0000                12.8687                12.0000
 Frc consts  --      0.8318                 4.6968                 4.8878
 IR Inten    --      0.0000                15.0795                 0.4652

                      7                      8                      9
                     A1                     B2                     A1
 Frequencies --   1049.3418              1166.8627              1679.5104
 Red. masses --     13.1399                12.0145                12.1729
 Frc consts  --      8.5247                 9.6382                20.2306
 IR Inten    --     22.1898               330.6895                 5.8628

 - Thermochemistry -
 -------------------
 Temperature   298.150 Kelvin.  Pressure   1.00000 Atm.
 Atom     1 has atomic number  6 and mass  12.00000

 Molecular mass:    62.00307 amu.
 Principal axes and moments of inertia in atomic units:
                           1         2         3
     Eigenvalues --   122.89796 330.83532 453.73328
           X           -0.00000   0.00000   1.00000
           Y            1.00000   0.00000   0.00000
           Z            0.00000   1.00000   0.00000
 This molecule is an asymmetric top.
 Rotational symmetry number  2.
 Rotational temperatures (Kelvin)      0.70476     0.26180     0.19089
 Rotational constants (GHZ):          14.68487     5.45510     3.97754
 Zero-point vibrational energy      39135.5 (Joules/Mol)
                                    9.35360 (Kcal/Mol)
 Warning -- explicit consideration of   4 degrees of freedom as
           vibrations may cause significant error
 Vibrational temperatures:    188.16   376.71   421.70   493.50  1132.41
          (Kelvin)           1196.28  1509.77  1678.85  2416.44

 Zero-point correction=                           0.014906 (Hartree/Particle)
 Thermal correction to Energy=                    0.019888
 Thermal correction to Enthalpy=                  0.020832
 Thermal correction to Gibbs Free Energy=        -0.013042
 Sum of electronic and zero-point Energies=           -206.435593
 Sum of electronic and thermal Energies=              -206.430611
 Sum of electronic and thermal Enthalpies=            -206.429667
 Sum of electronic and thermal Free Energies=         -206.463541

                     E (Thermal)             CV                S
                      KCal/Mol        Cal/Mol-Kelvin    Cal/Mol-Kelvin
 Total                   12.480             14.769             71.294
 Electronic               0.000              0.000              2.183
 Translational            0.889              2.981             38.293
 Rotational               0.889              2.981             23.049
 Vibrational             10.702              8.807              7.769
 Vibration     1          0.612              1.923              2.935
 Vibration     2          0.669              1.743              1.650
 Vibration     3          0.688              1.687              1.456
 Vibration     4          0.722              1.589              1.198

 Optimization completed.
    -- Stationary point found.
 Normal termination of Gaussian 09 at Tue Aug 16 17:59:20 2016.
