 Gaussian 09, Revision E.01,
 Gaussian 09:  EM64L-G09RevE.01 30-Nov-2015

 ---------------------------------------------
 #p b3lyp/6-311++G(3df,2p) freq symmetry=Loose
 ---------------------------------------------

 ---------
 b3lyp opt
 ---------
 Symbolic Z-matrix:
 Charge =  1 Multiplicity = 1

                         Standard orientation:
 ---------------------------------------------------------------------
 Center     Atomic      Atomic             Coordinates (Angstroms)
 Number     Number       Type             X           Y           Z
 ---------------------------------------------------------------------
      1          6           0       -0.000000   -0.953714   -0.044017
      2          6           0        1.046009   -0.000000   -0.561828
      3          6           0        0.000000    0.953714   -0.044017
      4          6           0       -1.046009    0.000000   -0.561828
      5          7           0        0.000000   -0.000000    1.038591
 ---------------------------------------------------------------------

 SCF Done:  E(RB3LYP) =  -206.418870945     A.U. after   11 cycles

 The electronic state is 1-A1.
 Alpha  occ. eigenvalues --  -14.73880 -10.61723 -10.61722 -10.60733 -10.60729
 Alpha  occ. eigenvalues --   -1.41924  -1.04695  -0.98596  -0.97542  -0.73585
 Alpha  occ. eigenvalues --   -0.71705  -0.71248  -0.63355  -0.63163  -0.60072
 Alpha virt. eigenvalues --   -0.43703  -0.43017  -0.40973  -0.35147  -0.16132
 Alpha virt. eigenvalues --   -0.15752  -0.14082  -0.13954  -0.12779  -0.11577
 Alpha virt. eigenvalues --   -0.08169  -0.07400  -0.06802  -0.06589  -0.06195

 Mulliken charges:
               1
     1  C    0.726000
     2  C   -0.060380
     3  C    0.726000
     4  C   -0.060380
     5  N   -0.331239
 Sum of Mulliken charges =   1.00000

 Dipole moment (field-independent basis, Debye):
    X=             -0.0000    Y=              0.0000    Z=             -0.8864  Tot=              0.8864
 Quadrupole moment (field-independent basis, Debye-Ang):
   XX=            -22.6524   YY=            -22.2155   ZZ=            -23.2762
   XY=             -0.0000   XZ=             -0.0000   YZ=              0.0000

  Exact polarizability:  45.796  -0.000  42.635   0.000  -0.000  36.598
 Approx polarizability: 139.580  -0.000 143.527   0.000   0.000 103.418

                      1                      2                      3
                     B2                     A1                     B1
 Frequencies --    278.0811               505.3586               635.9142
 Red. masses --     12.4894                12.1268                12.8070
 Frc consts  --      0.5690                 1.8247                 3.0514
 IR Inten    --     12.3480                 0.0582                40.1047

                      4                      5                      6
                     A2                     A1                     B2
 Frequencies --    672.3667               706.5345               797.4376
 Red. masses --     12.0000                12.0260                12.2833
 Frc consts  --      3.1963                 3.5370                 4.6021
 IR Inten    --      0.0000                 4.2674                48.7980

                      7                      8                      9
                     B1                     A1                     A1
 Frequencies --    879.5572               988.0327              1250.2819
 Red. masses --     12.0437                12.9187                12.3331
 Frc consts  --      5.4896                 7.4304                11.3589
 IR Inten    --      0.9511                 2.4473                 1.2303

 - Thermochemistry -
 -------------------
 Temperature   298.150 Kelvin.  Pressure   1.00000 Atm.
 Atom     1 has atomic number  6 and mass  12.00000

 Molecular mass:    62.00307 amu.
 Principal axes and moments of inertia in atomic units:
                           1         2         3
     Eigenvalues --   159.11426 171.72879 174.93252
           X            1.00000   0.00000   0.00000
           Y           -0.00000   0.00000   1.00000
           Z            0.00000   1.00000  -0.00000
 This molecule is an asymmetric top.
 Rotational symmetry number  2.
 Rotational temperatures (Kelvin)      0.54435     0.50436     0.49513
 Rotational constants (GHZ):          11.34242    10.50925    10.31679
 Zero-point vibrational energy      40156.0 (Joules/Mol)
                                    9.59752 (Kcal/Mol)
 Warning -- explicit consideration of   2 degrees of freedom as
           vibrations may cause significant error
 Vibrational temperatures:    400.10   727.10   914.94   967.38  1016.54
          (Kelvin)           1147.33  1265.49  1421.56  1798.87

 Zero-point correction=                           0.015295 (Hartree/Particle)
 Thermal correction to Energy=                    0.019361
 Thermal correction to Enthalpy=                  0.020305
 Thermal correction to Gibbs Free Energy=        -0.009967
 Sum of electronic and zero-point Energies=           -206.403576
 Sum of electronic and thermal Energies=              -206.399510
 Sum of electronic and thermal Enthalpies=            -206.398566
 Sum of electronic and thermal Free Energies=         -206.428838

                     E (Thermal)             CV                S
                      KCal/Mol        Cal/Mol-Kelvin    Cal/Mol-Kelvin
 Total                   12.149             13.319             63.714
 Electronic               0.000              0.000              0.000
 Translational            0.889              2.981             38.293
 Rotational               0.889              2.981             21.707
 Vibrational             10.372              7.357              3.714
 Vibration     1          0.679              1.714              1.545
 Vibration     2          0.861              1.238              0.645

 Optimization completed.
    -- Stationary point found.
 Normal termination of Gaussian 09 at Tue Aug 16 17:51:21 2016.
