 Gaussian 09, Revision E.01,
 Gaussian 09:  EM64L-G09RevE.01 30-Nov-2015

 ---------------------------------------------
 #p b3lyp/6-311++G(3df,2p) freq symmetry=Loose
 ---------------------------------------------

 ---------
 b3lyp opt
 ---------
 Symbolic Z-matrix:
 Charge =  0 Multiplicity = 2

                         Standard orientation:
 ---------------------------------------------------------------------
 Center     Atomic      Atomic             Coordinates (Angstroms)
 Number     Number       Type             X           Y           Z
 ---------------------------------------------------------------------
      1          7           0        0.000000    0.268616    0.000000
      2          6           0        0.690671    1.478766    0.000000
      3          6           0       -0.689786    1.479236   -0.000000
      4          6           0       -0.000453   -2.277724   -0.000000
      5          6           0       -0.000432   -0.993662   -0.000000
 ---------------------------------------------------------------------

 SCF Done:  E(UB3LYP) =  -206.843676459     A.U. after   18 cycles

 The electronic state is 2-A'.
 Alpha  occ. eigenvalues --  -14.52906 -10.29946 -10.29886 -10.27408 -10.26967
 Alpha  occ. eigenvalues --   -1.14141  -0.91427  -0.78051  -0.62961  -0.54167
 Alpha  occ. eigenvalues --   -0.54069  -0.39072  -0.34527  -0.34500  -0.33528
 Alpha  occ. eigenvalues --   -0.31236
 Alpha virt. eigenvalues --   -0.17387  -0.06761  -0.03971  -0.00221   0.02264
 Alpha virt. eigenvalues --    0.02444   0.03277   0.04482   0.05959   0.07280
 Alpha virt. eigenvalues --    0.07509   0.09248   0.09269   0.09851   0.10293

  Beta  occ. eigenvalues --  -14.52505 -10.29581 -10.29519 -10.27257 -10.26388
  Beta  occ. eigenvalues --   -1.13435  -0.91063  -0.75980  -0.61236  -0.53915
  Beta  occ. eigenvalues --   -0.52319  -0.35203  -0.34063  -0.33198  -0.32234
  Beta virt. eigenvalues --   -0.22364  -0.16733  -0.06195  -0.01165   0.00074
  Beta virt. eigenvalues --    0.02476   0.02566   0.03601   0.04577   0.06044
  Beta virt. eigenvalues --    0.07550   0.07772   0.09421   0.09945   0.09977

 Mulliken charges and spin densities:
               1          2
     1  N   -0.511538   0.099807
     2  C    0.038187   0.177509
     3  C    0.038378   0.177585
     4  C   -0.562273   0.403852
     5  C    0.997246   0.141247
 Sum of Mulliken charges =  -0.00000   1.00000

 Dipole moment (field-independent basis, Debye):
    X=             -0.0003    Y=              1.3929    Z=              0.0000  Tot=              1.3929
 Quadrupole moment (field-independent basis, Debye-Ang):
   XX=            -31.2508   YY=            -37.1588   ZZ=            -27.0654
   XY=             -0.0002   XZ=             -0.0000   YZ=             -0.0000

  Exact polarizability:  51.062   0.017 111.600  -0.000   0.000  34.144
 Approx polarizability:  77.583   0.054 294.765   0.000   0.000  51.757

                      1                      2                      3
                     A'                     A"                     A'
 Frequencies --     91.7937               181.2849               269.3971
 Red. masses --     12.8940                12.2325                12.4554
 Frc consts  --      0.0640                 0.2369                 0.5326
 IR Inten    --     81.6355                 8.8922                42.2995

                      4                      5                      6
                     A'                     A"                     A'
 Frequencies --    523.1706               535.9737               743.0769
 Red. masses --     12.0459                13.1955                12.0374
 Frc consts  --      1.9426                 2.2334                 3.9161
 IR Inten    --     18.9667                 4.0471                21.1112

                      7                      8                      9
                     A'                     A'                     A'
 Frequencies --   1133.0134              1501.1821              1939.8499
 Red. masses --     12.5547                12.6480                12.1485
 Frc consts  --      9.4957                16.7934                26.9344
 IR Inten    --      0.0188                 2.3126               779.5183

 - Thermochemistry -
 -------------------
 Temperature   298.150 Kelvin.  Pressure   1.00000 Atm.
 Atom     1 has atomic number  7 and mass  14.00307

 Molecular mass:    62.00307 amu.
 Principal axes and moments of inertia in atomic units:
                           1         2         3
     Eigenvalues --    40.83145 455.71694 496.54839
           X            0.00025   1.00000   0.00000
           Y            1.00000  -0.00025   0.00000
           Z           -0.00000  -0.00000   1.00000
 This molecule is an asymmetric top.
 Rotational symmetry number  1.
 Rotational temperatures (Kelvin)      2.12125     0.19006     0.17443
 Rotational constants (GHZ):          44.19978     3.96022     3.63457
 Zero-point vibrational energy      41383.3 (Joules/Mol)
                                    9.89084 (Kcal/Mol)
 Warning -- explicit consideration of   5 degrees of freedom as
           vibrations may cause significant error
 Vibrational temperatures:    132.07   260.83   387.60   752.72   771.15
          (Kelvin)           1069.12  1630.15  2159.86  2791.01

 Zero-point correction=                           0.015762 (Hartree/Particle)
 Thermal correction to Energy=                    0.020926
 Thermal correction to Enthalpy=                  0.021870
 Thermal correction to Gibbs Free Energy=        -0.012553
 Sum of electronic and zero-point Energies=           -206.827914
 Sum of electronic and thermal Energies=              -206.822751
 Sum of electronic and thermal Enthalpies=            -206.821806
 Sum of electronic and thermal Free Energies=         -206.856230

                     E (Thermal)             CV                S
                      KCal/Mol        Cal/Mol-Kelvin    Cal/Mol-Kelvin
 Total                   13.131             14.972             72.450
 Electronic               0.000              0.000              1.377
 Translational            0.889              2.981             38.293
 Rotational               0.889              2.981             23.739
 Vibrational             11.354              9.010              9.040
 Vibration     1          0.602              1.955              3.621
 Vibration     2          0.630              1.865              2.315
 Vibration     3          0.674              1.729              1.600
 Vibration     4          0.878              1.199              0.603
 Vibration     5          0.891              1.170              0.574

 Optimization completed.
    -- Stationary point found.
 Normal termination of Gaussian 09 at Tue Aug 16 18:06:41 2016.
