 Gaussian 09, Revision E.01,
 Gaussian 09:  EM64L-G09RevE.01 30-Nov-2015

 ---------------------------------------------
 #p b3lyp/6-311++G(3df,2p) freq symmetry=Loose
 ---------------------------------------------

 ---------
 b3lyp opt
 ---------
 Symbolic Z-matrix:
 Charge =  1 Multiplicity = 3

                         Standard orientation:
 ---------------------------------------------------------------------
 Center     Atomic      Atomic             Coordinates (Angstroms)
 Number     Number       Type             X           Y           Z
 ---------------------------------------------------------------------
      1          6           0        0.238908   -0.097707    0.000526
      2          6           0        1.534419   -0.640227   -0.000434
      3          6           0       -2.314321    0.020675   -0.000958
      4          6           0       -1.093943   -0.019404    0.001158
      5          7           0        1.401375    0.631425   -0.000250
 ---------------------------------------------------------------------

 SCF Done:  E(UB3LYP) =  -206.542668677     A.U. after   18 cycles

 The electronic state is 3-A.
 Alpha  occ. eigenvalues --  -14.67917 -10.60222 -10.56871 -10.56206 -10.49035
 Alpha  occ. eigenvalues --   -1.36761  -1.09586  -0.98637  -0.85564  -0.80733
 Alpha  occ. eigenvalues --   -0.73672  -0.68893  -0.63837  -0.62412  -0.60833
 Alpha  occ. eigenvalues --   -0.55417
 Alpha virt. eigenvalues --   -0.39333  -0.30953  -0.27770  -0.16708  -0.15513
 Alpha virt. eigenvalues --   -0.13027  -0.10806  -0.10803  -0.08561  -0.07334
 Alpha virt. eigenvalues --   -0.06023  -0.05718  -0.05115  -0.03882  -0.02785

  Beta  occ. eigenvalues --  -14.67707 -10.59747 -10.55104 -10.53997 -10.49104
  Beta  occ. eigenvalues --   -1.36252  -1.08221  -0.96044  -0.83732  -0.78226
  Beta  occ. eigenvalues --   -0.73619  -0.62303  -0.59345  -0.57683
  Beta virt. eigenvalues --   -0.45372  -0.43398  -0.37131  -0.29457  -0.23512
  Beta virt. eigenvalues --   -0.15234  -0.14760  -0.12596  -0.10766  -0.10474
  Beta virt. eigenvalues --   -0.07429  -0.06531  -0.05196  -0.05183  -0.04289

 Mulliken charges and spin densities:
               1          2
     1  C    0.461935   0.109447
     2  C   -0.059476   0.575680
     3  C    0.211323   1.507914
     4  C    0.712679  -0.226633
     5  N   -0.326461   0.033592
 Sum of Mulliken charges =   1.00000   2.00000

 Dipole moment (field-independent basis, Debye):
    X=             -1.9853    Y=             -0.6178    Z=             -0.0009  Tot=              2.0792
 Quadrupole moment (field-independent basis, Debye-Ang):
   XX=             -7.7690   YY=            -25.3610   ZZ=            -23.5970
   XY=             -1.2684   XZ=              0.0048   YZ=              0.0001

  Exact polarizability:  82.453  -6.922  32.910   0.008   0.002  24.230
 Approx polarizability: 186.096 -14.571  53.958   0.044   0.003  34.567

                      1                      2                      3
                      A                      A                      A
 Frequencies --    197.1643               197.3763               488.8552
 Red. masses --     12.0524                12.2118                12.2527
 Frc consts  --      0.2760                 0.2803                 1.7252
 IR Inten    --      0.6625                 1.1102                 2.7548

                      4                      5                      6
                      A                      A                      A
 Frequencies --    545.0041               762.4106               841.3210
 Red. masses --     12.0268                12.3082                12.6655
 Frc consts  --      2.1047                 4.2152                 5.2820
 IR Inten    --      7.4167                 9.9877                43.8106

                      7                      8                      9
                      A                      A                      A
 Frequencies --   1339.4657              1725.6930              2110.3695
 Red. masses --     12.4067                12.4998                12.0069
 Frc consts  --     13.1151                21.9322                31.5064
 IR Inten    --    153.0694                57.1172               581.1977

 - Thermochemistry -
 -------------------
 Temperature   298.150 Kelvin.  Pressure   1.00000 Atm.
 Atom     1 has atomic number  6 and mass  12.00000

 Molecular mass:    62.00307 amu.
 Principal axes and moments of inertia in atomic units:
                           1         2         3
     Eigenvalues --    37.94585 482.34996 520.29556
           X            1.00000  -0.00002   0.00000
           Y            0.00002   1.00000   0.00000
           Z           -0.00000  -0.00000   1.00000
 This molecule is an asymmetric top.
 Rotational symmetry number  1.
 Rotational temperatures (Kelvin)      2.28256     0.17957     0.16647
 Rotational constants (GHZ):          47.56097     3.74156     3.46868
 Zero-point vibrational energy      49092.7 (Joules/Mol)
                                   11.73344 (Kcal/Mol)
 Warning -- explicit consideration of   4 degrees of freedom as
           vibrations may cause significant error
 Vibrational temperatures:    283.68   283.98   703.35   784.14  1096.94
          (Kelvin)           1210.47  1927.19  2482.88  3036.35

 Zero-point correction=                           0.018698 (Hartree/Particle)
 Thermal correction to Energy=                    0.023255
 Thermal correction to Enthalpy=                  0.024200
 Thermal correction to Gibbs Free Energy=        -0.009178
 Sum of electronic and zero-point Energies=           -206.523970
 Sum of electronic and thermal Energies=              -206.519413
 Sum of electronic and thermal Enthalpies=            -206.518469
 Sum of electronic and thermal Free Energies=         -206.551846

                     E (Thermal)             CV                S
                      KCal/Mol        Cal/Mol-Kelvin    Cal/Mol-Kelvin
 Total                   14.593             13.545             70.249
 Electronic               0.000              0.000              2.183
 Translational            0.889              2.981             38.293
 Rotational               0.889              2.981             23.769
 Vibrational             12.816              7.583              6.003
 Vibration     1          0.637              1.844              2.159
 Vibration     2          0.637              1.844              2.157
 Vibration     3          0.845              1.275              0.687
 Vibration     4          0.900              1.151              0.555

 Normal termination of Gaussian 09 at Tue Aug 16 18:13:35 2016.
