 Gaussian 09, Revision E.01,
 Gaussian 09:  EM64L-G09RevE.01 30-Nov-2015

 ---------------------------------------------
 #p b3lyp/6-311++G(3df,2p) freq symmetry=Loose
 ---------------------------------------------

 ---------
 b3lyp opt
 ---------
 Symbolic Z-matrix:
 Charge =  0 Multiplicity = 2

                         Standard orientation:
 ---------------------------------------------------------------------
 Center     Atomic      Atomic             Coordinates (Angstroms)
 Number     Number       Type             X           Y           Z
 ---------------------------------------------------------------------
      1          6           0       -0.004174   -1.011711   -0.000000
      2          6           0       -0.000000    0.380398    0.000000
      3          6           0       -0.672291    1.582247    0.000000
      4          6           0        0.685155    1.575980    0.000000
      5          7           0       -0.007449   -2.165926   -0.000000
 ---------------------------------------------------------------------

 SCF Done:  E(UB3LYP) =  -206.984552575     A.U. after   15 cycles

 The electronic state is 2-A'.
 Alpha  occ. eigenvalues --  -14.38896 -10.33089 -10.27627 -10.27108 -10.27034
 Alpha  occ. eigenvalues --   -1.00403  -0.97379  -0.76121  -0.56076  -0.49544
 Alpha  occ. eigenvalues --   -0.47315  -0.43270  -0.41769  -0.39481  -0.33340
 Alpha  occ. eigenvalues --   -0.30282
 Alpha virt. eigenvalues --   -0.13741  -0.05500  -0.03421   0.00126   0.03217
 Alpha virt. eigenvalues --    0.03227   0.03614   0.05990   0.06243   0.06959
 Alpha virt. eigenvalues --    0.07620   0.09783   0.10667   0.11453   0.11682

  Beta  occ. eigenvalues --  -14.38632 -10.32577 -10.27749 -10.26362 -10.26285
  Beta  occ. eigenvalues --   -0.99687  -0.96934  -0.75420  -0.53513  -0.46976
  Beta  occ. eigenvalues --   -0.46569  -0.42689  -0.40388  -0.39150  -0.30270
  Beta virt. eigenvalues --   -0.19434  -0.13031  -0.04141  -0.02141   0.00280
  Beta virt. eigenvalues --    0.03287   0.03529   0.03934   0.06054   0.06353
  Beta virt. eigenvalues --    0.07300   0.07654   0.10024   0.10924   0.11566

 Mulliken charges and spin densities:
               1          2
     1  C    0.256829  -0.103110
     2  C    0.924372   0.283515
     3  C   -0.137187   0.345609
     4  C   -0.142840   0.342821
     5  N   -0.901174   0.131166
 Sum of Mulliken charges =  -0.00000   1.00000

 Dipole moment (field-independent basis, Debye):
    X=             -0.0083    Y=              0.6367    Z=             -0.0000  Tot=              0.6368
 Quadrupole moment (field-independent basis, Debye-Ang):
   XX=            -30.3440   YY=            -34.9750   ZZ=            -26.3811
   XY=             -0.0273   XZ=             -0.0000   YZ=             -0.0000

  Exact polarizability:  55.037   0.043  73.046   0.000  -0.000  29.899
 Approx polarizability:  85.504   0.100 134.438   0.000   0.000  44.229

                      1                      2                      3
                     A'                     A"                     A'
 Frequencies --    200.3383               233.7771               540.4833
 Red. masses --     12.4850                12.4758                12.1093
 Frc consts  --      0.2952                 0.4017                 2.0842
 IR Inten    --     53.5362                16.7518               165.4556

                      4                      5                      6
                     A"                     A'                     A'
 Frequencies --    575.4854               575.6269               722.4937
 Red. masses --     12.0636                12.0058                12.6309
 Frc consts  --      2.3539                 2.3438                 3.8846
 IR Inten    --      1.4001               361.9371                 0.0322

                      7                      8                      9
                     A'                     A'                     A'
 Frequencies --   1292.1243              1673.0832              2300.8231
 Red. masses --     12.0489                12.0424                12.6744
 Frc consts  --     11.8524                19.8609                39.5317
 IR Inten    --     38.1771                14.1048                14.7771

 - Thermochemistry -
 -------------------
 Temperature   298.150 Kelvin.  Pressure   1.00000 Atm.
 Atom     1 has atomic number  6 and mass  12.00000

 Molecular mass:    62.00307 amu.
 Principal axes and moments of inertia in atomic units:
                           1         2         3
     Eigenvalues --    39.48248 498.37477 537.85725
           X            0.00365   0.99999  -0.00000
           Y            0.99999  -0.00365  -0.00000
           Z            0.00000   0.00000   1.00000
 This molecule is an asymmetric top.
 Rotational symmetry number  1.
 Rotational temperatures (Kelvin)      2.19373     0.17379     0.16103
 Rotational constants (GHZ):          45.70992     3.62125     3.35543
 Zero-point vibrational energy      48533.9 (Joules/Mol)
                                   11.59988 (Kcal/Mol)
 Warning -- explicit consideration of   5 degrees of freedom as
           vibrations may cause significant error
 Vibrational temperatures:    288.24   336.35   777.63   827.99   828.20
          (Kelvin)           1039.51  1859.08  2407.19  3310.37

 Zero-point correction=                           0.018486 (Hartree/Particle)
 Thermal correction to Energy=                    0.023050
 Thermal correction to Enthalpy=                  0.023994
 Thermal correction to Gibbs Free Energy=        -0.008976
 Sum of electronic and zero-point Energies=           -206.966067
 Sum of electronic and thermal Energies=              -206.961503
 Sum of electronic and thermal Enthalpies=            -206.960559
 Sum of electronic and thermal Free Energies=         -206.993529

                     E (Thermal)             CV                S
                      KCal/Mol        Cal/Mol-Kelvin    Cal/Mol-Kelvin
 Total                   14.464             13.902             69.391
 Electronic               0.000              0.000              1.377
 Translational            0.889              2.981             38.293
 Rotational               0.889              2.981             23.874
 Vibrational             12.686              7.940              5.846
 Vibration     1          0.638              1.839              2.130
 Vibration     2          0.654              1.789              1.850
 Vibration     3          0.896              1.161              0.564
 Vibration     4          0.932              1.084              0.494
 Vibration     5          0.932              1.084              0.494

 Normal termination of Gaussian 09 at Tue Aug 16 18:05:37 2016.
