 Gaussian 09, Revision E.01,
 Gaussian 09:  EM64L-G09RevE.01 30-Nov-2015

 ---------------------------------------------
 #p b3lyp/6-311++G(3df,2p) freq symmetry=Loose
 ---------------------------------------------

 ---------
 b3lyp opt
 ---------
 Symbolic Z-matrix:
 Charge =  1 Multiplicity = 3

                         Standard orientation:
 ---------------------------------------------------------------------
 Center     Atomic      Atomic             Coordinates (Angstroms)
 Number     Number       Type             X           Y           Z
 ---------------------------------------------------------------------
      1          7           0       -0.223864    1.658920    0.000000
      2          6           0       -1.162972   -0.436689   -0.000000
      3          6           0        1.294807   -0.186804    0.000000
      4          6           0       -2.269635   -0.962041   -0.000000
      5          6           0        0.000000    0.337195    0.000000
      6          6           0        2.398974   -0.687069    0.000000
 ---------------------------------------------------------------------

 SCF Done:  E(UB3LYP) =  -244.500812390     A.U. after   28 cycles

 The electronic state is 3-A'.
 Alpha  occ. eigenvalues --  -14.66811 -10.54609 -10.54391 -10.51933 -10.48923
 Alpha  occ. eigenvalues --  -10.46252  -1.18350  -1.06079  -1.04491  -0.93814
 Alpha  occ. eigenvalues --   -0.85022  -0.67062  -0.66564  -0.66057  -0.65017
 Alpha  occ. eigenvalues --   -0.59137  -0.57651  -0.57035  -0.53810
 Alpha virt. eigenvalues --   -0.40655  -0.34768  -0.26649  -0.22699  -0.20895
 Alpha virt. eigenvalues --   -0.15269  -0.11279  -0.10875  -0.09962  -0.09563
 Alpha virt. eigenvalues --   -0.07425  -0.06417  -0.05769  -0.05720  -0.04767

  Beta  occ. eigenvalues --  -14.68376 -10.54261 -10.51565 -10.49237 -10.48878
  Beta  occ. eigenvalues --  -10.46272  -1.20373  -1.04097  -1.02369  -0.92996
  Beta  occ. eigenvalues --   -0.84561  -0.67762  -0.67074  -0.56237  -0.55482
  Beta  occ. eigenvalues --   -0.54129  -0.54111
  Beta virt. eigenvalues --   -0.47225  -0.43827  -0.42051  -0.33848  -0.22342
  Beta virt. eigenvalues --   -0.19612  -0.17918  -0.14821  -0.10172  -0.09801
  Beta virt. eigenvalues --   -0.09686  -0.09298  -0.06779  -0.05635  -0.05356

 Mulliken charges and spin densities:
               1          2
     1  N   -0.311293  -0.773454
     2  C    0.642354  -0.079359
     3  C    0.619598  -0.128836
     4  C    0.325941   1.391261
     5  C   -0.691843   0.289843
     6  C    0.415244   1.300545
 Sum of Mulliken charges =   1.00000   2.00000

 Dipole moment (field-independent basis, Debye):
    X=             -0.3507    Y=             -2.0311    Z=             -0.0000  Tot=              2.0612
 Quadrupole moment (field-independent basis, Debye-Ang):
   XX=             -8.7784   YY=            -26.7861   ZZ=            -30.9293
   XY=              1.6177   XZ=              0.0000   YZ=             -0.0000

  Exact polarizability: 130.742   3.096  68.861  -0.000  -0.000  33.631
 Approx polarizability: 280.090   6.939 183.727   0.000   0.000  44.076

                      1                      2                      3
                     A'                     A'                     A"
 Frequencies --     49.9250               175.9257               229.1265
 Red. masses --     12.3829                12.9500                12.1516
 Frc consts  --      0.0182                 0.2361                 0.3759
 IR Inten    --     26.8092                64.6841                 0.3165

                      4                      5                      6
                     A"                     A'                     A'
 Frequencies --    256.7164               280.1402               451.8860
 Red. masses --     12.0000                12.0207                12.2287
 Frc consts  --      0.4659                 0.5558                 1.4713
 IR Inten    --      0.0584                14.0272                 5.0897

                      7                      8                      9
                     A"                     A'                     A'
 Frequencies --    628.2836               736.9746              1166.6682
 Red. masses --     12.1119                12.4303                12.0918
 Frc consts  --      2.8169                 3.9777                 9.6970
 IR Inten    --      0.0447                 7.6754                85.7207

                     10                     11                     12
                     A'                     A'                     A'
 Frequencies --   1214.0364              2074.6265              2155.5877
 Red. masses --     12.4996                12.0033                12.0013
 Frc consts  --     10.8545                30.4391                32.8557
 IR Inten    --     52.0515               432.0514               668.1172

 - Thermochemistry -
 -------------------
 Temperature   298.150 Kelvin.  Pressure   1.00000 Atm.
 Atom     1 has atomic number  7 and mass  14.00307

 Molecular mass:    74.00307 amu.
 Principal axes and moments of inertia in atomic units:
                           1         2         3
     Eigenvalues --   211.40722 600.31419 811.72142
           X            0.99918  -0.04057   0.00000
           Y            0.04057   0.99918   0.00000
           Z            0.00000  -0.00000   1.00000
 This molecule is an asymmetric top.
 Rotational symmetry number  1.
 Rotational temperatures (Kelvin)      0.40970     0.14428     0.10670
 Rotational constants (GHZ):           8.53680     3.00633     2.22335
 Zero-point vibrational energy      56343.5 (Joules/Mol)
                                   13.46642 (Kcal/Mol)
 Warning -- explicit consideration of   6 degrees of freedom as
           vibrations may cause significant error
 Vibrational temperatures:     71.83   253.12   329.66   369.36   403.06
          (Kelvin)            650.16   903.96  1060.34  1678.57  1746.73
                             2984.92  3101.41

 Zero-point correction=                           0.021460 (Hartree/Particle)
 Thermal correction to Energy=                    0.027708
 Thermal correction to Enthalpy=                  0.028652
 Thermal correction to Gibbs Free Energy=        -0.009824
 Sum of electronic and zero-point Energies=           -244.479352
 Sum of electronic and thermal Energies=              -244.473104
 Sum of electronic and thermal Enthalpies=            -244.472160
 Sum of electronic and thermal Free Energies=         -244.510637

                     E (Thermal)             CV                S
                      KCal/Mol        Cal/Mol-Kelvin    Cal/Mol-Kelvin
 Total                   17.387             18.598             80.980
 Electronic               0.000              0.000              2.183
 Translational            0.889              2.981             38.821
 Rotational               0.889              2.981             26.135
 Vibrational             15.610             12.636             13.841
 Vibration     1          0.595              1.978              4.820
 Vibration     2          0.628              1.872              2.371
 Vibration     3          0.652              1.797              1.886
 Vibration     4          0.666              1.751              1.684
 Vibration     5          0.680              1.710              1.533
 Vibration     6          0.811              1.357              0.790

 Normal termination of Gaussian 09 at Tue Aug 16 18:42:29 2016.
