 Gaussian 09, Revision E.01,
 Gaussian 09:  EM64L-G09RevE.01 30-Nov-2015

 ---------------------------------------------
 #p b3lyp/6-311++G(3df,2p) freq symmetry=Loose
 ---------------------------------------------

 ---------
 b3lyp opt
 ---------
 Symbolic Z-matrix:
 Charge =  0 Multiplicity = 2

                         Standard orientation:
 ---------------------------------------------------------------------
 Center     Atomic      Atomic             Coordinates (Angstroms)
 Number     Number       Type             X           Y           Z
 ---------------------------------------------------------------------
      1          6           0        0.055620   -0.577638   -0.702059
      2          6           0        0.402242   -0.007389    0.768483
      3          6           0        0.001882    1.306587    0.139012
      4          6           0        1.420579   -0.171906   -0.250974
      5          6           0       -1.016507    0.471305   -0.434326
      6          7           0       -0.740413   -0.875108    0.411312
 ---------------------------------------------------------------------

 SCF Done:  E(UB3LYP) =  -244.841755710     A.U. after   21 cycles

 The electronic state is 2-A.
 Alpha  occ. eigenvalues --  -14.45205 -10.34659 -10.33295 -10.31689 -10.29884
 Alpha  occ. eigenvalues --  -10.28067  -1.17944  -0.87955  -0.81538  -0.70577
 Alpha  occ. eigenvalues --   -0.53825  -0.52612  -0.49653  -0.46763  -0.41810
 Alpha  occ. eigenvalues --   -0.40257  -0.34138  -0.31333  -0.27605
 Alpha virt. eigenvalues --   -0.13605  -0.11404  -0.09772  -0.01093   0.01494
 Alpha virt. eigenvalues --    0.02195   0.03596   0.04641   0.06261   0.06852
 Alpha virt. eigenvalues --    0.06982   0.07361   0.07913   0.09472   0.11185

  Beta  occ. eigenvalues --  -14.44852 -10.34613 -10.33182 -10.30588 -10.29643
  Beta  occ. eigenvalues --  -10.27763  -1.17369  -0.87246  -0.80604  -0.69950
  Beta  occ. eigenvalues --   -0.53020  -0.51119  -0.48304  -0.44721  -0.41061
  Beta  occ. eigenvalues --   -0.39615  -0.32612  -0.29142
  Beta virt. eigenvalues --   -0.17010  -0.12759  -0.10778  -0.08987  -0.00163
  Beta virt. eigenvalues --    0.01713   0.02414   0.03703   0.05238   0.06410
  Beta virt. eigenvalues --    0.06903   0.07071   0.07442   0.07977   0.09680

 Mulliken charges and spin densities:
               1          2
     1  C    0.643062  -0.026309
     2  C    0.697441   0.097324
     3  C   -0.233809   0.106036
     4  C   -0.489389   0.135188
     5  C   -0.018195   0.570883
     6  N   -0.599109   0.116879
 Sum of Mulliken charges =  -0.00000   1.00000

 Dipole moment (field-independent basis, Debye):
    X=             -0.9940    Y=             -1.3270    Z=              0.2311  Tot=              1.6741
 Quadrupole moment (field-independent basis, Debye-Ang):
   XX=            -38.3997   YY=            -37.1275   ZZ=            -32.7595
   XY=             -1.6959   XZ=              1.1937   YZ=              1.0599

  Exact polarizability:  61.059  -1.672  54.807   2.948   2.544  45.152
 Approx polarizability: 118.880  -7.272 110.778  10.370  11.497  98.028

                      1                      2                      3
                      A                      A                      A
 Frequencies --    153.9689               361.8753               514.6004
 Red. masses --     12.0290                12.0618                12.6291
 Frc consts  --      0.1680                 0.9306                 1.9704
 IR Inten    --     21.5545                 7.3807                44.5189

                      4                      5                      6
                      A                      A                      A
 Frequencies --    573.3616               646.5201               682.3721
 Red. masses --     12.1780                12.3924                12.6059
 Frc consts  --      2.3588                 3.0519                 3.4583
 IR Inten    --      3.5893                 6.6708                13.0692

                      7                      8                      9
                      A                      A                      A
 Frequencies --    828.6046               883.6158               886.9165
 Red. masses --     12.0471                12.3329                12.3184
 Frc consts  --      4.8733                 5.6734                 5.7091
 IR Inten    --      1.2235                 4.4209                 6.1978

                     10                     11                     12
                      A                      A                      A
 Frequencies --   1135.2843              1190.5313              1257.4130
 Red. masses --     12.0872                12.0472                12.5279
 Frc consts  --      9.1787                10.0605                11.6704
 IR Inten    --      8.8156                 3.3433                 7.0252

 - Thermochemistry -
 -------------------
 Temperature   298.150 Kelvin.  Pressure   1.00000 Atm.
 Atom     1 has atomic number  6 and mass  12.00000

 Molecular mass:    74.00307 amu.
 Principal axes and moments of inertia in atomic units:
                           1         2         3
     Eigenvalues --   203.03796 231.73800 301.77625
           X            1.00000  -0.00025   0.00003
           Y            0.00025   1.00000   0.00006
           Z           -0.00003  -0.00006   1.00000
 This molecule is an asymmetric top.
 Rotational symmetry number  1.
 Rotational temperatures (Kelvin)      0.42659     0.37376     0.28701
 Rotational constants (GHZ):           8.88869     7.78785     5.98040
 Zero-point vibrational energy      54520.2 (Joules/Mol)
                                   13.03064 (Kcal/Mol)
 Warning -- explicit consideration of   4 degrees of freedom as
           vibrations may cause significant error
 Vibrational temperatures:    221.53   520.66   740.39   824.94   930.20
          (Kelvin)            981.78  1192.18  1271.32  1276.07  1633.42
                             1712.91  1809.13

 Zero-point correction=                           0.020766 (Hartree/Particle)
 Thermal correction to Energy=                    0.025465
 Thermal correction to Enthalpy=                  0.026409
 Thermal correction to Gibbs Free Energy=        -0.007105
 Sum of electronic and zero-point Energies=           -244.820990
 Sum of electronic and thermal Energies=              -244.816291
 Sum of electronic and thermal Enthalpies=            -244.815347
 Sum of electronic and thermal Free Energies=         -244.848861

                     E (Thermal)             CV                S
                      KCal/Mol        Cal/Mol-Kelvin    Cal/Mol-Kelvin
 Total                   15.979             15.794             70.536
 Electronic               0.000              0.000              1.377
 Translational            0.889              2.981             38.821
 Rotational               0.889              2.981             24.166
 Vibrational             14.202              9.832              6.172
 Vibration     1          0.619              1.898              2.623
 Vibration     2          0.736              1.551              1.114
 Vibration     3          0.870              1.218              0.623
 Vibration     4          0.930              1.089              0.498

 Normal termination of Gaussian 09 at Tue Aug 16 18:42:55 2016.
