 Gaussian 09, Revision E.01,
 Gaussian 09:  EM64L-G09RevE.01 30-Nov-2015

 ---------------------------------------------
 #p b3lyp/6-311++G(3df,2p) freq symmetry=Loose
 ---------------------------------------------

 ---------
 b3lyp opt
 ---------
 Symbolic Z-matrix:
 Charge =  1 Multiplicity = 1

                         Standard orientation:
 ---------------------------------------------------------------------
 Center     Atomic      Atomic             Coordinates (Angstroms)
 Number     Number       Type             X           Y           Z
 ---------------------------------------------------------------------
      1          7           0        0.000000    0.000000    1.856693
      2          6           0        0.000000    0.000000    0.609206
      3          6           0        0.000000    0.000000   -0.651180
      4          6           0        0.000000    0.000000   -1.932447
      5          6           0        0.000000    0.000000   -3.264347
      6          6           0        0.000000    0.000000    3.072624
 ---------------------------------------------------------------------

 SCF Done:  E(RB3LYP) =  -244.672559206     A.U. after   14 cycles

 Unable to determine electronic state:  partially filled degenerate orbitals.
 Alpha  occ. eigenvalues --  -14.66261 -10.57430 -10.53375 -10.51706 -10.51322
 Alpha  occ. eigenvalues --  -10.48760  -1.27797  -1.11048  -1.05572  -0.99678
 Alpha  occ. eigenvalues --   -0.90706  -0.72066  -0.72029  -0.61958  -0.61618
 Alpha  occ. eigenvalues --   -0.57856  -0.54299  -0.50890
 Alpha virt. eigenvalues --   -0.46299  -0.33605  -0.33205  -0.21752  -0.21673
 Alpha virt. eigenvalues --   -0.17214  -0.11923  -0.10932  -0.10583  -0.08894
 Alpha virt. eigenvalues --   -0.08766  -0.08601  -0.07089  -0.05179  -0.04974

 Mulliken charges:
               1
     1  N   -0.768373
     2  C    0.338991
     3  C    0.425770
     4  C    1.074051
     5  C   -0.359096
     6  C    0.288657
 Sum of Mulliken charges =   1.00000

 Dipole moment (field-independent basis, Debye):
    X=              0.0000    Y=              0.0000    Z=              0.3796  Tot=              0.3796
 Quadrupole moment (field-independent basis, Debye-Ang):
   XX=            -30.9682   YY=            -27.7961   ZZ=            -17.7496
   XY=              0.0000   XZ=              0.0000   YZ=              0.0000

  Exact polarizability:  32.654  -0.000  33.141  -0.000   0.000 160.046
 Approx polarizability:  46.584  -0.000  50.081  -0.000  -0.000 415.490

                      1                      2                      3
                     ?A                     ?A                     ?A
 Frequencies --     77.4534               108.5739               153.2787
 Red. masses --     12.0031                12.0113                12.5005
 Frc consts  --      0.0424                 0.0834                 0.1730
 IR Inten    --     13.2357                 2.7413                 1.9644

                      4                      5                      6
                     ?A                     ?A                     ?A
 Frequencies --    213.2824               287.2965               367.4015
 Red. masses --     12.2685                12.5255                12.9376
 Frc consts  --      0.3288                 0.6091                 1.0289
 IR Inten    --      0.0674                 6.6347                 0.3594

                      7                      8                      9
                     ?A                     ?A                     SG
 Frequencies --    469.4669               618.9993               673.3293
 Red. masses --     12.0072                12.1659                12.3266
 Frc consts  --      1.5592                 2.7465                 3.2927
 IR Inten    --      0.4899                12.5847                 8.6452

                     10                     11                     12
                     SG                     SG                     SG
 Frequencies --   1237.7044              1760.2334              2026.4580
 Red. masses --     12.0112                12.1805                12.8459
 Frc consts  --     10.8411                22.2360                31.0806
 IR Inten    --    243.3232                36.4029              1535.0560

                     13
                     SG
 Frequencies --   2173.9377
 Red. masses --     12.0953
 Frc consts  --     33.6790
 IR Inten    --     48.9095

 - Thermochemistry -
 -------------------
 Temperature   298.150 Kelvin.  Pressure   1.00000 Atm.
 Atom     1 has atomic number  7 and mass  14.00307

 Molecular mass:    74.00307 amu.
 Principal axes and moments of inertia in atomic units:
                           1         2         3
     Eigenvalues --     0.000001227.699611227.69961
           X            0.00000  -0.00000   1.00000
           Y            0.00000   1.00000   0.00000
           Z            1.00000   0.00000   0.00000
 This molecule is a prolate symmetric top.
 Rotational symmetry number  1.
 Warning -- assumption of classical behavior for rotation
           may cause significant error
 Rotational temperature (Kelvin)      0.07055
 Rotational constant (GHZ):           1.470019
 Zero-point vibrational energy      60814.6 (Joules/Mol)
                                   14.53505 (Kcal/Mol)
 Warning -- explicit consideration of   8 degrees of freedom as
           vibrations may cause significant error
 Vibrational temperatures:    111.44   156.21   220.53   306.87   413.36
          (Kelvin)            528.61   675.46   890.60   968.77  1780.78
                             2532.58  2915.62  3127.81

 Zero-point correction=                           0.023163 (Hartree/Particle)
 Thermal correction to Energy=                    0.029515
 Thermal correction to Enthalpy=                  0.030460
 Thermal correction to Gibbs Free Energy=        -0.004421
 Sum of electronic and zero-point Energies=           -244.649396
 Sum of electronic and thermal Energies=              -244.643044
 Sum of electronic and thermal Enthalpies=            -244.642100
 Sum of electronic and thermal Free Energies=         -244.676980

                     E (Thermal)             CV                S
                      KCal/Mol        Cal/Mol-Kelvin    Cal/Mol-Kelvin
 Total                   18.521             19.249             73.412
 Electronic               0.000              0.000              0.000
 Translational            0.889              2.981             38.821
 Rotational               0.592              1.987             18.578
 Vibrational             17.040             14.281             16.013
 Vibration     1          0.599              1.964              3.954
 Vibration     2          0.606              1.942              3.294
 Vibration     3          0.619              1.899              2.631
 Vibration     4          0.644              1.821              2.015
 Vibration     5          0.684              1.697              1.490
 Vibration     6          0.740              1.539              1.091
 Vibration     7          0.827              1.318              0.739
 Vibration     8          0.979              0.992              0.418

 Optimization completed.
    -- Stationary point found.
 Normal termination of Gaussian 09 at Tue Aug 16 18:13:45 2016.
