 Gaussian 09, Revision E.01,
 Gaussian 09:  EM64L-G09RevE.01 30-Nov-2015

 ---------------------------------------------
 #p b3lyp/6-311++G(3df,2p) freq symmetry=Loose
 ---------------------------------------------

 ---------
 b3lyp opt
 ---------
 Symbolic Z-matrix:
 Charge =  1 Multiplicity = 3

                         Standard orientation:
 ---------------------------------------------------------------------
 Center     Atomic      Atomic             Coordinates (Angstroms)
 Number     Number       Type             X           Y           Z
 ---------------------------------------------------------------------
      1          6           0        0.000000   -0.000000    0.616474
      2          6           0        0.000000   -0.000000    3.197921
      3          6           0       -0.000000    0.000000   -1.825497
      4          6           0       -0.000000    0.000000   -3.165690
      5          6           0        0.000000   -0.000000    1.880076
      6          7           0       -0.000000    0.000000   -0.602815
 ---------------------------------------------------------------------

 SCF Done:  E(UB3LYP) =  -244.642592058     A.U. after   18 cycles

 The electronic state is 3-SG.
 Alpha  occ. eigenvalues --  -14.70457 -10.56992 -10.54304 -10.51869 -10.51780
 Alpha  occ. eigenvalues --  -10.47093  -1.30729  -1.11585  -1.06083  -1.00205
 Alpha  occ. eigenvalues --   -0.93750  -0.75310  -0.75310  -0.61282  -0.61282
 Alpha  occ. eigenvalues --   -0.56201  -0.54908  -0.53180  -0.53180
 Alpha virt. eigenvalues --   -0.36862  -0.36862  -0.22517  -0.22517  -0.18330
 Alpha virt. eigenvalues --   -0.13086  -0.11604  -0.11604  -0.09412  -0.09412
 Alpha virt. eigenvalues --   -0.08475  -0.07301  -0.06190  -0.06190  -0.04220

  Beta  occ. eigenvalues --  -14.70036 -10.57166 -10.53594 -10.51158 -10.50700
  Beta  occ. eigenvalues --  -10.46710  -1.29594  -1.10563  -1.03775  -0.96346
  Beta  occ. eigenvalues --   -0.92577  -0.73545  -0.73545  -0.58284  -0.58284
  Beta  occ. eigenvalues --   -0.53788  -0.53663
  Beta virt. eigenvalues --   -0.43850  -0.43850  -0.33462  -0.33462  -0.18615
  Beta virt. eigenvalues --   -0.18615  -0.18051  -0.12478  -0.11140  -0.11140
  Beta virt. eigenvalues --   -0.07957  -0.07850  -0.07850  -0.06383  -0.05618

 Mulliken charges and spin densities:
               1          2
     1  C   -0.149766  -0.071094
     2  C   -0.476510   0.359108
     3  C    1.192664   0.502437
     4  C   -0.201535   0.772940
     5  C    1.793086   0.257568
     6  N   -1.157940   0.179040
 Sum of Mulliken charges =   1.00000   2.00000

 Dipole moment (field-independent basis, Debye):
    X=             -0.0000    Y=             -0.0000    Z=             -0.2350  Tot=              0.2350
 Quadrupole moment (field-independent basis, Debye-Ang):
   XX=            -29.3546   YY=            -29.3546   ZZ=            -20.1765
   XY=             -0.0000   XZ=             -0.0000   YZ=              0.0000

  Exact polarizability:  35.368   0.000  35.368  -0.000  -0.000 183.367
 Approx polarizability:  48.878  -0.000  48.878   0.000  -0.000 479.662

                      1                      2                      3
                     PI                     PI                     PI
 Frequencies --     22.9344                22.9358               102.7557
 Red. masses --     12.1835                12.1835                12.0143
 Frc consts  --      0.0038                 0.0038                 0.0747
 IR Inten    --     18.3834                18.3834                 0.2433

                      4                      5                      6
                     PI                     PI                     PI
 Frequencies --    102.7558               248.8906               248.8908
 Red. masses --     12.0143                12.8372                12.8372
 Frc consts  --      0.0747                 0.4685                 0.4685
 IR Inten    --      0.2433                13.9820                13.9820

                      7                      8                      9
                     PI                     PI                     SG
 Frequencies --    492.2011               492.2012               692.4071
 Red. masses --     12.4010                12.4010                12.0313
 Frc consts  --      1.7701                 1.7701                 3.3985
 IR Inten    --      3.0346                 3.0346                 0.1945

                     10                     11                     12
                     SG                     SG                     SG
 Frequencies --   1154.2588              1690.4980              2064.2219
 Red. masses --     12.3832                12.1108                12.6050
 Frc consts  --      9.7205                20.3916                31.6450
 IR Inten    --    452.5773                 4.9342               482.7070

                     13
                     SG
 Frequencies --   2181.2059
 Red. masses --     12.3113
 Frc consts  --     34.5102
 IR Inten    --    845.1015

 - Thermochemistry -
 -------------------
 Temperature   298.150 Kelvin.  Pressure   1.00000 Atm.
 Atom     1 has atomic number  6 and mass  12.00000

 Molecular mass:    74.00307 amu.
 Principal axes and moments of inertia in atomic units:
                           1         2         3
     Eigenvalues --     0.000001196.428211196.42821
           X            0.00000  -0.14709   0.98912
           Y           -0.00000   0.98912   0.14709
           Z            1.00000   0.00000  -0.00000
 This molecule is a prolate symmetric top.
 Rotational symmetry number  1.
 Warning -- assumption of classical behavior for rotation
           may cause significant error
 Rotational temperature (Kelvin)      0.07239
 Rotational constant (GHZ):           1.508441
 Zero-point vibrational energy      56919.3 (Joules/Mol)
                                   13.60403 (Kcal/Mol)
 Warning -- explicit consideration of   8 degrees of freedom as
           vibrations may cause significant error
 Vibrational temperatures:     33.00    33.00   147.84   147.84   358.10
          (Kelvin)            358.10   708.17   708.17   996.22  1660.72
                             2432.25  2969.95  3138.26

 Zero-point correction=                           0.021679 (Hartree/Particle)
 Thermal correction to Energy=                    0.028859
 Thermal correction to Enthalpy=                  0.029803
 Thermal correction to Gibbs Free Energy=        -0.010233
 Sum of electronic and zero-point Energies=           -244.620913
 Sum of electronic and thermal Energies=              -244.613733
 Sum of electronic and thermal Enthalpies=            -244.612789
 Sum of electronic and thermal Free Energies=         -244.652825

                     E (Thermal)             CV                S
                      KCal/Mol        Cal/Mol-Kelvin    Cal/Mol-Kelvin
 Total                   18.109             20.030             84.263
 Electronic               0.000              0.000              2.183
 Translational            0.889              2.981             38.821
 Rotational               0.592              1.987             18.527
 Vibrational             16.628             15.062             24.732
 Vibration     1          0.593              1.985              6.362
 Vibration     2          0.593              1.985              6.362
 Vibration     3          0.605              1.947              3.401
 Vibration     4          0.605              1.947              3.401
 Vibration     5          0.662              1.765              1.738
 Vibration     6          0.662              1.765              1.738
 Vibration     7          0.848              1.267              0.678
 Vibration     8          0.848              1.267              0.678

 Optimization completed.
    -- Stationary point found.
 Normal termination of Gaussian 09 at Tue Aug 16 18:01:17 2016.
