 Gaussian 09, Revision E.01,
 Gaussian 09:  EM64L-G09RevE.01 30-Nov-2015

 ---------------------------------------------
 #p b3lyp/6-311++G(3df,2p) freq symmetry=Loose
 ---------------------------------------------

 ---------
 b3lyp opt
 ---------
 Symbolic Z-matrix:
 Charge =  1 Multiplicity = 1

                         Standard orientation:
 ---------------------------------------------------------------------
 Center     Atomic      Atomic             Coordinates (Angstroms)
 Number     Number       Type             X           Y           Z
 ---------------------------------------------------------------------
      1          6           0        0.396999   -0.567932    0.728910
      2          6           0       -0.572127    0.571736    0.000000
      3          6           0        0.396999    0.773196   -1.220654
      4          6           0        0.396999    0.773196    1.220654
      5          6           0        0.396999   -0.567932   -0.728910
      6          7           0       -0.870744   -0.841941    0.000000
 ---------------------------------------------------------------------

 SCF Done:  E(RB3LYP) =  -244.494957880     A.U. after   12 cycles

 The electronic state is 1-A'.
 Alpha  occ. eigenvalues --  -14.73269 -10.61591 -10.60906 -10.60872 -10.57472
 Alpha  occ. eigenvalues --  -10.57470  -1.46407  -1.12631  -1.09796  -0.97919
 Alpha  occ. eigenvalues --   -0.80530  -0.76454  -0.76409  -0.70760  -0.68972
 Alpha  occ. eigenvalues --   -0.64762  -0.57198  -0.56901
 Alpha virt. eigenvalues --   -0.41383  -0.40116  -0.39083  -0.34957  -0.19882
 Alpha virt. eigenvalues --   -0.17119  -0.15113  -0.12557  -0.11602  -0.11290
 Alpha virt. eigenvalues --   -0.09972  -0.08362  -0.08036  -0.07105  -0.06855

 Mulliken charges:
               1
     1  C    0.563471
     2  C    0.725979
     3  C   -0.220518
     4  C   -0.220518
     5  C    0.563471
     6  N   -0.411884
 Sum of Mulliken charges =   1.00000

 Dipole moment (field-independent basis, Debye):
    X=              0.0208    Y=             -1.2846    Z=              0.0000  Tot=              1.2848
 Quadrupole moment (field-independent basis, Debye-Ang):
   XX=            -28.9308   YY=            -29.8960   ZZ=            -27.4308
   XY=             -2.3094   XZ=              0.0000   YZ=              0.0000

  Exact polarizability:  36.965   0.989  43.414  -0.000  -0.000  52.033
 Approx polarizability:  78.668  -6.943 102.460  -0.000   0.000 119.352

                      1                      2                      3
                     A"                     A'                     A"
 Frequencies --    225.8671               259.7031               535.2777
 Red. masses --     12.0918                12.0760                12.1251
 Frc consts  --      0.3635                 0.4799                 2.0469
 IR Inten    --     10.0541                10.1929                 5.1917

                      4                      5                      6
                     A'                     A'                     A"
 Frequencies --    589.2871               654.2265               677.1631
 Red. masses --     12.0263                12.7939                12.6422
 Frc consts  --      2.4606                 3.2263                 3.4155
 IR Inten    --      8.4500                 3.6034                 8.8015

                      7                      8                      9
                     A"                     A'                     A'
 Frequencies --    766.3449               825.7294               996.7974
 Red. masses --     12.1504                12.2970                12.5905
 Frc consts  --      4.2043                 4.9400                 7.3707
 IR Inten    --      0.5794                10.9734                 0.2218

                     10                     11                     12
                     A"                     A'                     A'
 Frequencies --   1064.2685              1161.9803              1309.1386
 Red. masses --     12.0031                12.0943                12.3960
 Frc consts  --      8.0103                 9.6212                12.5171
 IR Inten    --     33.0724                12.9442                 3.2271

 - Thermochemistry -
 -------------------
 Temperature   298.150 Kelvin.  Pressure   1.00000 Atm.
 Atom     1 has atomic number  6 and mass  12.00000

 Molecular mass:    74.00307 amu.
 Principal axes and moments of inertia in atomic units:
                           1         2         3
     Eigenvalues --   207.29383 238.31795 315.45010
           X           -0.00000   0.42415   0.90559
           Y           -0.00000   0.90559  -0.42415
           Z            1.00000   0.00000  -0.00000
 This molecule is an asymmetric top.
 Rotational symmetry number  1.
 Rotational temperatures (Kelvin)      0.41783     0.36344     0.27457
 Rotational constants (GHZ):           8.70620     7.57283     5.72116
 Zero-point vibrational energy      54225.4 (Joules/Mol)
                                   12.96019 (Kcal/Mol)
 Warning -- explicit consideration of   4 degrees of freedom as
           vibrations may cause significant error
 Vibrational temperatures:    324.97   373.65   770.14   847.85   941.28
          (Kelvin)            974.29  1102.60  1188.04  1434.17  1531.24
                             1671.83  1883.56

 Zero-point correction=                           0.020653 (Hartree/Particle)
 Thermal correction to Energy=                    0.025356
 Thermal correction to Enthalpy=                  0.026301
 Thermal correction to Gibbs Free Energy=        -0.006514
 Sum of electronic and zero-point Energies=           -244.474305
 Sum of electronic and thermal Energies=              -244.469601
 Sum of electronic and thermal Enthalpies=            -244.468657
 Sum of electronic and thermal Free Energies=         -244.501472

                     E (Thermal)             CV                S
                      KCal/Mol        Cal/Mol-Kelvin    Cal/Mol-Kelvin
 Total                   15.911             15.914             69.064
 Electronic               0.000              0.000              0.000
 Translational            0.889              2.981             38.821
 Rotational               0.889              2.981             24.259
 Vibrational             14.134              9.952              5.984
 Vibration     1          0.650              1.802              1.912
 Vibration     2          0.668              1.746              1.664
 Vibration     3          0.890              1.172              0.576
 Vibration     4          0.947              1.055              0.468

 Normal termination of Gaussian 09 at Tue Aug 16 18:17:47 2016.
