 Gaussian 09, Revision E.01,
 Gaussian 09:  EM64L-G09RevE.01 30-Nov-2015

 ---------------------------------------------
 #p b3lyp/6-311++G(3df,2p) freq symmetry=Loose
 ---------------------------------------------

 ---------
 b3lyp opt
 ---------
 Symbolic Z-matrix:
 Charge =  0 Multiplicity = 4

                         Standard orientation:
 ---------------------------------------------------------------------
 Center     Atomic      Atomic             Coordinates (Angstroms)
 Number     Number       Type             X           Y           Z
 ---------------------------------------------------------------------
      1          6           0        0.132780   -1.052248    0.892443
      2          6           0       -0.642183    2.461659    0.000000
      3          6           0        0.626677   -1.984142   -0.000000
      4          6           0        0.132780    0.082284    0.000000
      5          6           0        0.132780   -1.052248   -0.892443
      6          7           0       -0.328145    1.324025    0.000000
 ---------------------------------------------------------------------

 SCF Done:  E(UB3LYP) =  -244.951136572     A.U. after   16 cycles

 The electronic state is 4-A".
 Alpha  occ. eigenvalues --  -14.40205 -10.32327 -10.29051 -10.29048 -10.28401
 Alpha  occ. eigenvalues --  -10.26009  -1.03737  -0.99212  -0.80396  -0.65340
 Alpha  occ. eigenvalues --   -0.64630  -0.50890  -0.50409  -0.43037  -0.40526
 Alpha  occ. eigenvalues --   -0.39624  -0.35375  -0.34116  -0.26197  -0.26002
 Alpha virt. eigenvalues --   -0.10068  -0.05602  -0.02881   0.00147   0.02905
 Alpha virt. eigenvalues --    0.02995   0.03565   0.03671   0.06478   0.06878
 Alpha virt. eigenvalues --    0.07607   0.08575   0.08999   0.09027   0.11400

  Beta  occ. eigenvalues --  -14.40352 -10.30997 -10.28034 -10.28029 -10.26153
  Beta  occ. eigenvalues --  -10.25628  -1.02386  -0.97535  -0.78488  -0.61703
  Beta  occ. eigenvalues --   -0.61264  -0.48572  -0.46742  -0.39306  -0.38789
  Beta  occ. eigenvalues --   -0.34826  -0.33345
  Beta virt. eigenvalues --   -0.18774  -0.13973  -0.13441  -0.08201  -0.02285
  Beta virt. eigenvalues --   -0.01342   0.00792   0.03525   0.03671   0.04203
  Beta virt. eigenvalues --    0.05082   0.06993   0.07028   0.08321   0.09052

 Mulliken charges and spin densities:
               1          2
     1  C    0.004383   0.456397
     2  C    0.032800   0.229047
     3  C   -0.087712   1.295372
     4  C    0.575653   0.646900
     5  C    0.004383   0.456397
     6  N   -0.529507  -0.084113
 Sum of Mulliken charges =  -0.00000   3.00000

 Dipole moment (field-independent basis, Debye):
    X=              1.0196    Y=             -1.6329    Z=             -0.0000  Tot=              1.9250
 Quadrupole moment (field-independent basis, Debye-Ang):
   XX=            -33.5222   YY=            -40.6926   ZZ=            -34.8983
   XY=              1.4580   XZ=              0.0000   YZ=              0.0000

  Exact polarizability:  41.214 -15.033  92.288  -0.000   0.000  56.001
 Approx polarizability:  63.341 -28.948 155.716   0.000  -0.000 111.108

                      1                      2                      3
                     A"                     A'                     A'
 Frequencies --    174.2264               176.6975               391.6008
 Red. masses --     12.4225                12.2055                13.0301
 Frc consts  --      0.2222                 0.2245                 1.1773
 IR Inten    --      2.7741                 3.2063                 0.7951

                      4                      5                      6
                     A"                     A'                     A'
 Frequencies --    489.6485               526.3831               615.0124
 Red. masses --     12.7722                12.1233                12.1293
 Frc consts  --      1.8042                 1.9791                 2.7030
 IR Inten    --      0.0722                16.3524                 1.3589

                      7                      8                      9
                     A'                     A"                     A"
 Frequencies --    821.3452               941.1331              1168.6226
 Red. masses --     12.1546                12.0350                12.0009
 Frc consts  --      4.8311                 6.2805                 9.6564
 IR Inten    --     13.9166                30.6100                 0.2361

                     10                     11                     12
                     A'                     A'                     A'
 Frequencies --   1300.3822              1485.2023              2083.0859
 Red. masses --     12.0250                12.0073                13.0360
 Frc consts  --     11.9805                15.6051                33.3279
 IR Inten    --     20.3508                14.8975               167.2423

 - Thermochemistry -
 -------------------
 Temperature   298.150 Kelvin.  Pressure   1.00000 Atm.
 Atom     1 has atomic number  6 and mass  12.00000

 Molecular mass:    74.00307 amu.
 Principal axes and moments of inertia in atomic units:
                           1         2         3
     Eigenvalues --    71.28823 653.38234 718.61518
           X           -0.24585  -0.00000   0.96931
           Y            0.96931  -0.00000   0.24585
           Z            0.00000   1.00000   0.00000
 This molecule is an asymmetric top.
 Rotational symmetry number  1.
 Rotational temperatures (Kelvin)      1.21498     0.13256     0.12053
 Rotational constants (GHZ):          25.31612     2.76215     2.51142
 Zero-point vibrational energy      60850.1 (Joules/Mol)
                                   14.54352 (Kcal/Mol)
 Warning -- explicit consideration of   6 degrees of freedom as
           vibrations may cause significant error
 Vibrational temperatures:    250.67   254.23   563.43   704.49   757.35
          (Kelvin)            884.86  1181.73  1354.08  1681.39  1870.96
                             2136.87  2997.09

 Zero-point correction=                           0.023177 (Hartree/Particle)
 Thermal correction to Energy=                    0.028271
 Thermal correction to Enthalpy=                  0.029215
 Thermal correction to Gibbs Free Energy=        -0.006155
 Sum of electronic and zero-point Energies=           -244.927960
 Sum of electronic and thermal Energies=              -244.922866
 Sum of electronic and thermal Enthalpies=            -244.921922
 Sum of electronic and thermal Free Energies=         -244.957291

                     E (Thermal)             CV                S
                      KCal/Mol        Cal/Mol-Kelvin    Cal/Mol-Kelvin
 Total                   17.740             16.184             74.442
 Electronic               0.000              0.000              2.755
 Translational            0.889              2.981             38.821
 Rotational               0.889              2.981             25.018
 Vibrational             15.963             10.222              7.848
 Vibration     1          0.627              1.874              2.389
 Vibration     2          0.628              1.871              2.363
 Vibration     3          0.759              1.488              0.994
 Vibration     4          0.845              1.273              0.685
 Vibration     5          0.881              1.192              0.595
 Vibration     6          0.975              1.000              0.425

 Optimization completed.
    -- Stationary point found.
 Normal termination of Gaussian 09 at Tue Aug 16 18:41:18 2016.
