 Gaussian 09, Revision E.01,
 Gaussian 09:  EM64L-G09RevE.01 30-Nov-2015

 ---------------------------------------------
 #p b3lyp/6-311++G(3df,2p) freq symmetry=Loose
 ---------------------------------------------

 ---------
 b3lyp opt
 ---------
 Symbolic Z-matrix:
 Charge =  0 Multiplicity = 2

                         Standard orientation:
 ---------------------------------------------------------------------
 Center     Atomic      Atomic             Coordinates (Angstroms)
 Number     Number       Type             X           Y           Z
 ---------------------------------------------------------------------
      1          6           0        0.000000    1.353347   -0.000000
      2          6           0        1.334644   -0.964296    0.000000
      3          6           0       -0.134176   -1.272540   -0.000000
      4          6           0        0.413765    0.023607    0.000000
      5          6           0       -1.232837   -2.009278   -0.000000
      6          7           0       -0.326912    2.459280   -0.000000
 ---------------------------------------------------------------------

 SCF Done:  E(UB3LYP) =  -245.029608388     A.U. after   20 cycles

 The electronic state is 2-A".
 Alpha  occ. eigenvalues --  -14.38677 -10.32268 -10.29356 -10.28965 -10.28746
 Alpha  occ. eigenvalues --  -10.28005  -1.00387  -0.97269  -0.80650  -0.75313
 Alpha  occ. eigenvalues --   -0.55214  -0.49269  -0.45897  -0.42837  -0.41171
 Alpha  occ. eigenvalues --   -0.40989  -0.35580  -0.31976  -0.31195
 Alpha virt. eigenvalues --   -0.15516  -0.12225  -0.03575  -0.02991  -0.00603
 Alpha virt. eigenvalues --    0.02721   0.03660   0.04348   0.05639   0.05895
 Alpha virt. eigenvalues --    0.06152   0.06515   0.07781   0.09573   0.10027

  Beta  occ. eigenvalues --  -14.38496 -10.31951 -10.28879 -10.28631 -10.28428
  Beta  occ. eigenvalues --  -10.28089  -0.99838  -0.96924  -0.77874  -0.74891
  Beta  occ. eigenvalues --   -0.54790  -0.47255  -0.45526  -0.42562  -0.40833
  Beta  occ. eigenvalues --   -0.39519  -0.34114  -0.31682
  Beta virt. eigenvalues --   -0.20792  -0.14509  -0.10753  -0.03508  -0.00522
  Beta virt. eigenvalues --   -0.00343   0.02880   0.04391   0.04504   0.05685
  Beta virt. eigenvalues --    0.05957   0.06542   0.06907   0.08543   0.09673

 Mulliken charges and spin densities:
               1          2
     1  C    0.166001  -0.057858
     2  C   -0.363833   0.059634
     3  C    0.849639   0.117119
     4  C    0.943885   0.274946
     5  C   -0.690876   0.516846
     6  N   -0.904816   0.089313
 Sum of Mulliken charges =  -0.00000   1.00000

 Dipole moment (field-independent basis, Debye):
    X=              0.4503    Y=             -0.1286    Z=             -0.0000  Tot=              0.4684
 Quadrupole moment (field-independent basis, Debye-Ang):
   XX=            -39.1772   YY=            -43.5286   ZZ=            -32.2202
   XY=              0.2184   XZ=             -0.0000   YZ=              0.0000

  Exact polarizability:  64.993   7.884  90.500  -0.000  -0.000  38.504
 Approx polarizability: 131.409  23.834 165.468   0.000   0.000  56.386

                      1                      2                      3
                     A'                     A"                     A'
 Frequencies --    121.1875               224.5132               261.2133
 Red. masses --     12.4322                12.3999                12.3047
 Frc consts  --      0.1076                 0.3683                 0.4947
 IR Inten    --      7.0957                24.3143                 9.9426

                      4                      5                      6
                     A"                     A"                     A'
 Frequencies --    346.6544               545.7965               557.6791
 Red. masses --     12.0531                12.0828                12.1088
 Frc consts  --      0.8534                 2.1207                 2.2188
 IR Inten    --      8.6215                 2.2916                 1.6240

                      7                      8                      9
                     A'                     A'                     A'
 Frequencies --    632.0762               800.7358              1000.5890
 Red. masses --     12.3043                12.2478                12.0664
 Frc consts  --      2.8963                 4.6269                 7.1177
 IR Inten    --      0.0080                 2.5439                32.7624

                     10                     11                     12
                     A'                     A'                     A'
 Frequencies --   1452.7428              1725.9663              2321.9350
 Red. masses --     12.0469                12.0394                12.6583
 Frc consts  --     14.9798                21.1310                40.2091
 IR Inten    --    141.2997                94.2794                 0.5215

 - Thermochemistry -
 -------------------
 Temperature   298.150 Kelvin.  Pressure   1.00000 Atm.
 Atom     1 has atomic number  6 and mass  12.00000

 Molecular mass:    74.00307 amu.
 Principal axes and moments of inertia in atomic units:
                           1         2         3
     Eigenvalues --   154.24131 663.87064 818.11196
           X            0.03639   0.99934   0.00000
           Y            0.99934  -0.03639   0.00000
           Z           -0.00000  -0.00000   1.00000
 This molecule is an asymmetric top.
 Rotational symmetry number  1.
 Rotational temperatures (Kelvin)      0.56155     0.13047     0.10587
 Rotational constants (GHZ):          11.70076     2.71851     2.20598
 Zero-point vibrational energy      59760.0 (Joules/Mol)
                                   14.28298 (Kcal/Mol)
 Warning -- explicit consideration of   6 degrees of freedom as
           vibrations may cause significant error
 Vibrational temperatures:    174.36   323.02   375.83   498.76   785.28
          (Kelvin)            802.37   909.42  1152.08  1439.62  2090.17
                             2483.28  3340.74

 Zero-point correction=                           0.022761 (Hartree/Particle)
 Thermal correction to Energy=                    0.028291
 Thermal correction to Enthalpy=                  0.029236
 Thermal correction to Gibbs Free Energy=        -0.006763
 Sum of electronic and zero-point Energies=           -245.006847
 Sum of electronic and thermal Energies=              -245.001317
 Sum of electronic and thermal Enthalpies=            -245.000373
 Sum of electronic and thermal Free Energies=         -245.036371

                     E (Thermal)             CV                S
                      KCal/Mol        Cal/Mol-Kelvin    Cal/Mol-Kelvin
 Total                   17.753             17.410             75.765
 Electronic               0.000              0.000              1.377
 Translational            0.889              2.981             38.821
 Rotational               0.889              2.981             25.930
 Vibrational             15.976             11.449              9.637
 Vibration     1          0.609              1.932              3.081
 Vibration     2          0.649              1.804              1.922
 Vibration     3          0.669              1.744              1.654
 Vibration     4          0.725              1.582              1.181
 Vibration     5          0.901              1.149              0.553
 Vibration     6          0.913              1.123              0.528

 Optimization completed.
    -- Stationary point found.
 Normal termination of Gaussian 09 at Tue Aug 16 18:44:18 2016.
