 Gaussian 09, Revision E.01,
 Gaussian 09:  EM64L-G09RevE.01 30-Nov-2015

 ---------------------------------------------
 #p b3lyp/6-311++G(3df,2p) freq symmetry=Loose
 ---------------------------------------------

 ---------
 b3lyp opt
 ---------
 Symbolic Z-matrix:
 Charge =  1 Multiplicity = 1

                         Standard orientation:
 ---------------------------------------------------------------------
 Center     Atomic      Atomic             Coordinates (Angstroms)
 Number     Number       Type             X           Y           Z
 ---------------------------------------------------------------------
      1          6           0        0.464820   -1.075336   -0.000000
      2          6           0       -0.075566    2.156474    0.000000
      3          6           0       -0.810622   -1.531280   -0.000000
      4          6           0        0.000000    0.809503    0.000000
      5          6           0       -0.975022   -0.270056   -0.000000
      6          7           0        1.196906   -0.076547    0.000000
 ---------------------------------------------------------------------

 SCF Done:  E(RB3LYP) =  -244.563801591     A.U. after   14 cycles

 The electronic state is 1-A'.
 Alpha  occ. eigenvalues --  -14.64583 -10.60062 -10.57582 -10.56007 -10.54200
 Alpha  occ. eigenvalues --  -10.52955  -1.33794  -1.16415  -1.07000  -0.91924
 Alpha  occ. eigenvalues --   -0.82353  -0.80825  -0.75215  -0.68987  -0.59220
 Alpha  occ. eigenvalues --   -0.58132  -0.57294  -0.56870
 Alpha virt. eigenvalues --   -0.44362  -0.39238  -0.35633  -0.31736  -0.22501
 Alpha virt. eigenvalues --   -0.19046  -0.15693  -0.11239  -0.11068  -0.10277
 Alpha virt. eigenvalues --   -0.08489  -0.08177  -0.06864  -0.05786  -0.05540

 Mulliken charges:
               1
     1  C    0.915867
     2  C   -0.346324
     3  C   -0.169713
     4  C    0.899034
     5  C    0.408445
     6  N   -0.707308
 Sum of Mulliken charges =   1.00000

 Dipole moment (field-independent basis, Debye):
    X=             -1.3283    Y=             -0.8870    Z=             -0.0000  Tot=              1.5972
 Quadrupole moment (field-independent basis, Debye-Ang):
   XX=            -26.7081   YY=            -23.2627   ZZ=            -30.6861
   XY=             -0.8161   XZ=             -0.0000   YZ=             -0.0000

  Exact polarizability:  47.883   7.581  73.509   0.000  -0.000  29.010
 Approx polarizability: 108.802  30.882 173.435   0.000   0.000  43.444

                      1                      2                      3
                     A"                     A'                     A"
 Frequencies --    159.3889               179.6510               421.8489
 Red. masses --     12.0550                12.1987                12.0409
 Frc consts  --      0.1804                 0.2320                 1.2625
 IR Inten    --      0.2030                10.8449                 3.0020

                      4                      5                      6
                     A"                     A'                     A'
 Frequencies --    536.8712               554.9403               699.7070
 Red. masses --     12.4697                12.1117                13.1291
 Frc consts  --      2.1176                 2.1976                 3.7872
 IR Inten    --      2.3596                34.4450                25.8086

                      7                      8                      9
                     A'                     A'                     A'
 Frequencies --    819.6331               862.0216              1186.9801
 Red. masses --     12.1853                12.0921                12.3618
 Frc consts  --      4.8231                 5.2940                10.2617
 IR Inten    --      3.2309                 1.5866                19.5261

                     10                     11                     12
                     A'                     A'                     A'
 Frequencies --   1617.2651              1662.8639              1830.3494
 Red. masses --     12.0682                12.3886                12.1451
 Frc consts  --     18.5976                20.1829                23.9729
 IR Inten    --    161.1559                53.8801               356.8201

 - Thermochemistry -
 -------------------
 Temperature   298.150 Kelvin.  Pressure   1.00000 Atm.
 Atom     1 has atomic number  6 and mass  12.00000

 Molecular mass:    74.00307 amu.
 Principal axes and moments of inertia in atomic units:
                           1         2         3
     Eigenvalues --   145.81835 385.03615 530.85450
           X            0.13282   0.99114  -0.00000
           Y            0.99114  -0.13282  -0.00000
           Z            0.00000   0.00000   1.00000
 This molecule is an asymmetric top.
 Rotational symmetry number  1.
 Rotational temperatures (Kelvin)      0.59398     0.22495     0.16316
 Rotational constants (GHZ):          12.37664     4.68720     3.39969
 Zero-point vibrational energy      62992.5 (Joules/Mol)
                                   15.05556 (Kcal/Mol)
 Warning -- explicit consideration of   5 degrees of freedom as
           vibrations may cause significant error
 Vibrational temperatures:    229.32   258.48   606.95   772.44   798.43
          (Kelvin)           1006.72  1179.27  1240.26  1707.80  2326.88
                             2392.49  2633.46

 Zero-point correction=                           0.023993 (Hartree/Particle)
 Thermal correction to Energy=                    0.028991
 Thermal correction to Enthalpy=                  0.029936
 Thermal correction to Gibbs Free Energy=        -0.003953
 Sum of electronic and zero-point Energies=           -244.539809
 Sum of electronic and thermal Energies=              -244.534810
 Sum of electronic and thermal Enthalpies=            -244.533866
 Sum of electronic and thermal Free Energies=         -244.567755

                     E (Thermal)             CV                S
                      KCal/Mol        Cal/Mol-Kelvin    Cal/Mol-Kelvin
 Total                   18.192             15.771             71.325
 Electronic               0.000              0.000              0.000
 Translational            0.889              2.981             38.821
 Rotational               0.889              2.981             24.903
 Vibrational             16.415              9.810              7.601
 Vibration     1          0.621              1.892              2.557
 Vibration     2          0.629              1.867              2.332
 Vibration     3          0.784              1.423              0.886
 Vibration     4          0.892              1.168              0.572
 Vibration     5          0.910              1.129              0.534

 Optimization completed.
    -- Stationary point found.
 Normal termination of Gaussian 09 at Tue Aug 16 18:28:02 2016.
