 Gaussian 09, Revision E.01,
 Gaussian 09:  EM64L-G09RevE.01 30-Nov-2015

 ---------------------------------------------
 #p b3lyp/6-311++G(3df,2p) freq symmetry=Loose
 ---------------------------------------------

 ---------
 b3lyp opt
 ---------
 Symbolic Z-matrix:
 Charge =  0 Multiplicity = 2

                         Standard orientation:
 ---------------------------------------------------------------------
 Center     Atomic      Atomic             Coordinates (Angstroms)
 Number     Number       Type             X           Y           Z
 ---------------------------------------------------------------------
      1          6           0        0.000000   -0.801688   -0.696522
      2          6           0       -0.000000    0.925272    0.656529
      3          6           0        0.000000    0.801688   -0.696522
      4          6           0       -0.000000   -0.925272    0.656529
      5          6           0       -0.000000    0.000000   -1.813735
      6          7           0        0.000000   -0.000000    1.623188
 ---------------------------------------------------------------------

 SCF Done:  E(UB3LYP) =  -244.940475931     A.U. after   16 cycles

 The electronic state is 2-A1.
 Alpha  occ. eigenvalues --  -14.42719 -10.31119 -10.31116 -10.28949 -10.28934
 Alpha  occ. eigenvalues --  -10.27114  -1.08158  -0.95728  -0.75844  -0.74336
 Alpha  occ. eigenvalues --   -0.60915  -0.50315  -0.50213  -0.49130  -0.41463
 Alpha  occ. eigenvalues --   -0.38092  -0.30483  -0.30096  -0.24986
 Alpha virt. eigenvalues --   -0.16347  -0.11294  -0.03611  -0.02706   0.00655
 Alpha virt. eigenvalues --    0.03402   0.03951   0.04209   0.06005   0.06077
 Alpha virt. eigenvalues --    0.06998   0.07392   0.08412   0.09354   0.10963

  Beta  occ. eigenvalues --  -14.42621 -10.30798 -10.30796 -10.28268 -10.28256
  Beta  occ. eigenvalues --  -10.26796  -1.07826  -0.95299  -0.74703  -0.74137
  Beta  occ. eigenvalues --   -0.59843  -0.49949  -0.49117  -0.47042  -0.40089
  Beta  occ. eigenvalues --   -0.37661  -0.29337  -0.27917
  Beta virt. eigenvalues --   -0.15510  -0.14487  -0.10937  -0.01504  -0.00215
  Beta virt. eigenvalues --    0.00763   0.03507   0.04068   0.04734   0.06067
  Beta virt. eigenvalues --    0.06434   0.07513   0.07533   0.08427   0.09708

 Mulliken charges and spin densities:
               1          2
     1  C    0.362432   0.327075
     2  C    0.126283   0.176134
     3  C    0.362432   0.327075
     4  C    0.126283   0.176134
     5  C   -0.291501   0.035507
     6  N   -0.685928  -0.041926
 Sum of Mulliken charges =  -0.00000   1.00000

 Dipole moment (field-independent basis, Debye):
    X=              0.0000    Y=              0.0000    Z=              0.6086  Tot=              0.6086
 Quadrupole moment (field-independent basis, Debye-Ang):
   XX=            -33.5005   YY=            -31.7531   ZZ=            -41.8435
   XY=              0.0000   XZ=             -0.0000   YZ=              0.0000

  Exact polarizability:  36.687   0.000  61.259  -0.000  -0.000  83.165
 Approx polarizability:  54.907   0.000 199.763  -0.000  -0.000 174.451

                      1                      2                      3
                     B1                     B2                     B1
 Frequencies --    250.9622               328.3211               459.4688
 Red. masses --     12.4999                12.0124                12.2741
 Frc consts  --      0.4638                 0.7629                 1.5267
 IR Inten    --      3.0945                 0.0085                 1.9027

                      4                      5                      6
                     A2                     B2                     A1
 Frequencies --    539.6900               561.0683               619.1851
 Red. masses --     12.0000                12.7159                12.1983
 Frc consts  --      2.0593                 2.3585                 2.7554
 IR Inten    --      0.0000               131.6731                71.3346

                      7                      8                      9
                     A1                     B2                     A1
 Frequencies --    710.4266              1029.0796              1070.9579
 Red. masses --     12.1949                12.2340                12.3522
 Frc consts  --      3.6263                 7.6333                 8.3471
 IR Inten    --     21.9662                 0.5236                 8.4004

                     10                     11                     12
                     A1                     A1                     B2
 Frequencies --   1393.7598              1693.7930              1726.3435
 Red. masses --     12.5403                12.1475                12.0028
 Frc consts  --     14.3527                20.5333                21.0760
 IR Inten    --    114.1145                21.2217               169.6745

 - Thermochemistry -
 -------------------
 Temperature   298.150 Kelvin.  Pressure   1.00000 Atm.
 Atom     1 has atomic number  6 and mass  12.00000

 Molecular mass:    74.00307 amu.
 Principal axes and moments of inertia in atomic units:
                           1         2         3
     Eigenvalues --   128.45825 351.24355 479.70179
           X            0.00000   0.00000   1.00000
           Y           -0.00000   1.00000  -0.00000
           Z            1.00000   0.00000  -0.00000
 This molecule is an asymmetric top.
 Rotational symmetry number  2.
 Rotational temperatures (Kelvin)      0.67426     0.24659     0.18056
 Rotational constants (GHZ):          14.04924     5.13815     3.76221
 Zero-point vibrational energy      62104.5 (Joules/Mol)
                                   14.84332 (Kcal/Mol)
 Warning -- explicit consideration of   6 degrees of freedom as
           vibrations may cause significant error
 Vibrational temperatures:    361.08   472.38   661.07   776.49   807.25
          (Kelvin)            890.87  1022.14  1480.61  1540.87  2005.31
                             2436.99  2483.82

 Zero-point correction=                           0.023654 (Hartree/Particle)
 Thermal correction to Energy=                    0.028324
 Thermal correction to Enthalpy=                  0.029268
 Thermal correction to Gibbs Free Energy=        -0.003586
 Sum of electronic and zero-point Energies=           -244.916822
 Sum of electronic and thermal Energies=              -244.912152
 Sum of electronic and thermal Enthalpies=            -244.911208
 Sum of electronic and thermal Free Energies=         -244.944062

                     E (Thermal)             CV                S
                      KCal/Mol        Cal/Mol-Kelvin    Cal/Mol-Kelvin
 Total                   17.773             15.591             69.146
 Electronic               0.000              0.000              1.377
 Translational            0.889              2.981             38.821
 Rotational               0.889              2.981             23.208
 Vibrational             15.996              9.630              5.741
 Vibration     1          0.663              1.761              1.724
 Vibration     2          0.712              1.619              1.268
 Vibration     3          0.817              1.340              0.768
 Vibration     4          0.895              1.162              0.566
 Vibration     5          0.917              1.116              0.522
 Vibration     6          0.979              0.991              0.418

 Normal termination of Gaussian 09 at Tue Aug 16 18:29:43 2016.
