 Gaussian 09, Revision E.01,
 Gaussian 09:  EM64L-G09RevE.01 30-Nov-2015

 ---------------------------------------------
 #p b3lyp/6-311++G(3df,2p) freq symmetry=Loose
 ---------------------------------------------

 ---------
 b3lyp opt
 ---------
 Symbolic Z-matrix:
 Charge =  1 Multiplicity = 1

                         Standard orientation:
 ---------------------------------------------------------------------
 Center     Atomic      Atomic             Coordinates (Angstroms)
 Number     Number       Type             X           Y           Z
 ---------------------------------------------------------------------
      1          7           0        1.451171   -0.000260   -0.205195
      2          6           0       -0.075915   -0.000970   -0.768297
      3          6           0       -0.757609   -1.228415   -0.210862
      4          6           0        0.668302   -0.000810    0.745463
      5          6           0       -0.772240    0.001421    0.684795
      6          6           0       -0.755571    1.229077   -0.211705
 ---------------------------------------------------------------------

 SCF Done:  E(RB3LYP) =  -244.498957871     A.U. after   14 cycles

 The electronic state is 1-A.
 Alpha  occ. eigenvalues --  -14.70725 -10.62340 -10.60333 -10.58870 -10.57900
 Alpha  occ. eigenvalues --  -10.57898  -1.40561  -1.22105  -1.01601  -0.96377
 Alpha  occ. eigenvalues --   -0.85098  -0.75267  -0.71010  -0.69978  -0.68548
 Alpha  occ. eigenvalues --   -0.65651  -0.59159  -0.55087
 Alpha virt. eigenvalues --   -0.41137  -0.41066  -0.39505  -0.30705  -0.30225
 Alpha virt. eigenvalues --   -0.20264  -0.15650  -0.13794  -0.11302  -0.10685
 Alpha virt. eigenvalues --   -0.09196  -0.08784  -0.07646  -0.07521  -0.06343

 Mulliken charges:
               1
     1  N   -0.460360
     2  C    0.749757
     3  C   -0.122570
     4  C    0.501529
     5  C    0.454836
     6  C   -0.123192
 Sum of Mulliken charges =   1.00000

 Dipole moment (field-independent basis, Debye):
    X=             -0.4728    Y=              0.0003    Z=              1.0084  Tot=              1.1137
 Quadrupole moment (field-independent basis, Debye-Ang):
   XX=            -27.2589   YY=            -31.9400   ZZ=            -26.7415
   XY=             -0.0066   XZ=              2.1599   YZ=              0.0061

  Exact polarizability:  46.609   0.002  48.866   0.333  -0.002  38.857
 Approx polarizability:  99.426   0.001 111.771  -2.865  -0.007  93.021

                      1                      2                      3
                      A                      A                      A
 Frequencies --    272.6441               346.0399               353.7466
 Red. masses --     12.5765                12.4412                12.1917
 Frc consts  --      0.5508                 0.8777                 0.8989
 IR Inten    --      0.1991                 4.3222                 0.6829

                      4                      5                      6
                      A                      A                      A
 Frequencies --    435.9625               483.6179               582.0881
 Red. masses --     12.0850                12.5987                12.0277
 Frc consts  --      1.3533                 1.7361                 2.4011
 IR Inten    --      0.0398                 5.8357                 7.9354

                      7                      8                      9
                      A                      A                      A
 Frequencies --    755.0288               843.4014               977.7342
 Red. masses --     12.0468                12.1608                12.0768
 Frc consts  --      4.0462                 5.0966                 6.8021
 IR Inten    --      3.8229                19.0736                34.4288

                     10                     11                     12
                      A                      A                      A
 Frequencies --   1132.5644              1136.0707              1716.7874
 Red. masses --     12.0018                12.0636                12.7918
 Frc consts  --      9.0703                 9.1735                22.2134
 IR Inten    --    101.2000                 2.4266                 5.5639

 - Thermochemistry -
 -------------------
 Temperature   298.150 Kelvin.  Pressure   1.00000 Atm.
 Atom     1 has atomic number  7 and mass  14.00307

 Molecular mass:    74.00307 amu.
 Principal axes and moments of inertia in atomic units:
                           1         2         3
     Eigenvalues --   204.53594 274.44547 328.70924
           X            1.00000   0.00000   0.00003
           Y           -0.00000   1.00000  -0.00000
           Z           -0.00003   0.00000   1.00000
 This molecule is an asymmetric top.
 Rotational symmetry number  1.
 Rotational temperatures (Kelvin)      0.42347     0.31560     0.26350
 Rotational constants (GHZ):           8.82359     6.57596     5.49039
 Zero-point vibrational energy      54045.4 (Joules/Mol)
                                   12.91716 (Kcal/Mol)
 Warning -- explicit consideration of   6 degrees of freedom as
           vibrations may cause significant error
 Vibrational temperatures:    392.27   497.87   508.96   627.25   695.82
          (Kelvin)            837.49  1086.32  1213.47  1406.74  1629.51
                             1634.55  2470.07

 Zero-point correction=                           0.020585 (Hartree/Particle)
 Thermal correction to Energy=                    0.025523
 Thermal correction to Enthalpy=                  0.026467
 Thermal correction to Gibbs Free Energy=        -0.006706
 Sum of electronic and zero-point Energies=           -244.478373
 Sum of electronic and thermal Energies=              -244.473435
 Sum of electronic and thermal Enthalpies=            -244.472491
 Sum of electronic and thermal Free Energies=         -244.505664

                     E (Thermal)             CV                S
                      KCal/Mol        Cal/Mol-Kelvin    Cal/Mol-Kelvin
 Total                   16.016             16.835             69.819
 Electronic               0.000              0.000              0.000
 Translational            0.889              2.981             38.821
 Rotational               0.889              2.981             24.427
 Vibrational             14.239             10.873              6.572
 Vibration     1          0.676              1.724              1.579
 Vibration     2          0.724              1.583              1.184
 Vibration     3          0.730              1.568              1.149
 Vibration     4          0.796              1.392              0.839
 Vibration     5          0.840              1.286              0.700
 Vibration     6          0.939              1.070              0.482

 Normal termination of Gaussian 09 at Tue Aug 16 18:36:47 2016.
