 Gaussian 09, Revision E.01,
 Gaussian 09:  EM64L-G09RevE.01 30-Nov-2015

 ---------------------------------------------
 #p b3lyp/6-311++G(3df,2p) freq symmetry=Loose
 ---------------------------------------------

 ---------
 b3lyp opt
 ---------
 Symbolic Z-matrix:
 Charge =  0 Multiplicity = 2

                         Standard orientation:
 ---------------------------------------------------------------------
 Center     Atomic      Atomic             Coordinates (Angstroms)
 Number     Number       Type             X           Y           Z
 ---------------------------------------------------------------------
      1          6           0       -0.437484    0.799324    0.865818
      2          6           0        0.778793    0.613952   -0.000000
      3          6           0       -0.437484   -0.621934    0.778101
      4          6           0       -0.437484    0.799324   -0.865818
      5          6           0       -0.437484   -0.621934   -0.778101
      6          7           0        0.832407   -0.830342   -0.000000
 ---------------------------------------------------------------------

 SCF Done:  E(UB3LYP) =  -244.818120572     A.U. after   19 cycles

 The electronic state is 2-A'.
 Alpha  occ. eigenvalues --  -14.44766 -10.32692 -10.32025 -10.32005 -10.28044
 Alpha  occ. eigenvalues --  -10.28038  -1.16276  -0.86766  -0.77003  -0.74652
 Alpha  occ. eigenvalues --   -0.55416  -0.49902  -0.48265  -0.44259  -0.44220
 Alpha  occ. eigenvalues --   -0.42627  -0.31598  -0.28515  -0.27872
 Alpha virt. eigenvalues --   -0.17855  -0.13993  -0.04519   0.00724   0.01390
 Alpha virt. eigenvalues --    0.01716   0.03167   0.05891   0.06270   0.06898
 Alpha virt. eigenvalues --    0.06956   0.07424   0.08125   0.08733   0.10192

  Beta  occ. eigenvalues --  -14.44664 -10.32145 -10.31087 -10.31069 -10.28365
  Beta  occ. eigenvalues --  -10.28360  -1.15376  -0.86466  -0.76415  -0.72926
  Beta  occ. eigenvalues --   -0.54292  -0.49309  -0.48637  -0.41982  -0.41956
  Beta  occ. eigenvalues --   -0.39612  -0.33478  -0.28644
  Beta virt. eigenvalues --   -0.16806  -0.15101  -0.12225  -0.04067   0.01079
  Beta virt. eigenvalues --    0.01746   0.02049   0.03201   0.06182   0.06420
  Beta virt. eigenvalues --    0.06869   0.07019   0.07743   0.08208   0.09096

 Mulliken charges and spin densities:
               1          2
     1  C   -0.167653  -0.185754
     2  C    0.344303   0.308067
     3  C    0.243815   0.559747
     4  C   -0.167653  -0.185754
     5  C    0.243815   0.559747
     6  N   -0.496628  -0.056053
 Sum of Mulliken charges =  -0.00000   1.00000

 Dipole moment (field-independent basis, Debye):
    X=              0.3726    Y=             -1.0604    Z=             -0.0000  Tot=              1.1240
 Quadrupole moment (field-independent basis, Debye-Ang):
   XX=            -34.6976   YY=            -37.8634   ZZ=            -34.4590
   XY=              2.1826   XZ=             -0.0000   YZ=              0.0000

  Exact polarizability:  48.934  -0.273  62.106  -0.000  -0.000  60.240
 Approx polarizability: 100.472   9.094 133.592   0.000   0.000 134.468

                      1                      2                      3
                     A"                     A'                     A"
 Frequencies --    236.0760               317.6221               383.7367
 Red. masses --     12.0238                12.1214                12.0245
 Frc consts  --      0.3948                 0.7205                 1.0432
 IR Inten    --      8.1628               135.8088                 1.0612

                      4                      5                      6
                     A'                     A'                     A"
 Frequencies --    497.9591               649.6825               658.2181
 Red. masses --     12.1582                12.7902                12.9069
 Frc consts  --      1.7763                 3.1808                 3.2947
 IR Inten    --     11.3443                 8.0667                 0.3985

                      7                      8                      9
                     A"                     A'                     A'
 Frequencies --    713.9840               729.4252               869.7927
 Red. masses --     12.0126                12.0101                12.3525
 Frc consts  --      3.6080                 3.7649                 5.5060
 IR Inten    --      9.6481                 8.9268                 0.0738

                     10                     11                     12
                     A"                     A'                     A'
 Frequencies --   1014.3503              1076.9469              1207.4215
 Red. masses --     12.0139                12.9177                12.0495
 Frc consts  --      7.2830                 8.8272                10.3499
 IR Inten    --     17.3887                31.8941                 0.1402

 - Thermochemistry -
 -------------------
 Temperature   298.150 Kelvin.  Pressure   1.00000 Atm.
 Atom     1 has atomic number  6 and mass  12.00000

 Molecular mass:    74.00307 amu.
 Principal axes and moments of inertia in atomic units:
                           1         2         3
     Eigenvalues --   201.50697 231.98715 262.75630
           X           -0.36316   0.00000   0.93173
           Y            0.93173   0.00000   0.36316
           Z           -0.00000   1.00000   0.00000
 This molecule is an asymmetric top.
 Rotational symmetry number  1.
 Rotational temperatures (Kelvin)      0.42983     0.37336     0.32964
 Rotational constants (GHZ):           8.95622     7.77949     6.86850
 Zero-point vibrational energy      49975.3 (Joules/Mol)
                                   11.94438 (Kcal/Mol)
 Warning -- explicit consideration of   4 degrees of freedom as
           vibrations may cause significant error
 Vibrational temperatures:    339.66   456.99   552.11   716.45   934.75
          (Kelvin)            947.03  1027.26  1049.48  1251.44  1459.42
                             1549.48  1737.21

 Zero-point correction=                           0.019035 (Hartree/Particle)
 Thermal correction to Energy=                    0.023936
 Thermal correction to Enthalpy=                  0.024880
 Thermal correction to Gibbs Free Energy=        -0.008717
 Sum of electronic and zero-point Energies=           -244.799086
 Sum of electronic and thermal Energies=              -244.794185
 Sum of electronic and thermal Enthalpies=            -244.793241
 Sum of electronic and thermal Free Energies=         -244.826838

                     E (Thermal)             CV                S
                      KCal/Mol        Cal/Mol-Kelvin    Cal/Mol-Kelvin
 Total                   15.020             16.968             70.711
 Electronic               0.000              0.000              1.377
 Translational            0.889              2.981             38.821
 Rotational               0.889              2.981             24.022
 Vibrational             13.243             11.006              6.491
 Vibration     1          0.655              1.786              1.832
 Vibration     2          0.704              1.640              1.322
 Vibration     3          0.753              1.505              1.024
 Vibration     4          0.853              1.255              0.663

 Optimization completed.
    -- Stationary point found.
 Normal termination of Gaussian 09 at Tue Aug 16 18:45:33 2016.
