 Gaussian 09, Revision E.01,
 Gaussian 09:  EM64L-G09RevE.01 30-Nov-2015

 ---------------------------------------------
 #p b3lyp/6-311++G(3df,2p) freq symmetry=Loose
 ---------------------------------------------

 ---------
 b3lyp opt
 ---------
 Symbolic Z-matrix:
 Charge =  1 Multiplicity = 1

                         Standard orientation:
 ---------------------------------------------------------------------
 Center     Atomic      Atomic             Coordinates (Angstroms)
 Number     Number       Type             X           Y           Z
 ---------------------------------------------------------------------
      1          6           0       -0.000000    0.766285    0.000000
      2          6           0       -1.312674   -0.290716   -0.000000
      3          6           0       -0.370448   -1.112793   -0.000000
      4          6           0        2.214679   -0.284020   -0.000000
      5          6           0        0.874700   -0.409595   -0.000000
      6          7           0       -1.205363    1.140719    0.000000
 ---------------------------------------------------------------------

 SCF Done:  E(RB3LYP) =  -244.552244674     A.U. after   14 cycles

 The electronic state is 1-A'.
 Alpha  occ. eigenvalues --  -14.67123 -10.60821 -10.56714 -10.55460 -10.53653
 Alpha  occ. eigenvalues --  -10.52296  -1.34747  -1.15788  -1.04907  -0.92242
 Alpha  occ. eigenvalues --   -0.81747  -0.81002  -0.74753  -0.70746  -0.60007
 Alpha  occ. eigenvalues --   -0.59280  -0.56929  -0.54309
 Alpha virt. eigenvalues --   -0.43402  -0.37618  -0.36595  -0.33208  -0.24591
 Alpha virt. eigenvalues --   -0.17314  -0.16033  -0.11549  -0.11063  -0.09887
 Alpha virt. eigenvalues --   -0.09307  -0.08754  -0.06668  -0.06040  -0.06008

 Mulliken charges:
               1
     1  C    0.439240
     2  C    0.038789
     3  C    1.104418
     4  C   -0.556186
     5  C    0.496578
     6  N   -0.522839
 Sum of Mulliken charges =   1.00000

 Dipole moment (field-independent basis, Debye):
    X=              0.4431    Y=             -1.3023    Z=             -0.0000  Tot=              1.3756
 Quadrupole moment (field-independent basis, Debye-Ang):
   XX=            -24.2088   YY=            -26.0064   ZZ=            -30.7752
   XY=              0.3706   XZ=              0.0000   YZ=             -0.0000

  Exact polarizability:  69.949  -5.454  49.581   0.000  -0.000  29.333
 Approx polarizability: 159.757 -22.417 117.284  -0.000   0.000  43.967

                      1                      2                      3
                     A'                     A"                     A'
 Frequencies --     82.9647               163.2405               327.8658
 Red. masses --     12.1416                12.0579                12.1859
 Frc consts  --      0.0492                 0.1893                 0.7718
 IR Inten    --     17.7523                 0.4545                28.3162

                      4                      5                      6
                     A"                     A"                     A'
 Frequencies --    345.9797               468.5563               674.9974
 Red. masses --     12.0936                12.4480                12.1363
 Frc consts  --      0.8529                 1.6102                 3.2579
 IR Inten    --      1.7746                 0.5341                38.6310

                      7                      8                      9
                     A'                     A'                     A'
 Frequencies --    713.4454               922.3825               933.4514
 Red. masses --     12.5466                12.2504                12.4999
 Frc consts  --      3.7627                 6.1408                 6.4171
 IR Inten    --     12.3701                63.1719                 5.1142

                     10                     11                     12
                     A'                     A'                     A'
 Frequencies --   1587.5281              1703.2231              1903.7830
 Red. masses --     12.5992                12.0359                12.0437
 Frc consts  --     18.7084                20.5718                25.7185
 IR Inten    --     16.2365               205.2393                34.8916

 - Thermochemistry -
 -------------------
 Temperature   298.150 Kelvin.  Pressure   1.00000 Atm.
 Atom     1 has atomic number  6 and mass  12.00000

 Molecular mass:    74.00307 amu.
 Principal axes and moments of inertia in atomic units:
                           1         2         3
     Eigenvalues --   134.78320 418.12765 552.91085
           X            0.95896   0.28356   0.00000
           Y           -0.28356   0.95896   0.00000
           Z            0.00000  -0.00000   1.00000
 This molecule is an asymmetric top.
 Rotational symmetry number  1.
 Rotational temperatures (Kelvin)      0.64262     0.20715     0.15665
 Rotational constants (GHZ):          13.38996     4.31624     3.26407
 Zero-point vibrational energy      58781.0 (Joules/Mol)
                                   14.04900 (Kcal/Mol)
 Warning -- explicit consideration of   5 degrees of freedom as
           vibrations may cause significant error
 Vibrational temperatures:    119.37   234.87   471.73   497.79   674.15
          (Kelvin)            971.17  1026.49  1327.10  1343.03  2284.10
                             2450.56  2739.12

 Zero-point correction=                           0.022389 (Hartree/Particle)
 Thermal correction to Energy=                    0.027944
 Thermal correction to Enthalpy=                  0.028888
 Thermal correction to Gibbs Free Energy=        -0.006361
 Sum of electronic and zero-point Energies=           -244.529856
 Sum of electronic and thermal Energies=              -244.524301
 Sum of electronic and thermal Enthalpies=            -244.523356
 Sum of electronic and thermal Free Energies=         -244.558606

                     E (Thermal)             CV                S
                      KCal/Mol        Cal/Mol-Kelvin    Cal/Mol-Kelvin
 Total                   17.535             17.049             74.189
 Electronic               0.000              0.000              0.000
 Translational            0.889              2.981             38.821
 Rotational               0.889              2.981             24.947
 Vibrational             15.758             11.088             10.421
 Vibration     1          0.600              1.961              3.819
 Vibration     2          0.623              1.888              2.512
 Vibration     3          0.711              1.620              1.271
 Vibration     4          0.724              1.583              1.184
 Vibration     5          0.826              1.320              0.742

 Optimization completed.
    -- Stationary point found.
 Normal termination of Gaussian 09 at Tue Aug 16 18:28:56 2016.
