 Gaussian 09, Revision E.01,
 Gaussian 09:  EM64L-G09RevE.01 30-Nov-2015

 ---------------------------------------------
 #p b3lyp/6-311++G(3df,2p) freq symmetry=Loose
 ---------------------------------------------

 ---------
 b3lyp opt
 ---------
 Symbolic Z-matrix:
 Charge =  0 Multiplicity = 2

                         Standard orientation:
 ---------------------------------------------------------------------
 Center     Atomic      Atomic             Coordinates (Angstroms)
 Number     Number       Type             X           Y           Z
 ---------------------------------------------------------------------
      1          6           0       -0.635346    0.715470   -0.000000
      2          6           0        0.798580    0.077447   -0.000000
      3          7           0        0.247247   -1.301298    0.000000
      4          6           0        0.247247    0.766267    1.176028
      5          6           0       -0.946184   -0.807269    0.000000
      6          6           0        0.247247    0.766267   -1.176028
 ---------------------------------------------------------------------

 SCF Done:  E(UB3LYP) =  -244.857689126     A.U. after   20 cycles

 The electronic state is 2-A'.
 Alpha  occ. eigenvalues --  -14.41511 -10.33328 -10.32081 -10.30535 -10.30121
 Alpha  occ. eigenvalues --  -10.30117  -1.12276  -0.93323  -0.75177  -0.71406
 Alpha  occ. eigenvalues --   -0.59234  -0.51153  -0.47430  -0.44646  -0.41337
 Alpha  occ. eigenvalues --   -0.39017  -0.32879  -0.30627  -0.30108
 Alpha virt. eigenvalues --   -0.16279  -0.14491  -0.08506  -0.06181   0.01573
 Alpha virt. eigenvalues --    0.02493   0.03799   0.03843   0.06166   0.06480
 Alpha virt. eigenvalues --    0.07432   0.07456   0.07751   0.08739   0.11119

  Beta  occ. eigenvalues --  -14.41353 -10.32007 -10.31882 -10.30130 -10.30110
  Beta  occ. eigenvalues --  -10.30083  -1.11611  -0.92733  -0.75042  -0.69557
  Beta  occ. eigenvalues --   -0.57529  -0.50212  -0.44488  -0.44439  -0.40733
  Beta  occ. eigenvalues --   -0.38025  -0.32127  -0.30529
  Beta virt. eigenvalues --   -0.17077  -0.15857  -0.14627  -0.06860  -0.05519
  Beta virt. eigenvalues --    0.01708   0.02717   0.03864   0.04257   0.06263
  Beta virt. eigenvalues --    0.06753   0.07486   0.07503   0.07770   0.09078

 Mulliken charges and spin densities:
               1          2
     1  C    0.295138   0.053723
     2  C    0.770844   0.086678
     3  N   -0.634257  -0.025987
     4  C   -0.338861   0.041091
     5  C    0.245998   0.803405
     6  C   -0.338861   0.041091
 Sum of Mulliken charges =  -0.00000   1.00000

 Dipole moment (field-independent basis, Debye):
    X=             -0.6067    Y=              0.2613    Z=             -0.0000  Tot=              0.6606
 Quadrupole moment (field-independent basis, Debye-Ang):
   XX=            -32.8875   YY=            -36.2779   ZZ=            -39.5267
   XY=              0.7234   XZ=             -0.0000   YZ=              0.0000

  Exact polarizability:  49.417   3.180  53.736  -0.000   0.000  57.092
 Approx polarizability: 103.931  -0.765  96.377   0.000   0.000 118.887

                      1                      2                      3
                     A"                     A"                     A'
 Frequencies --    117.2000               299.8423               344.0477
 Red. masses --     12.2140                12.3918                12.1303
 Frc consts  --      0.0988                 0.6564                 0.8460
 IR Inten    --      0.7271                 0.5016                 8.3869

                      4                      5                      6
                     A"                     A'                     A'
 Frequencies --    559.8870               650.5508               710.4566
 Red. masses --     12.2874                12.1420                12.0408
 Frc consts  --      2.2694                 3.0276                 3.5808
 IR Inten    --      0.0334                 8.4107                 3.0781

                      7                      8                      9
                     A'                     A'                     A'
 Frequencies --    791.5705               909.5484               969.9945
 Red. masses --     12.5293                12.4892                12.1895
 Frc consts  --      4.6255                 6.0875                 6.7573
 IR Inten    --     14.4899                15.1344                10.3915

                     10                     11                     12
                     A'                     A"                     A'
 Frequencies --   1197.3106              1256.0186              1445.3682
 Red. masses --     12.0743                12.0017                12.7338
 Frc consts  --     10.1982                11.1554                15.6734
 IR Inten    --      0.6058                26.6912                17.5416

 - Thermochemistry -
 -------------------
 Temperature   298.150 Kelvin.  Pressure   1.00000 Atm.
 Atom     1 has atomic number  6 and mass  12.00000

 Molecular mass:    74.00307 amu.
 Principal axes and moments of inertia in atomic units:
                           1         2         3
     Eigenvalues --   207.15193 276.40921 306.32597
           X            0.16407   0.00000   0.98645
           Y            0.98645   0.00000  -0.16407
           Z           -0.00000   1.00000  -0.00000
 This molecule is an asymmetric top.
 Rotational symmetry number  1.
 Rotational temperatures (Kelvin)      0.41812     0.31335     0.28275
 Rotational constants (GHZ):           8.71216     6.52924     5.89157
 Zero-point vibrational energy      55338.0 (Joules/Mol)
                                   13.22611 (Kcal/Mol)
 Warning -- explicit consideration of   4 degrees of freedom as
           vibrations may cause significant error
 Vibrational temperatures:    168.62   431.41   495.01   805.55   936.00
          (Kelvin)           1022.19  1138.89  1308.64  1395.60  1722.66
                             1807.13  2079.56

 Zero-point correction=                           0.021077 (Hartree/Particle)
 Thermal correction to Energy=                    0.026037
 Thermal correction to Enthalpy=                  0.026981
 Thermal correction to Gibbs Free Energy=        -0.007258
 Sum of electronic and zero-point Energies=           -244.836612
 Sum of electronic and thermal Energies=              -244.831652
 Sum of electronic and thermal Enthalpies=            -244.830708
 Sum of electronic and thermal Free Energies=         -244.864948

                     E (Thermal)             CV                S
                      KCal/Mol        Cal/Mol-Kelvin    Cal/Mol-Kelvin
 Total                   16.339             16.044             72.064
 Electronic               0.000              0.000              1.377
 Translational            0.889              2.981             38.821
 Rotational               0.889              2.981             24.376
 Vibrational             14.561             10.082              7.489
 Vibration     1          0.608              1.935              3.146
 Vibration     2          0.692              1.674              1.418
 Vibration     3          0.723              1.587              1.193
 Vibration     4          0.916              1.118              0.524

 Optimization completed.
    -- Stationary point found.
 Normal termination of Gaussian 09 at Tue Aug 16 18:43:54 2016.
