 Gaussian 09, Revision E.01,
 Gaussian 09:  EM64L-G09RevE.01 30-Nov-2015

 ---------------------------------------------
 #p b3lyp/6-311++G(3df,2p) freq symmetry=Loose
 ---------------------------------------------

 ---------
 b3lyp opt
 ---------
 Symbolic Z-matrix:
 Charge =  0 Multiplicity = 4

                         Standard orientation:
 ---------------------------------------------------------------------
 Center     Atomic      Atomic             Coordinates (Angstroms)
 Number     Number       Type             X           Y           Z
 ---------------------------------------------------------------------
      1          7           0        0.000000    1.129569   -0.000000
      2          6           0       -1.437591   -0.615006    0.000000
      3          6           0       -0.213486   -1.189862    0.000000
      4          6           0        2.088998   -0.185570   -0.000000
      5          6           0        0.774815   -0.121209   -0.000000
      6          6           0       -1.212737    0.793816    0.000000
 ---------------------------------------------------------------------

 SCF Done:  E(UB3LYP) =  -244.894381795     A.U. after   21 cycles

 The electronic state is 4-A'.
 Alpha  occ. eigenvalues --  -14.39738 -10.29482 -10.28781 -10.28025 -10.26899
 Alpha  occ. eigenvalues --  -10.26785  -1.03859  -0.84604  -0.82673  -0.67137
 Alpha  occ. eigenvalues --   -0.59209  -0.56304  -0.47269  -0.44872  -0.35318
 Alpha  occ. eigenvalues --   -0.34570  -0.33579  -0.31849  -0.31509  -0.30070
 Alpha virt. eigenvalues --   -0.16290  -0.12744   0.01034   0.01219   0.02404
 Alpha virt. eigenvalues --    0.03533   0.04091   0.05103   0.06041   0.06308
 Alpha virt. eigenvalues --    0.07480   0.08850   0.09642   0.09784   0.10632

  Beta  occ. eigenvalues --  -14.39091 -10.29415 -10.27176 -10.26360 -10.26319
  Beta  occ. eigenvalues --  -10.25068  -1.01763  -0.82577  -0.79729  -0.63907
  Beta  occ. eigenvalues --   -0.56455  -0.52871  -0.46201  -0.38088  -0.34322
  Beta  occ. eigenvalues --   -0.32785  -0.30230
  Beta virt. eigenvalues --   -0.19567  -0.17913  -0.13296  -0.11413  -0.11410
  Beta virt. eigenvalues --    0.01755   0.02921   0.04005   0.04139   0.04990
  Beta virt. eigenvalues --    0.05615   0.06206   0.06965   0.07718   0.08945

 Mulliken charges and spin densities:
               1          2
     1  N   -0.741049   0.115117
     2  C   -0.036598   0.900293
     3  C    0.215780   0.745325
     4  C   -0.623010   0.156935
     5  C    0.816356   0.220595
     6  C    0.368521   0.861736
 Sum of Mulliken charges =  -0.00000   3.00000

 Dipole moment (field-independent basis, Debye):
    X=             -1.1646    Y=             -0.5272    Z=              0.0000  Tot=              1.2783
 Quadrupole moment (field-independent basis, Debye-Ang):
   XX=            -37.3693   YY=            -34.6095   ZZ=            -34.1935
   XY=             -0.1993   XZ=              0.0000   YZ=              0.0000

  Exact polarizability:  90.157  -2.071  60.386   0.000   0.000  40.105
 Approx polarizability: 202.363  -8.983 112.503  -0.000  -0.000  56.719

                      1                      2                      3
                     A'                     A"                     A"
 Frequencies --    132.1079               178.2831               471.9788
 Red. masses --     12.1280                12.2090                12.2292
 Frc consts  --      0.1247                 0.2286                 1.6051
 IR Inten    --     17.5677                 0.2065                 5.6965

                      4                      5                      6
                     A"                     A'                     A'
 Frequencies --    544.0513               612.3271               664.6251
 Red. masses --     12.3231                12.4705                13.0264
 Frc consts  --      2.1491                 2.7549                 3.3902
 IR Inten    --     12.2765                29.4054                32.4292

                      7                      8                      9
                     A'                     A'                     A'
 Frequencies --    813.5064               963.3309              1134.3031
 Red. masses --     12.2093                12.0717                12.0444
 Frc consts  --      4.7606                 6.6004                 9.1305
 IR Inten    --      2.6237                11.2755                 7.6354

                     10                     11                     12
                     A'                     A'                     A'
 Frequencies --   1483.6607              1563.3191              1701.3574
 Red. masses --     12.0078                12.7037                12.0608
 Frc consts  --     15.5734                18.2926                20.5692
 IR Inten    --     17.7167                43.7225               161.8431

 - Thermochemistry -
 -------------------
 Temperature   298.150 Kelvin.  Pressure   1.00000 Atm.
 Atom     1 has atomic number  7 and mass  14.00307

 Molecular mass:    74.00307 amu.
 Principal axes and moments of inertia in atomic units:
                           1         2         3
     Eigenvalues --   168.91867 367.14424 536.06291
           X            0.99780   0.06632   0.00000
           Y           -0.06632   0.99780   0.00000
           Z            0.00000  -0.00000   1.00000
 This molecule is an asymmetric top.
 Rotational symmetry number  1.
 Rotational temperatures (Kelvin)      0.51275     0.23591     0.16157
 Rotational constants (GHZ):          10.68408     4.91562     3.36666
 Zero-point vibrational energy      61385.5 (Joules/Mol)
                                   14.67148 (Kcal/Mol)
 Warning -- explicit consideration of   5 degrees of freedom as
           vibrations may cause significant error
 Vibrational temperatures:    190.07   256.51   679.07   782.77   881.00
          (Kelvin)            956.25  1170.45  1386.02  1632.01  2134.65
                             2249.26  2447.87

 Zero-point correction=                           0.023380 (Hartree/Particle)
 Thermal correction to Energy=                    0.028354
 Thermal correction to Enthalpy=                  0.029298
 Thermal correction to Gibbs Free Energy=        -0.006006
 Sum of electronic and zero-point Energies=           -244.871001
 Sum of electronic and thermal Energies=              -244.866028
 Sum of electronic and thermal Enthalpies=            -244.865084
 Sum of electronic and thermal Free Energies=         -244.900388

                     E (Thermal)             CV                S
                      KCal/Mol        Cal/Mol-Kelvin    Cal/Mol-Kelvin
 Total                   17.792             15.596             74.303
 Electronic               0.000              0.000              2.755
 Translational            0.889              2.981             38.821
 Rotational               0.889              2.981             25.012
 Vibrational             16.015              9.635              7.716
 Vibration     1          0.612              1.921              2.915
 Vibration     2          0.629              1.869              2.346
 Vibration     3          0.829              1.312              0.732
 Vibration     4          0.899              1.153              0.557
 Vibration     5          0.972              1.006              0.429

 Normal termination of Gaussian 09 at Tue Aug 16 18:49:00 2016.
