 Gaussian 09, Revision E.01,
 Gaussian 09:  EM64L-G09RevE.01 30-Nov-2015

 ---------------------------------------------
 #p b3lyp/6-311++G(3df,2p) freq symmetry=Loose
 ---------------------------------------------

 ---------
 b3lyp opt
 ---------
 Symbolic Z-matrix:
 Charge =  1 Multiplicity = 3

                         Standard orientation:
 ---------------------------------------------------------------------
 Center     Atomic      Atomic             Coordinates (Angstroms)
 Number     Number       Type             X           Y           Z
 ---------------------------------------------------------------------
      1          6           0       -0.000000    0.731977   -0.720020
      2          6           0        0.000000   -0.918306    0.696339
      3          6           0       -0.000000   -0.731977   -0.720020
      4          6           0        0.000000    0.918306    0.696339
      5          6           0       -0.000000   -0.000000   -1.887332
      6          7           0        0.000000    0.000000    1.658308
 ---------------------------------------------------------------------

 SCF Done:  E(UB3LYP) =  -244.569921409     A.U. after   18 cycles

 The electronic state is 3-A2.
 Alpha  occ. eigenvalues --  -14.68147 -10.60311 -10.60308 -10.56862 -10.56826
 Alpha  occ. eigenvalues --  -10.54050  -1.35438  -1.24101  -1.01387  -1.00951
 Alpha  occ. eigenvalues --   -0.86552  -0.77417  -0.74286  -0.73921  -0.67231
 Alpha  occ. eigenvalues --   -0.64830  -0.56259  -0.55990  -0.51124
 Alpha virt. eigenvalues --   -0.40763  -0.36181  -0.29551  -0.25938  -0.21228
 Alpha virt. eigenvalues --   -0.17682  -0.15405  -0.11893  -0.10609  -0.09537
 Alpha virt. eigenvalues --   -0.08107  -0.08022  -0.06362  -0.06160  -0.05931

  Beta  occ. eigenvalues --  -14.68379 -10.59272 -10.59267 -10.55909 -10.55876
  Beta  occ. eigenvalues --  -10.53619  -1.34532  -1.23538  -1.00511  -0.97438
  Beta  occ. eigenvalues --   -0.84888  -0.73966  -0.72362  -0.71219  -0.66047
  Beta  occ. eigenvalues --   -0.63811  -0.52340
  Beta virt. eigenvalues --   -0.44618  -0.40545  -0.37823  -0.34686  -0.24156
  Beta virt. eigenvalues --   -0.21992  -0.18238  -0.17174  -0.14369  -0.11419
  Beta virt. eigenvalues --   -0.10047  -0.09354  -0.07745  -0.07271  -0.05919

 Mulliken charges and spin densities:
               1          2
     1  C    0.409382   0.459181
     2  C    0.285753   0.587297
     3  C    0.409382   0.459181
     4  C    0.285753   0.587297
     5  C    0.103520   0.097353
     6  N   -0.493792  -0.190308
 Sum of Mulliken charges =   1.00000   2.00000

 Dipole moment (field-independent basis, Debye):
    X=             -0.0000    Y=              0.0000    Z=             -0.1164  Tot=              0.1164
 Quadrupole moment (field-independent basis, Debye-Ang):
   XX=            -29.0934   YY=            -25.2813   ZZ=            -29.4868
   XY=              0.0000   XZ=              0.0000   YZ=              0.0000

  Exact polarizability:  28.946   0.000  49.771   0.000   0.000  78.308
 Approx polarizability:  45.643   0.000 173.205   0.000  -0.000 170.547

                      1                      2                      3
                     B1                     B2                     B1
 Frequencies --    221.2813               297.2471               377.9350
 Red. masses --     12.5549                12.0285                12.2385
 Frc consts  --      0.3622                 0.6262                 1.0299
 IR Inten    --      9.7895                 0.4770                 0.0539

                      4                      5                      6
                     A2                     B2                     A1
 Frequencies --    469.3246               532.0079               583.5944
 Red. masses --     12.0000                12.9296                12.3210
 Frc consts  --      1.5573                 2.1561                 2.4724
 IR Inten    --      0.0000                47.4238                66.7841

                      7                      8                      9
                     A1                     B2                     A1
 Frequencies --    750.1642               917.2215              1022.7384
 Red. masses --     12.1163                12.0061                12.2672
 Frc consts  --      4.0173                 5.9512                 7.5601
 IR Inten    --     13.2432                 0.0351                30.5940

                     10                     11                     12
                     A1                     B2                     A1
 Frequencies --   1413.9140              1467.2487              1575.8433
 Red. masses --     12.4532                12.0170                12.2719
 Frc consts  --     14.6682                15.2425                17.9551
 IR Inten    --     94.6569                91.4366                15.9298

 - Thermochemistry -
 -------------------
 Temperature   298.150 Kelvin.  Pressure   1.00000 Atm.
 Atom     1 has atomic number  6 and mass  12.00000

 Molecular mass:    74.00307 amu.
 Principal axes and moments of inertia in atomic units:
                           1         2         3
     Eigenvalues --   118.19447 376.14784 494.34231
           X            0.00000   0.00000   1.00000
           Y            0.00000   1.00000  -0.00000
           Z            1.00000   0.00000   0.00000
 This molecule is an asymmetric top.
 Rotational symmetry number  2.
 Rotational temperatures (Kelvin)      0.73281     0.23027     0.17521
 Rotational constants (GHZ):          15.26925     4.79796     3.65079
 Zero-point vibrational energy      57591.3 (Joules/Mol)
                                   13.76466 (Kcal/Mol)
 Warning -- explicit consideration of   6 degrees of freedom as
           vibrations may cause significant error
 Vibrational temperatures:    318.37   427.67   543.76   675.25   765.44
          (Kelvin)            839.66  1079.32  1319.68  1471.49  2034.30
                             2111.04  2267.28

 Zero-point correction=                           0.021935 (Hartree/Particle)
 Thermal correction to Energy=                    0.026864
 Thermal correction to Enthalpy=                  0.027808
 Thermal correction to Gibbs Free Energy=        -0.005908
 Sum of electronic and zero-point Energies=           -244.547986
 Sum of electronic and thermal Energies=              -244.543057
 Sum of electronic and thermal Enthalpies=            -244.542113
 Sum of electronic and thermal Free Energies=         -244.575830

                     E (Thermal)             CV                S
                      KCal/Mol        Cal/Mol-Kelvin    Cal/Mol-Kelvin
 Total                   16.858             16.339             70.963
 Electronic               0.000              0.000              2.183
 Translational            0.889              2.981             38.821
 Rotational               0.889              2.981             23.223
 Vibrational             15.080             10.377              6.736
 Vibration     1          0.648              1.809              1.949
 Vibration     2          0.691              1.679              1.432
 Vibration     3          0.748              1.517              1.047
 Vibration     4          0.826              1.318              0.739
 Vibration     5          0.887              1.179              0.583
 Vibration     6          0.940              1.067              0.479

 Optimization completed.
    -- Stationary point found.
 Normal termination of Gaussian 09 at Tue Aug 16 18:03:02 2016.
