 Gaussian 09, Revision E.01,
 Gaussian 09:  EM64L-G09RevE.01 30-Nov-2015

 ---------------------------------------------
 #p b3lyp/6-311++G(3df,2p) freq symmetry=Loose
 ---------------------------------------------

 ---------
 b3lyp opt
 ---------
 Symbolic Z-matrix:
 Charge =  0 Multiplicity = 4

                         Standard orientation:
 ---------------------------------------------------------------------
 Center     Atomic      Atomic             Coordinates (Angstroms)
 Number     Number       Type             X           Y           Z
 ---------------------------------------------------------------------
      1          6           0       -1.098302    0.576504    0.000516
      2          7           0        2.035741   -0.430371    0.000454
      3          6           0       -1.833860   -0.609709    0.000010
      4          6           0        0.871185    0.028524   -0.000655
      5          6           0       -0.445052   -0.774177   -0.000228
      6          6           0        0.130997    1.280957   -0.000173
 ---------------------------------------------------------------------

 SCF Done:  E(UB3LYP) =  -244.905946452     A.U. after   19 cycles

 The electronic state is 4-A.
 Alpha  occ. eigenvalues --  -14.41588 -10.31875 -10.31014 -10.30702 -10.28186
 Alpha  occ. eigenvalues --  -10.28157  -1.04256  -0.97384  -0.83672  -0.67018
 Alpha  occ. eigenvalues --   -0.57082  -0.50538  -0.50260  -0.47226  -0.42281
 Alpha  occ. eigenvalues --   -0.39958  -0.35958  -0.33724  -0.30234  -0.25691
 Alpha virt. eigenvalues --   -0.14790  -0.03452  -0.03155   0.00185   0.02064
 Alpha virt. eigenvalues --    0.03033   0.04328   0.04642   0.05659   0.06192
 Alpha virt. eigenvalues --    0.06819   0.08388   0.08846   0.08894   0.11727

  Beta  occ. eigenvalues --  -14.39326 -10.31191 -10.30860 -10.30291 -10.27786
  Beta  occ. eigenvalues --  -10.26108  -1.02530  -0.93438  -0.80522  -0.63778
  Beta  occ. eigenvalues --   -0.53736  -0.48158  -0.47677  -0.43418  -0.39518
  Beta  occ. eigenvalues --   -0.37465  -0.28344
  Beta virt. eigenvalues --   -0.18828  -0.18477  -0.13778  -0.12102  -0.01753
  Beta virt. eigenvalues --   -0.00508   0.00684   0.03233   0.03389   0.05477
  Beta virt. eigenvalues --    0.05966   0.06393   0.06508   0.07382   0.09041

 Mulliken charges and spin densities:
               1          2
     1  C    0.318481   0.159425
     2  N   -0.703682   1.131578
     3  C   -0.270683   0.192097
     4  C    0.612258  -0.233874
     5  C    0.082311   0.540529
     6  C   -0.038685   1.210245
 Sum of Mulliken charges =  -0.00000   3.00000

 Dipole moment (field-independent basis, Debye):
    X=             -0.0903    Y=              0.4138    Z=             -0.0003  Tot=              0.4235
 Quadrupole moment (field-independent basis, Debye-Ang):
   XX=            -41.8233   YY=            -36.7507   ZZ=            -32.4424
   XY=             -1.6855   XZ=             -0.0026   YZ=              0.0014

  Exact polarizability:  86.873  13.245  72.425  -0.008  -0.004  37.462
 Approx polarizability: 168.403  28.009 147.673  -0.010  -0.004  56.689

                      1                      2                      3
                      A                      A                      A
 Frequencies --    199.9551               272.8303               285.3868
 Red. masses --     12.4354                12.0057                12.2143
 Frc consts  --      0.2929                 0.5265                 0.5861
 IR Inten    --      2.8514                24.8848                12.9859

                      4                      5                      6
                      A                      A                      A
 Frequencies --    327.9974               552.1166               675.9272
 Red. masses --     12.7177                12.1632                12.0491
 Frc consts  --      0.8061                 2.1845                 3.2434
 IR Inten    --      9.2241                38.5613                 2.8751

                      7                      8                      9
                      A                      A                      A
 Frequencies --    766.6151               860.2694               949.8012
 Red. masses --     12.1098                12.1217                12.2238
 Frc consts  --      4.1932                 5.2855                 6.4971
 IR Inten    --     48.9146                 7.1477                77.6042

                     10                     11                     12
                      A                      A                      A
 Frequencies --   1168.9533              1373.4109              1670.3249
 Red. masses --     12.0168                12.0509                12.6070
 Frc consts  --      9.6746                13.3928                20.7236
 IR Inten    --     21.2782                70.9236                 9.5342

 - Thermochemistry -
 -------------------
 Temperature   298.150 Kelvin.  Pressure   1.00000 Atm.
 Atom     1 has atomic number  6 and mass  12.00000

 Molecular mass:    74.00307 amu.
 Principal axes and moments of inertia in atomic units:
                           1         2         3
     Eigenvalues --   135.46855 444.79120 580.25966
           X            1.00000   0.00003  -0.00000
           Y           -0.00003   1.00000   0.00000
           Z            0.00000  -0.00000   1.00000
 This molecule is an asymmetric top.
 Rotational symmetry number  1.
 Rotational temperatures (Kelvin)      0.63936     0.19473     0.14927
 Rotational constants (GHZ):          13.32222     4.05750     3.11023
 Zero-point vibrational energy      54451.5 (Joules/Mol)
                                   13.01423 (Kcal/Mol)
 Warning -- explicit consideration of   5 degrees of freedom as
           vibrations may cause significant error
 Vibrational temperatures:    287.69   392.54   410.61   471.91   794.37
          (Kelvin)            972.51  1102.99  1237.73  1366.55  1681.86
                             1976.03  2403.22

 Zero-point correction=                           0.020739 (Hartree/Particle)
 Thermal correction to Energy=                    0.025950
 Thermal correction to Enthalpy=                  0.026894
 Thermal correction to Gibbs Free Energy=        -0.008543
 Sum of electronic and zero-point Energies=           -244.885207
 Sum of electronic and thermal Energies=              -244.879997
 Sum of electronic and thermal Enthalpies=            -244.879052
 Sum of electronic and thermal Free Energies=         -244.914489

                     E (Thermal)             CV                S
                      KCal/Mol        Cal/Mol-Kelvin    Cal/Mol-Kelvin
 Total                   16.284             16.938             74.583
 Electronic               0.000              0.000              2.755
 Translational            0.889              2.981             38.821
 Rotational               0.889              2.981             25.062
 Vibrational             14.506             10.977              7.946
 Vibration     1          0.638              1.840              2.134
 Vibration     2          0.676              1.723              1.578
 Vibration     3          0.683              1.701              1.501
 Vibration     4          0.711              1.620              1.270
 Vibration     5          0.907              1.135              0.540

 Optimization completed.
    -- Stationary point found.
 Normal termination of Gaussian 09 at Tue Aug 16 18:55:28 2016.
