 Gaussian 09, Revision E.01,
 Gaussian 09:  EM64L-G09RevE.01 30-Nov-2015

 ---------------------------------------------
 #p b3lyp/6-311++G(3df,2p) freq symmetry=Loose
 ---------------------------------------------

 ---------
 b3lyp opt
 ---------
 Symbolic Z-matrix:
 Charge =  1 Multiplicity = 3

                         Standard orientation:
 ---------------------------------------------------------------------
 Center     Atomic      Atomic             Coordinates (Angstroms)
 Number     Number       Type             X           Y           Z
 ---------------------------------------------------------------------
      1          6           0       -0.886826    0.783324   -0.337349
      2          6           0       -0.195633   -0.501153   -0.749836
      3          6           0        0.447365    1.066731    0.244825
      4          6           0       -1.049367   -0.648561    0.381331
      5          6           0        0.335585   -0.302894    0.838739
      6          7           0        1.156179   -0.340669   -0.323752
 ---------------------------------------------------------------------

 SCF Done:  E(UB3LYP) =  -244.478391392     A.U. after   19 cycles

 The electronic state is 3-A.
 Alpha  occ. eigenvalues --  -14.70708 -10.60161 -10.59743 -10.59609 -10.57784
 Alpha  occ. eigenvalues --  -10.56416  -1.43888  -1.16796  -1.04312  -0.97144
 Alpha  occ. eigenvalues --   -0.81668  -0.76804  -0.74001  -0.72254  -0.67202
 Alpha  occ. eigenvalues --   -0.65630  -0.62134  -0.57811  -0.54225
 Alpha virt. eigenvalues --   -0.39984  -0.38223  -0.29369  -0.21748  -0.18122
 Alpha virt. eigenvalues --   -0.14304  -0.13040  -0.11655  -0.08991  -0.08634
 Alpha virt. eigenvalues --   -0.08524  -0.07724  -0.07192  -0.06798  -0.06611

  Beta  occ. eigenvalues --  -14.70534 -10.60110 -10.59690 -10.58069 -10.56288
  Beta  occ. eigenvalues --  -10.55391  -1.43018  -1.15728  -1.02150  -0.96252
  Beta  occ. eigenvalues --   -0.80309  -0.74565  -0.71211  -0.68128  -0.66080
  Beta  occ. eigenvalues --   -0.64848  -0.57868
  Beta virt. eigenvalues --   -0.43526  -0.40605  -0.37676  -0.36909  -0.27472
  Beta virt. eigenvalues --   -0.20140  -0.17143  -0.13806  -0.12703  -0.10150
  Beta virt. eigenvalues --   -0.08552  -0.08028  -0.07911  -0.06957  -0.06705

 Mulliken charges and spin densities:
               1          2
     1  C    0.350969   0.693550
     2  C    0.418971   0.046498
     3  C   -0.019686   0.758873
     4  C   -0.043237   0.465208
     5  C    0.755648  -0.017595
     6  N   -0.462666   0.053466
 Sum of Mulliken charges =   1.00000   2.00000

 Dipole moment (field-independent basis, Debye):
    X=             -0.3103    Y=              0.2013    Z=              0.1563  Tot=              0.4015
 Quadrupole moment (field-independent basis, Debye-Ang):
   XX=            -29.3863   YY=            -26.5952   ZZ=            -26.8560
   XY=              0.3203   XZ=              1.6330   YZ=              0.3756

  Exact polarizability:  46.501   3.751  46.383   1.152  -1.855  39.204
 Approx polarizability: 102.063  10.545 103.485   7.832  -3.319  96.420

                      1                      2                      3
                      A                      A                      A
 Frequencies --    338.9564               408.7272               566.6994
 Red. masses --     12.0931                12.5315                12.5063
 Frc consts  --      0.8186                 1.2334                 2.3664
 IR Inten    --      9.5481                14.7000                 2.1684

                      4                      5                      6
                      A                      A                      A
 Frequencies --    632.0356               698.6291               781.0126
 Red. masses --     12.4738                12.1352                12.0261
 Frc consts  --      2.9358                 3.4897                 4.3221
 IR Inten    --      3.9295                12.0203                 4.5639

                      7                      8                      9
                      A                      A                      A
 Frequencies --    872.6541               927.5621               954.7047
 Red. masses --     12.3350                12.0550                12.3336
 Frc consts  --      5.5345                 6.1109                 6.6234
 IR Inten    --      2.7492                 7.1654                 7.2588

                     10                     11                     12
                      A                      A                      A
 Frequencies --   1067.0269              1207.8795              1256.4791
 Red. masses --     12.1026                12.3034                12.2997
 Frc consts  --      8.1186                10.5760                11.4408
 IR Inten    --      8.0325                 1.4512                 2.8900

 - Thermochemistry -
 -------------------
 Temperature   298.150 Kelvin.  Pressure   1.00000 Atm.
 Atom     1 has atomic number  6 and mass  12.00000

 Molecular mass:    74.00307 amu.
 Principal axes and moments of inertia in atomic units:
                           1         2         3
     Eigenvalues --   186.73844 235.93653 276.35791
           X            1.00000   0.00009   0.00005
           Y           -0.00009   1.00000  -0.00003
           Z           -0.00005   0.00003   1.00000
 This molecule is an asymmetric top.
 Rotational symmetry number  1.
 Rotational temperatures (Kelvin)      0.46382     0.36711     0.31341
 Rotational constants (GHZ):           9.66454     7.64927     6.53045
 Zero-point vibrational energy      58092.9 (Joules/Mol)
                                   13.88453 (Kcal/Mol)
 Warning -- explicit consideration of   3 degrees of freedom as
           vibrations may cause significant error
 Vibrational temperatures:    487.68   588.07   815.35   909.36  1005.17
          (Kelvin)           1123.70  1255.55  1334.55  1373.61  1535.21
                             1737.87  1807.79

 Zero-point correction=                           0.022126 (Hartree/Particle)
 Thermal correction to Energy=                    0.026364
 Thermal correction to Enthalpy=                  0.027308
 Thermal correction to Gibbs Free Energy=        -0.005544
 Sum of electronic and zero-point Energies=           -244.456265
 Sum of electronic and thermal Energies=              -244.452028
 Sum of electronic and thermal Enthalpies=            -244.451084
 Sum of electronic and thermal Free Energies=         -244.483935

                     E (Thermal)             CV                S
                      KCal/Mol        Cal/Mol-Kelvin    Cal/Mol-Kelvin
 Total                   16.543             14.704             69.142
 Electronic               0.000              0.000              2.183
 Translational            0.889              2.981             38.821
 Rotational               0.889              2.981             24.014
 Vibrational             14.766              8.743              4.125
 Vibration     1          0.719              1.598              1.217
 Vibration     2          0.773              1.451              0.931
 Vibration     3          0.923              1.103              0.511

 Optimization completed.
    -- Stationary point found.
 Normal termination of Gaussian 09 at Tue Aug 16 18:25:24 2016.
