 Gaussian 09, Revision E.01,
 Gaussian 09:  EM64L-G09RevE.01 30-Nov-2015

 ---------------------------------------------
 #p b3lyp/6-311++G(3df,2p) freq symmetry=Loose
 ---------------------------------------------

 ---------
 b3lyp opt
 ---------
 Symbolic Z-matrix:
 Charge =  0 Multiplicity = 2

                         Standard orientation:
 ---------------------------------------------------------------------
 Center     Atomic      Atomic             Coordinates (Angstroms)
 Number     Number       Type             X           Y           Z
 ---------------------------------------------------------------------
      1          6           0        0.004493    1.158259    0.680123
      2          6           0        0.004493   -0.337044    0.778559
      3          6           0       -1.226549   -0.545337   -0.000000
      4          6           0        0.004493    1.158259   -0.680123
      5          6           0        0.004493   -0.337044   -0.778559
      6          7           0        1.035924   -0.940366   -0.000000
 ---------------------------------------------------------------------

 SCF Done:  E(UB3LYP) =  -244.838028293     A.U. after   23 cycles

 The electronic state is 2-A".
 Alpha  occ. eigenvalues --  -14.41072 -10.32758 -10.32739 -10.29213 -10.28918
 Alpha  occ. eigenvalues --  -10.28851  -1.12169  -0.88007  -0.77431  -0.70750
 Alpha  occ. eigenvalues --   -0.55074  -0.51174  -0.48867  -0.44517  -0.42491
 Alpha  occ. eigenvalues --   -0.35825  -0.32316  -0.30969  -0.29878
 Alpha virt. eigenvalues --   -0.16483  -0.11562  -0.09058  -0.05631   0.01590
 Alpha virt. eigenvalues --    0.02632   0.03767   0.04178   0.06150   0.06513
 Alpha virt. eigenvalues --    0.07766   0.07768   0.08218   0.10806   0.11150

  Beta  occ. eigenvalues --  -14.42514 -10.32223 -10.32205 -10.29377 -10.27593
  Beta  occ. eigenvalues --  -10.27531  -1.12482  -0.88431  -0.77132  -0.68873
  Beta  occ. eigenvalues --   -0.53767  -0.50057  -0.48913  -0.42983  -0.39937
  Beta  occ. eigenvalues --   -0.37786  -0.32586  -0.28610
  Beta virt. eigenvalues --   -0.17640  -0.15840  -0.11333  -0.07783  -0.03315
  Beta virt. eigenvalues --    0.01722   0.03085   0.03859   0.04490   0.06552
  Beta virt. eigenvalues --    0.06613   0.07768   0.07834   0.08255   0.10988

 Mulliken charges and spin densities:
               1          2
     1  C   -0.067916   0.754411
     2  C    0.593840   0.165337
     3  C   -0.394284  -0.101029
     4  C   -0.067916   0.754411
     5  C    0.593840   0.165337
     6  N   -0.657562  -0.738467
 Sum of Mulliken charges =  -0.00000   1.00000

 Dipole moment (field-independent basis, Debye):
    X=              0.4891    Y=             -0.0354    Z=             -0.0000  Tot=              0.4904
 Quadrupole moment (field-independent basis, Debye-Ang):
   XX=            -38.8007   YY=            -35.7704   ZZ=            -32.2072
   XY=              1.1187   XZ=             -0.0000   YZ=             -0.0000

  Exact polarizability:  53.763   0.551  67.276   0.000  -0.000  53.143
 Approx polarizability: 101.731   4.466 131.102  -0.000  -0.000 117.383

                      1                      2                      3
                     A"                     A'                     A"
 Frequencies --    251.0576               291.4885               425.7459
 Red. masses --     12.3896                12.1061                12.1218
 Frc consts  --      0.4601                 0.6060                 1.2945
 IR Inten    --      3.3522                 3.1159                 0.2577

                      4                      5                      6
                     A'                     A"                     A"
 Frequencies --    440.7083               607.1454               749.7935
 Red. masses --     12.9259                12.0444                12.1793
 Frc consts  --      1.4792                 2.6159                 4.0342
 IR Inten    --      9.7377                 6.2677                 2.8741

                      7                      8                      9
                     A"                     A'                     A'
 Frequencies --    872.6696               944.1447              1006.5014
 Red. masses --     12.0090                12.7553                12.0215
 Frc consts  --      5.3884                 6.6991                 7.1752
 IR Inten    --      0.2209                 4.6703                10.0371

                     10                     11                     12
                     A'                     A'                     A'
 Frequencies --   1172.2256              1211.5780              1451.2334
 Red. masses --     12.0592                12.4856                12.0007
 Frc consts  --      9.7631                10.7984                14.8913
 IR Inten    --     11.7875                 9.5840                10.8673

 - Thermochemistry -
 -------------------
 Temperature   298.150 Kelvin.  Pressure   1.00000 Atm.
 Atom     1 has atomic number  6 and mass  12.00000

 Molecular mass:    74.00307 amu.
 Principal axes and moments of inertia in atomic units:
                           1         2         3
     Eigenvalues --   204.10126 278.90395 299.81456
           X           -0.27433   0.96164   0.00000
           Y            0.96164   0.27433   0.00000
           Z           -0.00000  -0.00000   1.00000
 This molecule is an asymmetric top.
 Rotational symmetry number  1.
 Rotational temperatures (Kelvin)      0.42437     0.31055     0.28889
 Rotational constants (GHZ):           8.84238     6.47083     6.01952
 Zero-point vibrational energy      56369.8 (Joules/Mol)
                                   13.47270 (Kcal/Mol)
 Warning -- explicit consideration of   5 degrees of freedom as
           vibrations may cause significant error
 Vibrational temperatures:    361.22   419.39   612.55   634.08   873.55
          (Kelvin)           1078.78  1255.58  1358.41  1448.13  1686.57
                             1743.19  2088.00

 Zero-point correction=                           0.021470 (Hartree/Particle)
 Thermal correction to Energy=                    0.026208
 Thermal correction to Enthalpy=                  0.027152
 Thermal correction to Gibbs Free Energy=        -0.006386
 Sum of electronic and zero-point Energies=           -244.816558
 Sum of electronic and thermal Energies=              -244.811820
 Sum of electronic and thermal Enthalpies=            -244.810876
 Sum of electronic and thermal Free Energies=         -244.844414

                     E (Thermal)             CV                S
                      KCal/Mol        Cal/Mol-Kelvin    Cal/Mol-Kelvin
 Total                   16.446             15.822             70.587
 Electronic               0.000              0.000              1.377
 Translational            0.889              2.981             38.821
 Rotational               0.889              2.981             24.349
 Vibrational             14.668              9.861              6.039
 Vibration     1          0.663              1.761              1.723
 Vibration     2          0.687              1.690              1.465
 Vibration     3          0.788              1.414              0.873
 Vibration     4          0.801              1.381              0.824
 Vibration     5          0.966              1.017              0.438

 Optimization completed.
    -- Stationary point found.
 Normal termination of Gaussian 09 at Tue Aug 16 18:26:33 2016.
