 Gaussian 09, Revision E.01,
 Gaussian 09:  EM64L-G09RevE.01 30-Nov-2015

 ---------------------------------------------
 #p b3lyp/6-311++G(3df,2p) freq symmetry=Loose
 ---------------------------------------------

 ---------
 b3lyp opt
 ---------
 Symbolic Z-matrix:
 Charge =  1 Multiplicity = 3

                         Standard orientation:
 ---------------------------------------------------------------------
 Center     Atomic      Atomic             Coordinates (Angstroms)
 Number     Number       Type             X           Y           Z
 ---------------------------------------------------------------------
      1          7           0        0.000000    0.855525   -0.000000
      2          6           0       -0.173502   -1.167201    0.000000
      3          6           0       -1.018632   -0.075761    0.000000
      4          6           0        1.283491    0.077546   -0.000000
      5          6           0       -1.192429    1.467775   -0.000000
      6          6           0        1.101072   -1.300471    0.000000
 ---------------------------------------------------------------------

 SCF Done:  E(UB3LYP) =  -244.514042106     A.U. after   19 cycles

 The electronic state is 3-A".
 Alpha  occ. eigenvalues --  -14.71574 -10.60305 -10.57392 -10.57119 -10.55935
 Alpha  occ. eigenvalues --  -10.50598  -1.38391  -1.18707  -1.03206  -0.98181
 Alpha  occ. eigenvalues --   -0.84420  -0.78173  -0.77980  -0.71152  -0.63530
 Alpha  occ. eigenvalues --   -0.62997  -0.55973  -0.55473  -0.53829
 Alpha virt. eigenvalues --   -0.38217  -0.34298  -0.31666  -0.25210  -0.21657
 Alpha virt. eigenvalues --   -0.19747  -0.15726  -0.11558  -0.11481  -0.09445
 Alpha virt. eigenvalues --   -0.08909  -0.08124  -0.06133  -0.06045  -0.05759

  Beta  occ. eigenvalues --  -14.71202 -10.57900 -10.57183 -10.56667 -10.55813
  Beta  occ. eigenvalues --  -10.49808  -1.37590  -1.17710  -1.00041  -0.97122
  Beta  occ. eigenvalues --   -0.82586  -0.76295  -0.75337  -0.69555  -0.61081
  Beta  occ. eigenvalues --   -0.60755  -0.51989
  Beta virt. eigenvalues --   -0.44195  -0.41076  -0.36326  -0.33110  -0.26311
  Beta virt. eigenvalues --   -0.24294  -0.19177  -0.16634  -0.15270  -0.11150
  Beta virt. eigenvalues --   -0.11147  -0.09061  -0.08589  -0.07702  -0.05831

 Mulliken charges and spin densities:
               1          2
     1  N   -0.378588   0.037220
     2  C    0.401600  -0.049646
     3  C    0.286716   0.447685
     4  C    0.372616   1.298884
     5  C    0.136265  -0.057855
     6  C    0.181391   0.323713
 Sum of Mulliken charges =   1.00000   2.00000

 Dipole moment (field-independent basis, Debye):
    X=              0.0748    Y=             -0.7313    Z=              0.0000  Tot=              0.7352
 Quadrupole moment (field-independent basis, Debye-Ang):
   XX=            -27.4892   YY=            -26.3778   ZZ=            -29.2832
   XY=              1.6077   XZ=             -0.0000   YZ=              0.0000

  Exact polarizability:  59.592 -13.507  59.835  -0.000   0.000  30.056
 Approx polarizability: 135.046 -18.079 121.526  -0.000  -0.000  46.651

                      1                      2                      3
                     A"                     A"                     A'
 Frequencies --     94.9002               233.3061               248.2862
 Red. masses --     12.4623                12.1134                12.1088
 Frc consts  --      0.0661                 0.3885                 0.4398
 IR Inten    --      8.3145                 0.2764                50.1732

                      4                      5                      6
                     A'                     A'                     A"
 Frequencies --    297.5584               503.8972               574.1015
 Red. masses --     12.3048                12.2664                12.5390
 Frc consts  --      0.6419                 1.8351                 2.4350
 IR Inten    --     13.9771                12.4026                 0.9547

                      7                      8                      9
                     A'                     A'                     A'
 Frequencies --    692.0622               977.9369              1142.0573
 Red. masses --     12.1585                13.0722                12.2025
 Frc consts  --      3.4310                 7.3658                 9.3772
 IR Inten    --     19.5186                59.3115                94.4311

                     10                     11                     12
                     A'                     A'                     A'
 Frequencies --   1186.7704              1412.3381              1677.6922
 Red. masses --     12.1222                12.4905                12.0578
 Frc consts  --     10.0593                14.6794                19.9960
 IR Inten    --     14.4934                86.0338               105.3772

 - Thermochemistry -
 -------------------
 Temperature   298.150 Kelvin.  Pressure   1.00000 Atm.
 Atom     1 has atomic number  7 and mass  14.00307

 Molecular mass:    74.00307 amu.
 Principal axes and moments of inertia in atomic units:
                           1         2         3
     Eigenvalues --   123.64417 365.86745 489.51162
           X           -0.66024   0.75106   0.00000
           Y            0.75106   0.66024   0.00000
           Z           -0.00000  -0.00000   1.00000
 This molecule is an asymmetric top.
 Rotational symmetry number  1.
 Rotational temperatures (Kelvin)      0.70051     0.23674     0.17694
 Rotational constants (GHZ):          14.59625     4.93277     3.68682
 Zero-point vibrational energy      54076.6 (Joules/Mol)
                                   12.92462 (Kcal/Mol)
 Warning -- explicit consideration of   6 degrees of freedom as
           vibrations may cause significant error
 Vibrational temperatures:    136.54   335.67   357.23   428.12   724.99
          (Kelvin)            826.00   995.72  1407.03  1643.16  1707.50
                             2032.04  2413.82

 Zero-point correction=                           0.020597 (Hartree/Particle)
 Thermal correction to Energy=                    0.026196
 Thermal correction to Enthalpy=                  0.027141
 Thermal correction to Gibbs Free Energy=        -0.008911
 Sum of electronic and zero-point Energies=           -244.493445
 Sum of electronic and thermal Energies=              -244.487846
 Sum of electronic and thermal Enthalpies=            -244.486902
 Sum of electronic and thermal Free Energies=         -244.522953

                     E (Thermal)             CV                S
                      KCal/Mol        Cal/Mol-Kelvin    Cal/Mol-Kelvin
 Total                   16.438             17.324             75.876
 Electronic               0.000              0.000              2.183
 Translational            0.889              2.981             38.821
 Rotational               0.889              2.981             24.608
 Vibrational             14.661             11.363             10.265
 Vibration     1          0.603              1.953              3.556
 Vibration     2          0.654              1.790              1.853
 Vibration     3          0.662              1.766              1.743
 Vibration     4          0.691              1.678              1.431
 Vibration     5          0.859              1.241              0.648
 Vibration     6          0.930              1.087              0.496

 Normal termination of Gaussian 09 at Tue Aug 16 18:41:54 2016.
