 Gaussian 09, Revision E.01,
 Gaussian 09:  EM64L-G09RevE.01 30-Nov-2015

 ---------------------------------------------
 #p b3lyp/6-311++G(3df,2p) freq symmetry=Loose
 ---------------------------------------------

 ---------
 b3lyp opt
 ---------
 Symbolic Z-matrix:
 Charge =  0 Multiplicity = 4

                         Standard orientation:
 ---------------------------------------------------------------------
 Center     Atomic      Atomic             Coordinates (Angstroms)
 Number     Number       Type             X           Y           Z
 ---------------------------------------------------------------------
      1          6           0        1.270488   -0.687890   -0.000000
      2          6           0        0.000000    1.054307   -0.000000
      3          7           0       -1.224095    0.741007    0.000000
      4          6           0        1.243076    0.699312   -0.000000
      5          6           0       -1.135969   -0.619383    0.000000
      6          6           0        0.050515   -1.310854    0.000000
 ---------------------------------------------------------------------

 SCF Done:  E(UB3LYP) =  -244.964278690     A.U. after   19 cycles

 The electronic state is 4-A'.
 Alpha  occ. eigenvalues --  -14.40684 -10.30850 -10.30144 -10.26128 -10.25545
 Alpha  occ. eigenvalues --  -10.24961  -1.05542  -0.88669  -0.80759  -0.67294
 Alpha  occ. eigenvalues --   -0.64386  -0.53634  -0.49564  -0.48497  -0.37753
 Alpha  occ. eigenvalues --   -0.34826  -0.33454  -0.32570  -0.28977  -0.25571
 Alpha virt. eigenvalues --   -0.11484  -0.08672  -0.04433   0.00644   0.03785
 Alpha virt. eigenvalues --    0.04234   0.04594   0.06232   0.06614   0.07018
 Alpha virt. eigenvalues --    0.08250   0.08596   0.10414   0.11138   0.11806

  Beta  occ. eigenvalues --  -14.40472 -10.30364 -10.28462 -10.24788 -10.23892
  Beta  occ. eigenvalues --  -10.23866  -1.04470  -0.86571  -0.77383  -0.64283
  Beta  occ. eigenvalues --   -0.61951  -0.51627  -0.47842  -0.45275  -0.33654
  Beta  occ. eigenvalues --   -0.31864  -0.30837
  Beta virt. eigenvalues --   -0.18635  -0.14396  -0.10360  -0.06940  -0.05638
  Beta virt. eigenvalues --   -0.02384   0.00893   0.04595   0.04643   0.04781
  Beta virt. eigenvalues --    0.06750   0.07297   0.07507   0.08402   0.08672

 Mulliken charges and spin densities:
               1          2
     1  C   -0.125651   0.628463
     2  C    0.278641   0.198834
     3  N   -0.754665  -0.045819
     4  C    0.270098   0.443300
     5  C    0.108542   1.021168
     6  C    0.223036   0.754053
 Sum of Mulliken charges =  -0.00000   3.00000

 Dipole moment (field-independent basis, Debye):
    X=             -0.4141    Y=              0.4269    Z=              0.0000  Tot=              0.5947
 Quadrupole moment (field-independent basis, Debye-Ang):
   XX=            -37.0962   YY=            -33.2400   ZZ=            -33.6013
   XY=              1.2932   XZ=              0.0000   YZ=              0.0000

  Exact polarizability:  70.421   1.911  71.466  -0.000  -0.000  36.647
 Approx polarizability: 151.693   2.313 166.122  -0.000  -0.000  52.806

                      1                      2                      3
                     A'                     A"                     A"
 Frequencies --    206.3898               409.8452               459.6306
 Red. masses --     12.2547                12.3336                12.0417
 Frc consts  --      0.3076                 1.2206                 1.4988
 IR Inten    --     13.4163                 0.0846                 2.9956

                      4                      5                      6
                     A"                     A'                     A'
 Frequencies --    556.1820               626.3661               758.6050
 Red. masses --     12.3722                12.4166                12.0402
 Frc consts  --      2.2549                 2.8702                 4.0824
 IR Inten    --      0.9261                 3.2920                 0.7799

                      7                      8                      9
                     A'                     A'                     A'
 Frequencies --   1021.1964              1079.8147              1138.6099
 Red. masses --     12.7249                12.1262                12.4691
 Frc consts  --      7.8185                 8.3305                 9.5244
 IR Inten    --      0.3899                 4.8549                14.6726

                     10                     11                     12
                     A'                     A'                     A'
 Frequencies --   1379.9394              1414.8087              1718.3687
 Red. masses --     12.2660                12.0320                12.1694
 Frc consts  --     13.7617                14.1900                21.1715
 IR Inten    --      0.0198                 3.5366               216.7089

 - Thermochemistry -
 -------------------
 Temperature   298.150 Kelvin.  Pressure   1.00000 Atm.
 Atom     1 has atomic number  6 and mass  12.00000

 Molecular mass:    74.00307 amu.
 Principal axes and moments of inertia in atomic units:
                           1         2         3
     Eigenvalues --   201.23928 270.88687 472.12616
           X            0.96223   0.27224   0.00000
           Y           -0.27224   0.96223   0.00000
           Z           -0.00000  -0.00000   1.00000
 This molecule is an asymmetric top.
 Rotational symmetry number  1.
 Rotational temperatures (Kelvin)      0.43040     0.31974     0.18345
 Rotational constants (GHZ):           8.96814     6.66234     3.82258
 Zero-point vibrational energy      64417.4 (Joules/Mol)
                                   15.39614 (Kcal/Mol)
 Warning -- explicit consideration of   4 degrees of freedom as
           vibrations may cause significant error
 Vibrational temperatures:    296.95   589.68   661.31   800.22   901.20
          (Kelvin)           1091.46  1469.27  1553.61  1638.20  1985.42
                             2035.59  2472.35

 Zero-point correction=                           0.024535 (Hartree/Particle)
 Thermal correction to Energy=                    0.028997
 Thermal correction to Enthalpy=                  0.029941
 Thermal correction to Gibbs Free Energy=        -0.004046
 Sum of electronic and zero-point Energies=           -244.939743
 Sum of electronic and thermal Energies=              -244.935282
 Sum of electronic and thermal Enthalpies=            -244.934338
 Sum of electronic and thermal Free Energies=         -244.968325

                     E (Thermal)             CV                S
                      KCal/Mol        Cal/Mol-Kelvin    Cal/Mol-Kelvin
 Total                   18.196             14.554             71.532
 Electronic               0.000              0.000              2.755
 Translational            0.889              2.981             38.821
 Rotational               0.889              2.981             24.757
 Vibrational             16.418              8.592              5.199
 Vibration     1          0.641              1.831              2.075
 Vibration     2          0.774              1.449              0.927
 Vibration     3          0.818              1.340              0.767
 Vibration     4          0.912              1.126              0.532

 Optimization completed.
    -- Stationary point found.
 Normal termination of Gaussian 09 at Tue Aug 16 18:41:11 2016.
