 Gaussian 09, Revision E.01,
 Gaussian 09:  EM64L-G09RevE.01 30-Nov-2015

 ---------------------------------------------
 #p b3lyp/6-311++G(3df,2p) freq symmetry=Loose
 ---------------------------------------------

 ---------
 b3lyp opt
 ---------
 Symbolic Z-matrix:
 Charge =  0 Multiplicity = 4

                         Standard orientation:
 ---------------------------------------------------------------------
 Center     Atomic      Atomic             Coordinates (Angstroms)
 Number     Number       Type             X           Y           Z
 ---------------------------------------------------------------------
      1          6           0       -1.477723    0.019939   -0.012044
      2          7           0        0.975505   -0.774242   -0.142110
      3          6           0        2.112220   -0.044752    0.238839
      4          6           0       -0.133180    0.101826   -0.014012
      5          6           0        1.056362    0.865147   -0.130347
      6          6           0       -2.695769   -0.038876    0.083359
 ---------------------------------------------------------------------

 SCF Done:  E(UB3LYP) =  -244.871863965     A.U. after   53 cycles

 The electronic state is 4-A.
 Alpha  occ. eigenvalues --  -14.44210 -10.30977 -10.29879 -10.29182 -10.26344
 Alpha  occ. eigenvalues --  -10.24621  -1.10096  -0.85146  -0.77094  -0.69470
 Alpha  occ. eigenvalues --   -0.65035  -0.51821  -0.48823  -0.45064  -0.41005
 Alpha  occ. eigenvalues --   -0.38762  -0.35869  -0.30663  -0.28137  -0.24936
 Alpha virt. eigenvalues --   -0.10218  -0.06103  -0.04090   0.00536   0.03296
 Alpha virt. eigenvalues --    0.04010   0.04344   0.05125   0.05598   0.06909
 Alpha virt. eigenvalues --    0.07852   0.08896   0.09047   0.10389   0.11542

  Beta  occ. eigenvalues --  -14.43346 -10.30017 -10.28954 -10.26395 -10.25850
  Beta  occ. eigenvalues --  -10.24789  -1.08165  -0.83439  -0.73892  -0.66702
  Beta  occ. eigenvalues --   -0.63362  -0.47650  -0.46053  -0.39038  -0.35322
  Beta  occ. eigenvalues --   -0.33976  -0.28799
  Beta virt. eigenvalues --   -0.23000  -0.15162  -0.13450  -0.08412  -0.02086
  Beta virt. eigenvalues --   -0.01432   0.01183   0.04088   0.04384   0.04584
  Beta virt. eigenvalues --    0.05467   0.06771   0.07327   0.08799   0.09480

 Mulliken charges and spin densities:
               1          2
     1  C    0.451985  -0.284467
     2  N   -0.435089   0.326505
     3  C   -0.187742   0.319658
     4  C    0.250190   0.537078
     5  C   -0.097391   0.510280
     6  C    0.018047   1.590947
 Sum of Mulliken charges =  -0.00000   3.00000

 Dipole moment (field-independent basis, Debye):
    X=             -2.9956    Y=              0.4090    Z=             -0.1851  Tot=              3.0291
 Quadrupole moment (field-independent basis, Debye-Ang):
   XX=            -37.1412   YY=            -34.1563   ZZ=            -33.8565
   XY=              0.8379   XZ=             -0.9885   YZ=              0.0699

  Exact polarizability: 132.218   0.636  51.099  -3.948  -0.826  39.401
 Approx polarizability: 245.290   0.940 100.364  -0.401  -1.215  56.281

                      1                      2                      3
                      A                      A                      A
 Frequencies --    141.3948               165.7172               346.6306
 Red. masses --     12.0406                12.1435                12.0129
 Frc consts  --      0.1418                 0.1965                 0.8504
 IR Inten    --      2.0349                 1.1179                 9.2417

                      4                      5                      6
                      A                      A                      A
 Frequencies --    403.7640               478.8782               601.1454
 Red. masses --     12.1395                12.3806                12.1816
 Frc consts  --      1.1660                 1.6728                 2.5937
 IR Inten    --     10.9781                25.9947                 3.3919

                      7                      8                      9
                      A                      A                      A
 Frequencies --    674.6807               807.4664               958.3486
 Red. masses --     12.6922                12.6716                12.6566
 Frc consts  --      3.4040                 4.8678                 6.8488
 IR Inten    --     11.3213                 2.1169                75.2927

                     10                     11                     12
                      A                      A                      A
 Frequencies --   1231.4861              1501.1223              2025.0481
 Red. masses --     12.2589                12.0371                12.0031
 Frc consts  --     10.9537                15.9810                29.0011
 IR Inten    --      4.7757                52.0457                10.2958

 - Thermochemistry -
 -------------------
 Temperature   298.150 Kelvin.  Pressure   1.00000 Atm.
 Atom     1 has atomic number  6 and mass  12.00000

 Molecular mass:    74.00307 amu.
 Principal axes and moments of inertia in atomic units:
                           1         2         3
     Eigenvalues --    67.15728 696.84144 755.00903
           X            1.00000   0.00001   0.00000
           Y           -0.00001   1.00000  -0.00002
           Z           -0.00000   0.00002   1.00000
 This molecule is an asymmetric top.
 Rotational symmetry number  1.
 Rotational temperatures (Kelvin)      1.28972     0.12429     0.11472
 Rotational constants (GHZ):          26.87335     2.58989     2.39036
 Zero-point vibrational energy      55839.8 (Joules/Mol)
                                   13.34603 (Kcal/Mol)
 Warning -- explicit consideration of   6 degrees of freedom as
           vibrations may cause significant error
 Vibrational temperatures:    203.44   238.43   498.72   580.93   689.00
          (Kelvin)            864.91   970.71  1161.76  1378.85  1771.83
                             2159.78  2913.59

 Zero-point correction=                           0.021268 (Hartree/Particle)
 Thermal correction to Energy=                    0.026709
 Thermal correction to Enthalpy=                  0.027653
 Thermal correction to Gibbs Free Energy=        -0.008412
 Sum of electronic and zero-point Energies=           -244.850596
 Sum of electronic and thermal Energies=              -244.845155
 Sum of electronic and thermal Enthalpies=            -244.844211
 Sum of electronic and thermal Free Energies=         -244.880276

                     E (Thermal)             CV                S
                      KCal/Mol        Cal/Mol-Kelvin    Cal/Mol-Kelvin
 Total                   16.760             17.341             75.906
 Electronic               0.000              0.000              2.755
 Translational            0.889              2.981             38.821
 Rotational               0.889              2.981             25.072
 Vibrational             14.983             11.380              9.258
 Vibration     1          0.615              1.912              2.785
 Vibration     2          0.624              1.885              2.484
 Vibration     3          0.725              1.582              1.181
 Vibration     4          0.769              1.462              0.949
 Vibration     5          0.835              1.297              0.713
 Vibration     6          0.959              1.029              0.448

 Optimization completed.
    -- Stationary point found.
 Normal termination of Gaussian 09 at Tue Aug 16 19:02:18 2016.
