 Gaussian 09, Revision E.01,
 Gaussian 09:  EM64L-G09RevE.01 30-Nov-2015

 ---------------------------------------------
 #p b3lyp/6-311++G(3df,2p) freq symmetry=Loose
 ---------------------------------------------

 ---------
 b3lyp opt
 ---------
 Symbolic Z-matrix:
 Charge =  1 Multiplicity = 1

                         Standard orientation:
 ---------------------------------------------------------------------
 Center     Atomic      Atomic             Coordinates (Angstroms)
 Number     Number       Type             X           Y           Z
 ---------------------------------------------------------------------
      1          7           0       -0.716029    1.956989    0.000000
      2          6           0        0.165430   -3.069996   -0.000000
      3          6           0       -0.000000    0.837111    0.000000
      4          6           0       -0.000009   -0.492613   -0.000000
      5          6           0        0.584029    2.181911    0.000000
      6          6           0        0.085918   -1.739566   -0.000000
 ---------------------------------------------------------------------

 SCF Done:  E(RB3LYP) =  -244.646684535     A.U. after   14 cycles

 The electronic state is 1-A'.
 Alpha  occ. eigenvalues --  -14.66676 -10.57304 -10.55272 -10.55083 -10.52865
 Alpha  occ. eigenvalues --  -10.48782  -1.34310  -1.11508  -1.03015  -0.93684
 Alpha  occ. eigenvalues --   -0.83304  -0.77453  -0.72342  -0.64150  -0.62622
 Alpha  occ. eigenvalues --   -0.58564  -0.56947  -0.52646
 Alpha virt. eigenvalues --   -0.44973  -0.39661  -0.30425  -0.28754  -0.19838
 Alpha virt. eigenvalues --   -0.16439  -0.12523  -0.12505  -0.10737  -0.10574
 Alpha virt. eigenvalues --   -0.09960  -0.06404  -0.06376  -0.05732  -0.05112

 Mulliken charges:
               1
     1  N   -0.338180
     2  C   -0.231947
     3  C    0.734625
     4  C   -0.199521
     5  C   -0.272867
     6  C    1.307891
 Sum of Mulliken charges =   1.00000

 Dipole moment (field-independent basis, Debye):
    X=             -0.0334    Y=             -1.2205    Z=              0.0000  Tot=              1.2210
 Quadrupole moment (field-independent basis, Debye-Ang):
   XX=            -31.8125   YY=            -17.4141   ZZ=            -28.0869
   XY=             -0.8917   XZ=             -0.0000   YZ=             -0.0000

  Exact polarizability:  36.429   0.265 143.895  -0.000  -0.000  31.438
 Approx polarizability:  59.810  -2.185 449.798   0.000   0.000  48.945

                      1                      2                      3
                     A"                     A'                     A'
 Frequencies --    105.7346               114.1189               271.1721
 Red. masses --     12.1203                12.1796                12.1688
 Frc consts  --      0.0798                 0.0935                 0.5272
 IR Inten    --      9.3035                 4.1330                 0.7170

                      4                      5                      6
                     A"                     A'                     A'
 Frequencies --    278.0694               539.3848               604.2425
 Red. masses --     12.0672                12.0962                12.3899
 Frc consts  --      0.5497                 2.0735                 2.6653
 IR Inten    --      0.1151                 0.7923                 3.4835

                      7                      8                      9
                     A"                     A'                     A'
 Frequencies --    606.2691               919.8117              1075.0170
 Red. masses --     12.0160                12.4929                12.4744
 Frc consts  --      2.6022                 6.2275                 8.4938
 IR Inten    --      4.7798               120.7844               134.7604

                     10                     11                     12
                     A'                     A'                     A'
 Frequencies --   1355.0061              1719.7620              2156.3258
 Red. masses --     12.2829                12.3984                12.0066
 Frc consts  --     13.2871                21.6050                32.8927
 IR Inten    --     71.2727                19.5747              1104.5344

 - Thermochemistry -
 -------------------
 Temperature   298.150 Kelvin.  Pressure   1.00000 Atm.
 Atom     1 has atomic number  7 and mass  14.00307

 Molecular mass:    74.00307 amu.
 Principal axes and moments of inertia in atomic units:
                           1         2         3
     Eigenvalues --    39.69620 971.557581011.25378
           X           -0.04687   0.99890  -0.00000
           Y            0.99890   0.04687  -0.00000
           Z            0.00000   0.00000   1.00000
 This molecule is an asymmetric top.
 Rotational symmetry number  1.
 Rotational temperatures (Kelvin)      2.18192     0.08915     0.08565
 Rotational constants (GHZ):          45.46383     1.85758     1.78466
 Zero-point vibrational energy      58287.5 (Joules/Mol)
                                   13.93105 (Kcal/Mol)
 Warning -- explicit consideration of   7 degrees of freedom as
           vibrations may cause significant error
 Vibrational temperatures:    152.13   164.19   390.16   400.08   776.05
          (Kelvin)            869.37   872.28  1323.40  1546.71  1949.55
                             2474.35  3102.47

 Zero-point correction=                           0.022201 (Hartree/Particle)
 Thermal correction to Energy=                    0.027970
 Thermal correction to Enthalpy=                  0.028914
 Thermal correction to Gibbs Free Energy=        -0.006883
 Sum of electronic and zero-point Energies=           -244.624484
 Sum of electronic and thermal Energies=              -244.618715
 Sum of electronic and thermal Enthalpies=            -244.617770
 Sum of electronic and thermal Free Energies=         -244.653568

                     E (Thermal)             CV                S
                      KCal/Mol        Cal/Mol-Kelvin    Cal/Mol-Kelvin
 Total                   17.551             17.428             75.342
 Electronic               0.000              0.000              0.000
 Translational            0.889              2.981             38.821
 Rotational               0.889              2.981             25.170
 Vibrational             15.774             11.467             11.351
 Vibration     1          0.605              1.945              3.346
 Vibration     2          0.607              1.938              3.198
 Vibration     3          0.675              1.726              1.589
 Vibration     4          0.679              1.714              1.546
 Vibration     5          0.894              1.163              0.567
 Vibration     6          0.963              1.023              0.442
 Vibration     7          0.965              1.019              0.439

 Normal termination of Gaussian 09 at Tue Aug 16 18:19:44 2016.
