 Gaussian 09, Revision E.01,
 Gaussian 09:  EM64L-G09RevE.01 30-Nov-2015

 ---------------------------------------------
 #p b3lyp/6-311++G(3df,2p) freq symmetry=Loose
 ---------------------------------------------

 ---------
 b3lyp opt
 ---------
 Symbolic Z-matrix:
 Charge =  0 Multiplicity = 2

                         Standard orientation:
 ---------------------------------------------------------------------
 Center     Atomic      Atomic             Coordinates (Angstroms)
 Number     Number       Type             X           Y           Z
 ---------------------------------------------------------------------
      1          6           0       -0.383768    0.509868    0.783698
      2          6           0        0.561129   -0.571485    0.000000
      3          6           0       -0.383768    0.509868   -0.783698
      4          6           0       -0.383768   -0.709270   -1.405700
      5          6           0       -0.383768   -0.709270    1.405700
      6          7           0        0.834808    0.831676    0.000000
 ---------------------------------------------------------------------

 SCF Done:  E(UB3LYP) =  -244.831301975     A.U. after   17 cycles

 The electronic state is 2-A".
 Alpha  occ. eigenvalues --  -14.46968 -10.35787 -10.33711 -10.33696 -10.28266
 Alpha  occ. eigenvalues --  -10.28264  -1.19629  -0.85930  -0.84970  -0.69609
 Alpha  occ. eigenvalues --   -0.57998  -0.53939  -0.47685  -0.44432  -0.42833
 Alpha  occ. eigenvalues --   -0.38428  -0.33506  -0.33161  -0.26274
 Alpha virt. eigenvalues --   -0.15087  -0.13704  -0.08502   0.00637   0.02067
 Alpha virt. eigenvalues --    0.02115   0.03999   0.04735   0.05233   0.06336
 Alpha virt. eigenvalues --    0.06464   0.07418   0.07798   0.09870   0.11090

  Beta  occ. eigenvalues --  -14.46733 -10.35869 -10.33746 -10.33729 -10.27489
  Beta  occ. eigenvalues --  -10.27488  -1.19279  -0.84341  -0.83570  -0.69576
  Beta  occ. eigenvalues --   -0.57158  -0.52334  -0.47179  -0.44173  -0.41829
  Beta  occ. eigenvalues --   -0.38207  -0.32499  -0.31381
  Beta virt. eigenvalues --   -0.15405  -0.13309  -0.11590  -0.08391   0.00845
  Beta virt. eigenvalues --    0.02288   0.02325   0.04334   0.04943   0.05780
  Beta virt. eigenvalues --    0.06457   0.06602   0.07473   0.07939   0.10377

 Mulliken charges and spin densities:
               1          2
     1  C    0.573237   0.007481
     2  C    0.535506  -0.050431
     3  C    0.573237   0.007481
     4  C   -0.594255   0.482763
     5  C   -0.594255   0.482763
     6  N   -0.493471   0.069943
 Sum of Mulliken charges =  -0.00000   1.00000

 Dipole moment (field-independent basis, Debye):
    X=              0.3865    Y=              2.2004    Z=             -0.0000  Tot=              2.2341
 Quadrupole moment (field-independent basis, Debye-Ang):
   XX=            -34.3059   YY=            -36.8525   ZZ=            -38.8083
   XY=             -2.3505   XZ=             -0.0000   YZ=             -0.0000

  Exact polarizability:  44.856   1.157  49.738   0.000   0.000  77.812
 Approx polarizability:  86.643  -9.107 106.259  -0.000  -0.000 166.955

                      1                      2                      3
                     A"                     A"                     A'
 Frequencies --    263.9046               340.6799               343.0821
 Red. masses --     12.0005                12.1142                12.0040
 Frc consts  --      0.4924                 0.8284                 0.8325
 IR Inten    --      0.6501                21.0799                 9.1622

                      4                      5                      6
                     A'                     A'                     A"
 Frequencies --    366.6161               501.9852               701.6707
 Red. masses --     12.1010                12.3385                12.0450
 Frc consts  --      0.9583                 1.8319                 3.4940
 IR Inten    --      5.3149                 5.5137                10.6363

                      7                      8                      9
                     A'                     A"                     A'
 Frequencies --    712.0879               767.8260               827.8230
 Red. masses --     12.4820                12.9530                12.5543
 Frc consts  --      3.7291                 4.4993                 5.0690
 IR Inten    --     14.2141                 0.1252                 6.6934

                     10                     11                     12
                     A"                     A'                     A'
 Frequencies --   1210.2706              1213.9246              1324.1972
 Red. masses --     12.0017                12.4980                12.2482
 Frc consts  --     10.3576                10.8511                12.6540
 IR Inten    --     20.9289                 8.8368                 2.4545

 - Thermochemistry -
 -------------------
 Temperature   298.150 Kelvin.  Pressure   1.00000 Atm.
 Atom     1 has atomic number  6 and mass  12.00000

 Molecular mass:    74.00307 amu.
 Principal axes and moments of inertia in atomic units:
                           1         2         3
     Eigenvalues --   187.56696 281.62811 349.92374
           X            0.00000   0.45198   0.89203
           Y            0.00000   0.89203  -0.45198
           Z            1.00000  -0.00000   0.00000
 This molecule is an asymmetric top.
 Rotational symmetry number  1.
 Rotational temperatures (Kelvin)      0.46178     0.30755     0.24752
 Rotational constants (GHZ):           9.62185     6.40824     5.15753
 Zero-point vibrational energy      51284.3 (Joules/Mol)
                                   12.25725 (Kcal/Mol)
 Warning -- explicit consideration of   5 degrees of freedom as
           vibrations may cause significant error
 Vibrational temperatures:    379.70   490.16   493.62   527.48   722.24
          (Kelvin)           1009.55  1024.53  1104.73  1191.05  1741.31
                             1746.56  1905.22

 Zero-point correction=                           0.019533 (Hartree/Particle)
 Thermal correction to Energy=                    0.024561
 Thermal correction to Enthalpy=                  0.025505
 Thermal correction to Gibbs Free Energy=        -0.008485
 Sum of electronic and zero-point Energies=           -244.811769
 Sum of electronic and thermal Energies=              -244.806741
 Sum of electronic and thermal Enthalpies=            -244.805797
 Sum of electronic and thermal Free Energies=         -244.839787

                     E (Thermal)             CV                S
                      KCal/Mol        Cal/Mol-Kelvin    Cal/Mol-Kelvin
 Total                   15.412             17.145             71.537
 Electronic               0.000              0.000              1.377
 Translational            0.889              2.981             38.821
 Rotational               0.889              2.981             24.428
 Vibrational             13.635             11.183              6.910
 Vibration     1          0.670              1.739              1.636
 Vibration     2          0.720              1.594              1.209
 Vibration     3          0.722              1.589              1.198
 Vibration     4          0.740              1.541              1.094
 Vibration     5          0.857              1.246              0.653

 Optimization completed.
    -- Stationary point found.
 Normal termination of Gaussian 09 at Tue Aug 16 18:41:47 2016.
