 Gaussian 09, Revision E.01,
 Gaussian 09:  EM64L-G09RevE.01 30-Nov-2015

 ---------------------------------------------
 #p b3lyp/6-311++G(3df,2p) freq symmetry=Loose
 ---------------------------------------------

 ---------
 b3lyp opt
 ---------
 Symbolic Z-matrix:
 Charge =  0 Multiplicity = 4

                         Standard orientation:
 ---------------------------------------------------------------------
 Center     Atomic      Atomic             Coordinates (Angstroms)
 Number     Number       Type             X           Y           Z
 ---------------------------------------------------------------------
      1          6           0       -1.495428   -0.000200   -0.009586
      2          6           0        1.006382    0.871571   -0.148617
      3          6           0       -0.140746   -0.000540   -0.029231
      4          6           0        1.006818   -0.871553   -0.148468
      5          6           0       -2.711686    0.000309    0.083090
      6          7           0        2.001137    0.000353    0.216696
 ---------------------------------------------------------------------

 SCF Done:  E(UB3LYP) =  -244.913475341     A.U. after   26 cycles

 The electronic state is 4-A.
 Alpha  occ. eigenvalues --  -14.39519 -10.29497 -10.29117 -10.29111 -10.28648
 Alpha  occ. eigenvalues --  -10.24884  -1.07630  -0.85877  -0.78936  -0.65479
 Alpha  occ. eigenvalues --   -0.63712  -0.49666  -0.49534  -0.45524  -0.40197
 Alpha  occ. eigenvalues --   -0.39134  -0.36007  -0.33251  -0.27902  -0.24786
 Alpha virt. eigenvalues --   -0.08980  -0.06879  -0.03120   0.00871   0.03095
 Alpha virt. eigenvalues --    0.03884   0.04566   0.04893   0.05444   0.07205
 Alpha virt. eigenvalues --    0.07854   0.09378   0.09627   0.10162   0.10895

  Beta  occ. eigenvalues --  -14.38522 -10.28476 -10.28467 -10.27607 -10.26695
  Beta  occ. eigenvalues --  -10.25058  -1.05669  -0.84019  -0.75418  -0.63608
  Beta  occ. eigenvalues --   -0.61478  -0.47984  -0.44878  -0.38769  -0.35059
  Beta  occ. eigenvalues --   -0.33846  -0.30122
  Beta virt. eigenvalues --   -0.23108  -0.16026  -0.12993  -0.07991  -0.02124
  Beta virt. eigenvalues --   -0.00825   0.01563   0.03748   0.04372   0.04773
  Beta virt. eigenvalues --    0.05553   0.06388   0.07627   0.08367   0.09876

 Mulliken charges and spin densities:
               1          2
     1  C    0.135948  -0.281246
     2  C   -0.084876   0.403904
     3  C    0.332534   0.473802
     4  C   -0.084004   0.404111
     5  C    0.223997   1.588785
     6  N   -0.523599   0.410646
 Sum of Mulliken charges =  -0.00000   3.00000

 Dipole moment (field-independent basis, Debye):
    X=             -2.7625    Y=             -0.0006    Z=              0.1686  Tot=              2.7677
 Quadrupole moment (field-independent basis, Debye-Ang):
   XX=            -33.6095   YY=            -35.8088   ZZ=            -33.3762
   XY=             -0.0015   XZ=             -0.4050   YZ=              0.0004

  Exact polarizability: 104.256  -0.004  61.758  -2.504  -0.002  37.422
 Approx polarizability: 196.390  -0.019 118.362  -0.337  -0.003  53.984

                      1                      2                      3
                      A                      A                      A
 Frequencies --    164.4422               172.7325               413.1100
 Red. masses --     12.1322                12.4753                12.0946
 Frc consts  --      0.1933                 0.2193                 1.2161
 IR Inten    --      1.6701                 1.1498                 0.7330

                      4                      5                      6
                      A                      A                      A
 Frequencies --    438.0338               621.8001               655.5892
 Red. masses --     12.1184                12.3676                12.3330
 Frc consts  --      1.3700                 2.8173                 3.1231
 IR Inten    --      5.4636                11.0881                 0.4589

                      7                      8                      9
                      A                      A                      A
 Frequencies --    821.0997               867.9862               923.6739
 Red. masses --     12.6049                12.0604                12.1603
 Frc consts  --      5.0070                 5.3535                 6.1127
 IR Inten    --     29.6532                 0.6620                29.5120

                     10                     11                     12
                      A                      A                      A
 Frequencies --   1234.9382              1461.7287              2044.4073
 Red. masses --     12.6807                12.2555                12.0049
 Frc consts  --     11.3942                15.4282                29.5627
 IR Inten    --      0.2682                25.6662                 5.4607

 - Thermochemistry -
 -------------------
 Temperature   298.150 Kelvin.  Pressure   1.00000 Atm.
 Atom     1 has atomic number  6 and mass  12.00000

 Molecular mass:    74.00307 amu.
 Principal axes and moments of inertia in atomic units:
                           1         2         3
     Eigenvalues --    69.67934 703.45480 763.98285
           X            1.00000  -0.00000  -0.00001
           Y            0.00000   1.00000  -0.00000
           Z            0.00001   0.00000   1.00000
 This molecule is an asymmetric top.
 Rotational symmetry number  1.
 Rotational temperatures (Kelvin)      1.24303     0.12313     0.11337
 Rotational constants (GHZ):          25.90066     2.56554     2.36228
 Zero-point vibrational energy      58733.9 (Joules/Mol)
                                   14.03774 (Kcal/Mol)
 Warning -- explicit consideration of   4 degrees of freedom as
           vibrations may cause significant error
 Vibrational temperatures:    236.60   248.52   594.37   630.23   894.63
          (Kelvin)            943.25  1181.38  1248.84  1328.96  1776.80
                             2103.10  2941.44

 Zero-point correction=                           0.022371 (Hartree/Particle)
 Thermal correction to Energy=                    0.027481
 Thermal correction to Enthalpy=                  0.028425
 Thermal correction to Gibbs Free Energy=        -0.007049
 Sum of electronic and zero-point Energies=           -244.891105
 Sum of electronic and thermal Energies=              -244.885994
 Sum of electronic and thermal Enthalpies=            -244.885050
 Sum of electronic and thermal Free Energies=         -244.920524

                     E (Thermal)             CV                S
                      KCal/Mol        Cal/Mol-Kelvin    Cal/Mol-Kelvin
 Total                   17.245             16.364             74.662
 Electronic               0.000              0.000              2.755
 Translational            0.889              2.981             38.821
 Rotational               0.889              2.981             25.130
 Vibrational             15.467             10.403              7.956
 Vibration     1          0.623              1.886              2.498
 Vibration     2          0.626              1.876              2.406
 Vibration     3          0.777              1.442              0.916
 Vibration     4          0.798              1.387              0.833

 Optimization completed.
    -- Stationary point found.
 Normal termination of Gaussian 09 at Tue Aug 16 18:47:35 2016.
