 Gaussian 09, Revision E.01,
 Gaussian 09:  EM64L-G09RevE.01 30-Nov-2015

 ---------------------------------------------
 #p b3lyp/6-311++G(3df,2p) freq symmetry=Loose
 ---------------------------------------------

 ---------
 b3lyp opt
 ---------
 Symbolic Z-matrix:
 Charge =  0 Multiplicity = 4

                         Standard orientation:
 ---------------------------------------------------------------------
 Center     Atomic      Atomic             Coordinates (Angstroms)
 Number     Number       Type             X           Y           Z
 ---------------------------------------------------------------------
      1          7           0        0.000000    0.589738    0.000000
      2          6           0        0.391699   -0.638608   -0.000000
      3          6           0       -0.270023   -3.135755   -0.000000
      4          6           0       -0.048905   -1.845803   -0.000000
      5          6           0       -0.073939    3.135243    0.000000
      6          6           0        0.001169    1.796896    0.000000
 ---------------------------------------------------------------------

 SCF Done:  E(UB3LYP) =  -244.937944936     A.U. after   20 cycles

 The electronic state is 4-A".
 Alpha  occ. eigenvalues --  -14.47012 -10.31992 -10.31866 -10.27741 -10.26245
 Alpha  occ. eigenvalues --  -10.24390  -1.07500  -0.88703  -0.82510  -0.77608
 Alpha  occ. eigenvalues --   -0.68747  -0.53365  -0.52598  -0.40435  -0.39269
 Alpha  occ. eigenvalues --   -0.35909  -0.33715  -0.32808  -0.31244  -0.24157
 Alpha virt. eigenvalues --   -0.15716  -0.03379  -0.02305  -0.00908   0.01938
 Alpha virt. eigenvalues --    0.02636   0.02899   0.03929   0.05858   0.06260
 Alpha virt. eigenvalues --    0.07153   0.07307   0.07578   0.08588   0.10001

  Beta  occ. eigenvalues --  -14.46026 -10.31502 -10.31227 -10.26201 -10.25208
  Beta  occ. eigenvalues --  -10.24183  -1.05342  -0.86936  -0.79159  -0.73511
  Beta  occ. eigenvalues --   -0.66896  -0.49956  -0.48856  -0.36476  -0.35403
  Beta  occ. eigenvalues --   -0.32829  -0.31636
  Beta virt. eigenvalues --   -0.21893  -0.21493  -0.12092  -0.11760  -0.02131
  Beta virt. eigenvalues --    0.01411   0.02037   0.02740   0.03453   0.03613
  Beta virt. eigenvalues --    0.05379   0.06265   0.06877   0.07402   0.07732

 Mulliken charges and spin densities:
               1          2
     1  N   -0.889646   0.381932
     2  C   -0.168999   0.427109
     3  C   -0.811022   0.682158
     4  C    1.364672   0.166314
     5  C   -0.466242   1.041522
     6  C    0.971237   0.300965
 Sum of Mulliken charges =  -0.00000   3.00000

 Dipole moment (field-independent basis, Debye):
    X=              0.3494    Y=              0.8383    Z=              0.0000  Tot=              0.9082
 Quadrupole moment (field-independent basis, Debye-Ang):
   XX=            -34.2562   YY=            -56.9706   ZZ=            -32.4307
   XY=             -0.8054   XZ=             -0.0000   YZ=             -0.0000

  Exact polarizability:  46.686   7.188 193.471  -0.000   0.000  43.232
 Approx polarizability:  66.989  25.052 420.666   0.000   0.000  60.306

                      1                      2                      3
                     A'                     A"                     A'
 Frequencies --     64.9168               123.1784               207.3550
 Red. masses --     12.7014                12.8380                12.4725
 Frc consts  --      0.0315                 0.1148                 0.3160
 IR Inten    --      8.4541                18.5768                 1.1315

                      4                      5                      6
                     A"                     A'                     A"
 Frequencies --    214.8320               308.3224               349.9478
 Red. masses --     12.0175                12.1826                12.5923
 Frc consts  --      0.3268                 0.6823                 0.9086
 IR Inten    --      2.1806                26.9842                20.2078

                      7                      8                      9
                     A'                     A'                     A'
 Frequencies --    393.3330               749.5491              1145.1025
 Red. masses --     12.0662                12.0751                12.3015
 Frc consts  --      1.0999                 3.9971                 9.5038
 IR Inten    --      7.8211                 0.2340               180.1705

                     10                     11                     12
                     A'                     A'                     A'
 Frequencies --   1502.5209              1878.5475              2034.3730
 Red. masses --     12.2165                12.0367                12.8307
 Frc consts  --     16.2495                25.0267                31.2868
 IR Inten    --      3.5425               538.5521                38.9257

 - Thermochemistry -
 -------------------
 Temperature   298.150 Kelvin.  Pressure   1.00000 Atm.
 Atom     1 has atomic number  7 and mass  14.00307

 Molecular mass:    74.00307 amu.
 Principal axes and moments of inertia in atomic units:
                           1         2         3
     Eigenvalues --     9.703081162.166301171.86938
           X            0.01700   0.99986  -0.00000
           Y            0.99986  -0.01700  -0.00000
           Z            0.00000   0.00000   1.00000
 This molecule is an asymmetric top.
 Rotational symmetry number  1.
 Rotational temperatures (Kelvin)      8.92642     0.07453     0.07391
 Rotational constants (GHZ):         185.99671     1.55291     1.54005
 Zero-point vibrational energy      53664.3 (Joules/Mol)
                                   12.82609 (Kcal/Mol)
 Warning -- explicit consideration of   7 degrees of freedom as
           vibrations may cause significant error
 Vibrational temperatures:     93.40   177.23   298.34   309.09   443.61
          (Kelvin)            503.50   565.92  1078.43  1647.55  2161.79
                             2702.81  2927.01

 Zero-point correction=                           0.020440 (Hartree/Particle)
 Thermal correction to Energy=                    0.027063
 Thermal correction to Enthalpy=                  0.028007
 Thermal correction to Gibbs Free Energy=        -0.010448
 Sum of electronic and zero-point Energies=           -244.917505
 Sum of electronic and thermal Energies=              -244.910882
 Sum of electronic and thermal Enthalpies=            -244.909938
 Sum of electronic and thermal Free Energies=         -244.948393

                     E (Thermal)             CV                S
                      KCal/Mol        Cal/Mol-Kelvin    Cal/Mol-Kelvin
 Total                   16.982             19.312             80.936
 Electronic               0.000              0.000              2.755
 Translational            0.889              2.981             38.821
 Rotational               0.889              2.981             24.095
 Vibrational             15.205             13.351             15.266
 Vibration     1          0.597              1.971              4.302
 Vibration     2          0.610              1.930              3.050
 Vibration     3          0.641              1.829              2.067
 Vibration     4          0.645              1.818              2.002
 Vibration     5          0.698              1.658              1.371
 Vibration     6          0.727              1.575              1.166
 Vibration     7          0.761              1.484              0.987

 Normal termination of Gaussian 09 at Tue Aug 16 18:38:31 2016.
