 Gaussian 09, Revision D.01,
 Gaussian 09:  EM64L-G09RevD.01 24-Apr-2013

 ------------------------------
 #p b3lyp/6-311++G(3df,2p) freq
 ------------------------------

 ---------
 b3lyp opt
 ---------
 Symbolic Z-matrix:
 Charge =  0 Multiplicity = 2

                         Standard orientation:
 ---------------------------------------------------------------------
 Center     Atomic      Atomic             Coordinates (Angstroms)
 Number     Number       Type             X           Y           Z
 ---------------------------------------------------------------------
      1          6           0        0.170494    1.876377    0.000000
      2          6           0        0.000000    0.542178    0.000000
      3          6           0       -0.132737   -0.685151    0.000000
      4          6           0       -0.254966   -1.993454    0.000000
      5          6           0       -0.169689   -3.273026    0.000000
      6          7           0        0.331627    3.028352    0.000000
 ---------------------------------------------------------------------

 SCF Done:  E(UB3LYP) =  -245.100537178     A.U. after   22 cycles

 The electronic state is 2-A'.
 Alpha  occ. eigenvalues --  -14.38661 -10.29350 -10.29152 -10.27937 -10.26334
 Alpha  occ. eigenvalues --  -10.25136  -0.97680  -0.89021  -0.82764  -0.74080
 Alpha  occ. eigenvalues --   -0.66709  -0.46760  -0.45827  -0.43194  -0.41018
 Alpha  occ. eigenvalues --   -0.39914  -0.34023  -0.32548  -0.30889
 Alpha virt. eigenvalues --   -0.13271  -0.12260  -0.01260   0.00340   0.01651
 Alpha virt. eigenvalues --    0.02364   0.03551   0.03779   0.05270   0.06512
 Alpha virt. eigenvalues --    0.06941   0.07426   0.10518   0.10774   0.11388

  Beta  occ. eigenvalues --  -14.38217 -10.29406 -10.28719 -10.28107 -10.25837
  Beta  occ. eigenvalues --  -10.24669  -0.96886  -0.88089  -0.80855  -0.73315
  Beta  occ. eigenvalues --   -0.66113  -0.45612  -0.44678  -0.42547  -0.39693
  Beta  occ. eigenvalues --   -0.38481  -0.32547  -0.30146
  Beta virt. eigenvalues --   -0.23603  -0.11995  -0.10583  -0.01128   0.01924
  Beta virt. eigenvalues --    0.02041   0.02886   0.03811   0.03840   0.05428
  Beta virt. eigenvalues --    0.06669   0.06959   0.07605   0.10793   0.10805

 Mulliken charges and spin densities:
               1          2
     1  C   -0.000408  -0.142525
     2  C    0.835260   0.203985
     3  C   -0.393587   0.108078
     4  C    1.229211   0.293455
     5  C   -0.735605   0.306882
     6  N   -0.934873   0.230124
 Sum of Mulliken charges =   0.00000   1.00000

 Dipole moment (field-independent basis, Debye):
    X=             -0.4639    Y=              0.5614    Z=              0.0000  Tot=              0.7283
 Quadrupole moment (field-independent basis, Debye-Ang):
   XX=            -31.8894   YY=            -52.9765   ZZ=            -33.4670
   XY=             -0.5230   XZ=              0.0000   YZ=              0.0000

  Exact polarizability:  39.329  16.449 183.085   0.000   0.000  45.662
 Approx polarizability:  55.771  29.895 397.977   0.000   0.000  52.230

                      1                      2                      3
                     A'                     A"                     A'
 Frequencies --     97.5048               150.4964               205.6607
 Red. masses --     12.3664                12.3128                12.2288
 Frc consts  --      0.0693                 0.1643                 0.3047
 IR Inten    --     22.0435                 4.6621                30.1841

                      4                      5                      6
                     A'                     A"                     A"
 Frequencies --    422.8449               456.7326               535.2053
 Red. masses --     12.1467                12.1483                12.0908
 Frc consts  --      1.2796                 1.4931                 2.0405
 IR Inten    --     33.4068                17.3623                 0.6468

                      7                      8                      9
                     A'                     A'                     A'
 Frequencies --    567.3375               644.0087              1208.5636
 Red. masses --     12.0536                12.5362                12.2415
 Frc consts  --      2.2859                 3.0634                10.5348
 IR Inten    --      7.9089                 3.4749                 3.6828

                     10                     11                     12
                     A'                     A'                     A'
 Frequencies --   1873.7748              2063.8544              2220.3315
 Red. masses --     12.0636                12.0032                12.5961
 Frc consts  --     24.9552                30.1234                36.5866
 IR Inten    --     62.3786                29.6532                15.3495

 - Thermochemistry -
 -------------------
 Temperature   298.150 Kelvin.  Pressure   1.00000 Atm.
 Atom     1 has atomic number  6 and mass  12.00000

 Molecular mass:    74.00307 amu.
 Principal axes and moments of inertia in atomic units:
                           1         2         3
     Eigenvalues --     1.394141281.674401283.06854
           X            0.08893   0.99604   0.00000
           Y            0.99604  -0.08893   0.00000
           Z            0.00000   0.00000   1.00000
 This molecule is an asymmetric top.
 Rotational symmetry number  1.
 Rotational temperatures (Kelvin)     62.12684     0.06758     0.06751
 Rotational constants (GHZ):        1294.51491     1.40811     1.40658
 Zero-point vibrational energy      62482.8 (Joules/Mol)
                                   14.93376 (Kcal/Mol)
 Warning -- explicit consideration of   7 degrees of freedom as
           vibrations may cause significant error
 Vibrational temperatures:    140.29   216.53   295.90   608.38   657.14
          (Kelvin)            770.04   816.27   926.58  1738.85  2695.94
                             2969.42  3194.56

 Zero-point correction=                           0.023798 (Hartree/Particle)
 Thermal correction to Energy=                    0.029644
 Thermal correction to Enthalpy=                  0.030588
 Thermal correction to Gibbs Free Energy=        -0.004558
 Sum of electronic and zero-point Energies=           -245.076739
 Sum of electronic and thermal Energies=              -245.070893
 Sum of electronic and thermal Enthalpies=            -245.069949
 Sum of electronic and thermal Free Energies=         -245.105095

                     E (Thermal)             CV                S
                      KCal/Mol        Cal/Mol-Kelvin    Cal/Mol-Kelvin
 Total                   18.602             17.860             73.971
 Electronic               0.000              0.000              1.377
 Translational            0.889              2.981             38.821
 Rotational               0.889              2.981             22.354
 Vibrational             16.825             11.899             11.418
 Vibration     1          0.603              1.951              3.504
 Vibration     2          0.618              1.902              2.666
 Vibration     3          0.640              1.832              2.082
 Vibration     4          0.785              1.421              0.882
 Vibration     5          0.815              1.346              0.776
 Vibration     6          0.890              1.172              0.576
 Vibration     7          0.923              1.102              0.509

 Normal termination of Gaussian 09 at Mon Sep 17 00:59:17 2018.
