 Gaussian 09, Revision E.01,
 Gaussian 09:  EM64L-G09RevE.01 30-Nov-2015

 ---------------------------------------------
 #p b3lyp/6-311++G(3df,2p) freq symmetry=Loose
 ---------------------------------------------

 ---------
 b3lyp opt
 ---------
 Symbolic Z-matrix:
 Charge =  1 Multiplicity = 3

                         Standard orientation:
 ---------------------------------------------------------------------
 Center     Atomic      Atomic             Coordinates (Angstroms)
 Number     Number       Type             X           Y           Z
 ---------------------------------------------------------------------
      1          6           0        0.005363    1.121106    0.701593
      2          6           0        0.005363   -0.361779    0.791798
      3          6           0       -1.221632   -0.483323   -0.000000
      4          6           0        0.005363    1.121106   -0.701593
      5          6           0        0.005363   -0.361779   -0.791798
      6          7           0        1.028724   -0.887428    0.000000
 ---------------------------------------------------------------------

 SCF Done:  E(UB3LYP) =  -244.473730559     A.U. after   22 cycles

 The electronic state is 3-A".
 Alpha  occ. eigenvalues --  -14.69902 -10.59211 -10.59196 -10.57681 -10.57631
 Alpha  occ. eigenvalues --  -10.55703  -1.40349  -1.15750  -1.03483  -0.97931
 Alpha  occ. eigenvalues --   -0.81121  -0.78447  -0.74493  -0.70408  -0.67946
 Alpha  occ. eigenvalues --   -0.62115  -0.59076  -0.56718  -0.55905
 Alpha virt. eigenvalues --   -0.44385  -0.34700  -0.34662  -0.30997  -0.14133
 Alpha virt. eigenvalues --   -0.13557  -0.12013  -0.11207  -0.10162  -0.07873
 Alpha virt. eigenvalues --   -0.07772  -0.07569  -0.07472  -0.06204  -0.05761

  Beta  occ. eigenvalues --  -14.69237 -10.59066 -10.59050 -10.55965 -10.55920
  Beta  occ. eigenvalues --  -10.55829  -1.39132  -1.13604  -1.01735  -0.96294
  Beta  occ. eigenvalues --   -0.77975  -0.76826  -0.73220  -0.68607  -0.64691
  Beta  occ. eigenvalues --   -0.59830  -0.56888
  Beta virt. eigenvalues --   -0.43735  -0.41141  -0.39606  -0.34414  -0.34015
  Beta virt. eigenvalues --   -0.28562  -0.13838  -0.13300  -0.11291  -0.10509
  Beta virt. eigenvalues --   -0.09100  -0.07715  -0.07655  -0.07383  -0.07168

 Mulliken charges and spin densities:
               1          2
     1  C    0.134184   0.938873
     2  C    0.736847  -0.118428
     3  C   -0.236524   0.016636
     4  C    0.134184   0.938873
     5  C    0.736847  -0.118428
     6  N   -0.505538   0.342474
 Sum of Mulliken charges =   1.00000   2.00000

 Dipole moment (field-independent basis, Debye):
    X=             -0.0555    Y=              0.7603    Z=              0.0000  Tot=              0.7623
 Quadrupole moment (field-independent basis, Debye-Ang):
   XX=            -31.5106   YY=            -25.9446   ZZ=            -25.3498
   XY=              0.8964   XZ=             -0.0000   YZ=              0.0000

  Exact polarizability:  48.163  -0.103  48.983   0.000   0.000  41.626
 Approx polarizability: 119.349   1.762 110.749  -0.000   0.000  97.216

                      1                      2                      3
                     A'                     A"                     A'
 Frequencies --    182.9249               263.2138               310.0094
 Red. masses --     12.4077                12.2086                12.5893
 Frc consts  --      0.2446                 0.4984                 0.7129
 IR Inten    --      1.9942                 1.1276                 1.7532

                      4                      5                      6
                     A"                     A"                     A"
 Frequencies --    491.6064               809.4638               846.8885
 Red. masses --     12.1143                12.3004                12.1310
 Frc consts  --      1.7250                 4.7486                 5.1262
 IR Inten    --      0.0009                 6.3810                 0.0507

                      7                      8                      9
                     A'                     A"                     A'
 Frequencies --    888.4870               941.9697              1025.7797
 Red. masses --     12.3981                12.0195                12.2776
 Frc consts  --      5.7664                 6.2836                 7.6115
 IR Inten    --      4.1195                 0.5480                17.3542

                     10                     11                     12
                     A'                     A'                     A'
 Frequencies --   1142.5545              1223.2897              1350.4779
 Red. masses --     12.1663                12.4041                12.0607
 Frc consts  --      9.3576                10.9364                12.9597
 IR Inten    --     10.3614                19.7976                 7.2976

 - Thermochemistry -
 -------------------
 Temperature   298.150 Kelvin.  Pressure   1.00000 Atm.
 Atom     1 has atomic number  6 and mass  12.00000

 Molecular mass:    74.00307 amu.
 Principal axes and moments of inertia in atomic units:
                           1         2         3
     Eigenvalues --   205.93771 271.10996 285.20818
           X           -0.32443   0.94591   0.00000
           Y            0.94591   0.32443   0.00000
           Z           -0.00000  -0.00000   1.00000
 This molecule is an asymmetric top.
 Rotational symmetry number  1.
 Rotational temperatures (Kelvin)      0.42058     0.31948     0.30369
 Rotational constants (GHZ):           8.76353     6.65686     6.32780
 Zero-point vibrational energy      56683.0 (Joules/Mol)
                                   13.54757 (Kcal/Mol)
 Warning -- explicit consideration of   4 degrees of freedom as
           vibrations may cause significant error
 Vibrational temperatures:    263.19   378.71   446.03   707.31  1164.64
          (Kelvin)           1218.48  1278.33  1355.28  1475.87  1643.88
                             1760.04  1943.03

 Zero-point correction=                           0.021589 (Hartree/Particle)
 Thermal correction to Energy=                    0.026439
 Thermal correction to Enthalpy=                  0.027383
 Thermal correction to Gibbs Free Energy=        -0.006872
 Sum of electronic and zero-point Energies=           -244.452141
 Sum of electronic and thermal Energies=              -244.447291
 Sum of electronic and thermal Enthalpies=            -244.446347
 Sum of electronic and thermal Free Energies=         -244.480603

                     E (Thermal)             CV                S
                      KCal/Mol        Cal/Mol-Kelvin    Cal/Mol-Kelvin
 Total                   16.591             15.572             72.097
 Electronic               0.000              0.000              2.183
 Translational            0.889              2.981             38.821
 Rotational               0.889              2.981             24.280
 Vibrational             14.813              9.610              6.813
 Vibration     1          0.630              1.863              2.298
 Vibration     2          0.670              1.740              1.640
 Vibration     3          0.699              1.655              1.362
 Vibration     4          0.847              1.269              0.679

 Optimization completed.
    -- Stationary point found.
 Normal termination of Gaussian 09 at Tue Aug 16 18:38:58 2016.
