 Gaussian 09, Revision E.01,
 Gaussian 09:  EM64L-G09RevE.01 30-Nov-2015

 ---------------------------------------------
 #p b3lyp/6-311++G(3df,2p) freq symmetry=Loose
 ---------------------------------------------

 ---------
 b3lyp opt
 ---------
 Symbolic Z-matrix:
 Charge =  0 Multiplicity = 2

                         Standard orientation:
 ---------------------------------------------------------------------
 Center     Atomic      Atomic             Coordinates (Angstroms)
 Number     Number       Type             X           Y           Z
 ---------------------------------------------------------------------
      1          6           0        0.000000   -0.000000   -2.336422
      2          6           0       -0.000000   -0.755457   -1.108068
      3          6           0        0.000000    0.755457   -1.108068
      4          6           0       -0.000000    0.000000    1.443108
      5          6           0       -0.000000    0.000000    0.072658
      6          7           0       -0.000000    0.000000    2.602965
 ---------------------------------------------------------------------

 SCF Done:  E(UB3LYP) =  -245.041483155     A.U. after   15 cycles

 The electronic state is 2-B1.
 Alpha  occ. eigenvalues --  -14.38481 -10.33132 -10.32024 -10.31998 -10.27586
 Alpha  occ. eigenvalues --  -10.27174  -1.06357  -0.97524  -0.82556  -0.69627
 Alpha  occ. eigenvalues --   -0.60645  -0.51498  -0.47373  -0.43282  -0.42193
 Alpha  occ. eigenvalues --   -0.39604  -0.38204  -0.30647  -0.28656
 Alpha virt. eigenvalues --   -0.12288  -0.10017  -0.06199  -0.01391  -0.00419
 Alpha virt. eigenvalues --    0.03006   0.03522   0.04478   0.05321   0.06217
 Alpha virt. eigenvalues --    0.06458   0.07320   0.08010   0.08960   0.09378

  Beta  occ. eigenvalues --  -14.37860 -10.32258 -10.32106 -10.32088 -10.27835
  Beta  occ. eigenvalues --  -10.26591  -1.05609  -0.96536  -0.80616  -0.68777
  Beta  occ. eigenvalues --   -0.60473  -0.48717  -0.46897  -0.42370  -0.40034
  Beta  occ. eigenvalues --   -0.39249  -0.38061  -0.29836
  Beta virt. eigenvalues --   -0.18382  -0.12480  -0.09556  -0.03109  -0.01270
  Beta virt. eigenvalues --   -0.00331   0.03287   0.03603   0.04475   0.05545
  Beta virt. eigenvalues --    0.06235   0.06566   0.08031   0.09060   0.09347

 Mulliken charges and spin densities:
               1          2
     1  C   -0.869415   0.376053
     2  C    0.712494  -0.020630
     3  C    0.712494  -0.020630
     4  C   -0.479026  -0.213143
     5  C    0.852296   0.575985
     6  N   -0.928844   0.302366
 Sum of Mulliken charges =  -0.00000   1.00000

 Dipole moment (field-independent basis, Debye):
    X=              0.0000    Y=             -0.0000    Z=              0.4045  Tot=              0.4045
 Quadrupole moment (field-independent basis, Debye-Ang):
   XX=            -32.0449   YY=            -33.9336   ZZ=            -49.9185
   XY=             -0.0000   XZ=             -0.0000   YZ=             -0.0000

  Exact polarizability:  35.445   0.000  46.486  -0.000  -0.000  98.269
 Approx polarizability:  54.242   0.000  95.970  -0.000   0.000 172.526

                      1                      2                      3
                     B1                     B2                     B1
 Frequencies --    125.1780               186.9264               404.9674
 Red. masses --     12.3533                12.5893                12.2397
 Frc consts  --      0.1140                 0.2592                 1.1827
 IR Inten    --     17.0918                10.5174                 0.0106

                      4                      5                      6
                     B2                     B1                     B2
 Frequencies --    451.3278               468.1229               646.5410
 Red. masses --     12.0840                12.0561                12.0295
 Frc consts  --      1.4503                 1.5566                 2.9627
 IR Inten    --     36.8673                11.2700                33.7322

                      7                      8                      9
                     A1                     B2                     A1
 Frequencies --    650.7667               799.5140              1015.6403
 Red. masses --     12.5986                12.0049                12.0885
 Frc consts  --      3.1436                 4.5213                 7.3469
 IR Inten    --      1.9065                 6.0205                 1.3417

                     10                     11                     12
                     A1                     A1                     A1
 Frequencies --   1275.0419              1566.2695              2221.4688
 Red. masses --     12.0078                12.1087                12.6516
 Frc consts  --     11.5018                17.5017                36.7855
 IR Inten    --     40.1815                 2.2876                 1.2578

 - Thermochemistry -
 -------------------
 Temperature   298.150 Kelvin.  Pressure   1.00000 Atm.
 Atom     1 has atomic number  6 and mass  12.00000

 Molecular mass:    74.00307 amu.
 Principal axes and moments of inertia in atomic units:
                           1         2         3
     Eigenvalues --    48.91343 767.43910 816.35253
           X           -0.00000   0.00000   1.00000
           Y            0.00000   1.00000  -0.00000
           Z            1.00000  -0.00000   0.00000
 This molecule is an asymmetric top.
 Rotational symmetry number  2.
 Rotational temperatures (Kelvin)      1.77076     0.11286     0.10610
 Rotational constants (GHZ):          36.89664     2.35164     2.21074
 Zero-point vibrational energy      58687.4 (Joules/Mol)
                                   14.02662 (Kcal/Mol)
 Warning -- explicit consideration of   5 degrees of freedom as
           vibrations may cause significant error
 Vibrational temperatures:    180.10   268.95   582.66   649.36   673.52
          (Kelvin)            930.23   936.31  1150.32  1461.28  1834.50
                             2253.51  3196.19

 Zero-point correction=                           0.022353 (Hartree/Particle)
 Thermal correction to Energy=                    0.027670
 Thermal correction to Enthalpy=                  0.028614
 Thermal correction to Gibbs Free Energy=        -0.005875
 Sum of electronic and zero-point Energies=           -245.019130
 Sum of electronic and thermal Energies=              -245.013813
 Sum of electronic and thermal Enthalpies=            -245.012869
 Sum of electronic and thermal Free Energies=         -245.047358

                     E (Thermal)             CV                S
                      KCal/Mol        Cal/Mol-Kelvin    Cal/Mol-Kelvin
 Total                   17.363             16.984             72.589
 Electronic               0.000              0.000              1.377
 Translational            0.889              2.981             38.821
 Rotational               0.889              2.981             23.553
 Vibrational             15.586             11.022              8.838
 Vibration     1          0.610              1.928              3.019
 Vibration     2          0.632              1.858              2.258
 Vibration     3          0.770              1.459              0.945
 Vibration     4          0.810              1.358              0.792
 Vibration     5          0.825              1.321              0.743

 Optimization completed.
    -- Stationary point found.
 Normal termination of Gaussian 09 at Tue Aug 16 18:14:48 2016.
