 Gaussian 09, Revision E.01,
 Gaussian 09:  EM64L-G09RevE.01 30-Nov-2015

 ---------------------------------------------
 #p b3lyp/6-311++G(3df,2p) freq symmetry=Loose
 ---------------------------------------------

 ---------
 b3lyp opt
 ---------
 Symbolic Z-matrix:
 Charge =  0 Multiplicity = 2

                         Standard orientation:
 ---------------------------------------------------------------------
 Center     Atomic      Atomic             Coordinates (Angstroms)
 Number     Number       Type             X           Y           Z
 ---------------------------------------------------------------------
      1          7           0        0.001384   -0.398884    0.000000
      2          6           0        0.003014   -2.937467    0.000000
      3          6           0        0.653469    2.112685   -0.000000
      4          6           0       -0.660183    2.110751   -0.000000
      5          6           0        0.002085   -1.642560    0.000000
      6          6           0       -0.000000    0.821956   -0.000000
 ---------------------------------------------------------------------

 SCF Done:  E(UB3LYP) =  -244.968732628     A.U. after   17 cycles

 The electronic state is 2-A".
 Alpha  occ. eigenvalues --  -14.46883 -10.36584 -10.29275 -10.26435 -10.26332
 Alpha  occ. eigenvalues --  -10.26182  -1.07939  -0.97379  -0.85601  -0.76338
 Alpha  occ. eigenvalues --   -0.56234  -0.53766  -0.50636  -0.44936  -0.41586
 Alpha  occ. eigenvalues --   -0.33924  -0.32002  -0.31401  -0.30638
 Alpha virt. eigenvalues --   -0.17145  -0.08863  -0.04006  -0.00942   0.01712
 Alpha virt. eigenvalues --    0.02979   0.03073   0.03076   0.04932   0.05007
 Alpha virt. eigenvalues --    0.06814   0.06955   0.07149   0.08097   0.10584

  Beta  occ. eigenvalues --  -14.46484 -10.36676 -10.28932 -10.26363 -10.26262
  Beta  occ. eigenvalues --  -10.25429  -1.07090  -0.97038  -0.84301  -0.74042
  Beta  occ. eigenvalues --   -0.56130  -0.51773  -0.50621  -0.44504  -0.39161
  Beta  occ. eigenvalues --   -0.32461  -0.32057  -0.29845
  Beta virt. eigenvalues --   -0.21828  -0.16926  -0.06324  -0.03273  -0.00805
  Beta virt. eigenvalues --    0.02198   0.03011   0.03214   0.03248   0.05154
  Beta virt. eigenvalues --    0.06861   0.07081   0.07203   0.07406   0.08164

 Mulliken charges and spin densities:
               1          2
     1  N   -1.028316   0.168002
     2  C   -0.724193   0.508608
     3  C   -0.084263   0.074642
     4  C   -0.085906   0.075120
     5  C    1.089855   0.265541
     6  C    0.832822  -0.091913
 Sum of Mulliken charges =  -0.00000   1.00000

 Dipole moment (field-independent basis, Debye):
    X=              0.0045    Y=              1.3077    Z=             -0.0000  Tot=              1.3077
 Quadrupole moment (field-independent basis, Debye-Ang):
   XX=            -36.7742   YY=            -47.6174   ZZ=            -32.2739
   XY=              0.0170   XZ=             -0.0000   YZ=              0.0000

  Exact polarizability:  49.587  -0.122 165.843  -0.000  -0.000  40.283
 Approx polarizability:  83.056  -0.290 463.053   0.000  -0.000  57.123

                      1                      2                      3
                     A'                     A"                     A"
 Frequencies --     40.8006               101.8507               250.1935
 Red. masses --     12.4971                12.7794                12.3203
 Frc consts  --      0.0123                 0.0781                 0.4544
 IR Inten    --     33.2805                13.1467                22.9932

                      4                      5                      6
                     A'                     A'                     A"
 Frequencies --    251.4980               439.5960               493.4065
 Red. masses --     12.0736                12.5576                12.3423
 Frc consts  --      0.4499                 1.4298                 1.7703
 IR Inten    --     12.7264                24.2654                10.3140

                      7                      8                      9
                     A'                     A'                     A'
 Frequencies --    497.0969               657.2761              1167.7714
 Red. masses --     12.3013                12.0324                12.2530
 Frc consts  --      1.7909                 3.0627                 9.8448
 IR Inten    --      4.0864                 1.2684                13.8193

                     10                     11                     12
                     A'                     A'                     A'
 Frequencies --   1512.2314              1832.9588              2014.1713
 Red. masses --     12.2329                12.2516                12.6724
 Frc consts  --     16.4822                24.2521                30.2901
 IR Inten    --     12.5402               309.3957               173.6978

 - Thermochemistry -
 -------------------
 Temperature   298.150 Kelvin.  Pressure   1.00000 Atm.
 Atom     1 has atomic number  7 and mass  14.00307

 Molecular mass:    74.00307 amu.
 Principal axes and moments of inertia in atomic units:
                           1         2         3
     Eigenvalues --    36.97531 904.48244 941.45775
           X           -0.00128   1.00000  -0.00000
           Y            1.00000   0.00128   0.00000
           Z           -0.00000   0.00000   1.00000
 This molecule is an asymmetric top.
 Rotational symmetry number  1.
 Rotational temperatures (Kelvin)      2.34248     0.09576     0.09200
 Rotational constants (GHZ):          48.80936     1.99533     1.91696
 Zero-point vibrational energy      55380.2 (Joules/Mol)
                                   13.23619 (Kcal/Mol)
 Warning -- explicit consideration of   7 degrees of freedom as
           vibrations may cause significant error
 Vibrational temperatures:     58.70   146.54   359.97   361.85   632.48
          (Kelvin)            709.90   715.21   945.67  1680.16  2175.76
                             2637.22  2897.94

 Zero-point correction=                           0.021093 (Hartree/Particle)
 Thermal correction to Energy=                    0.027366
 Thermal correction to Enthalpy=                  0.028311
 Thermal correction to Gibbs Free Energy=        -0.009622
 Sum of electronic and zero-point Energies=           -244.947639
 Sum of electronic and thermal Energies=              -244.941366
 Sum of electronic and thermal Enthalpies=            -244.940422
 Sum of electronic and thermal Free Energies=         -244.978354

                     E (Thermal)             CV                S
                      KCal/Mol        Cal/Mol-Kelvin    Cal/Mol-Kelvin
 Total                   17.173             18.563             79.835
 Electronic               0.000              0.000              1.377
 Translational            0.889              2.981             38.821
 Rotational               0.889              2.981             24.958
 Vibrational             15.395             12.602             14.679
 Vibration     1          0.594              1.981              5.220
 Vibration     2          0.604              1.948              3.419
 Vibration     3          0.663              1.762              1.729
 Vibration     4          0.663              1.760              1.720
 Vibration     5          0.800              1.384              0.828
 Vibration     6          0.849              1.265              0.675
 Vibration     7          0.853              1.256              0.665

 Optimization completed.
    -- Stationary point found.
 Normal termination of Gaussian 09 at Tue Aug 16 18:39:50 2016.
