 Gaussian 09, Revision E.01,
 Gaussian 09:  EM64L-G09RevE.01 30-Nov-2015

 ---------------------------------------------
 #p b3lyp/6-311++G(3df,2p) freq symmetry=Loose
 ---------------------------------------------

 ---------
 b3lyp opt
 ---------
 Symbolic Z-matrix:
 Charge =  1 Multiplicity = 1

                         Standard orientation:
 ---------------------------------------------------------------------
 Center     Atomic      Atomic             Coordinates (Angstroms)
 Number     Number       Type             X           Y           Z
 ---------------------------------------------------------------------
      1          6           0        0.002133    1.033452   -0.788260
      2          6           0       -0.011428   -2.599803   -0.000000
      3          6           0        0.001821    2.274271    0.000000
      4          6           0        0.002133   -0.111058   -0.000000
      5          6           0        0.002133    1.033452    0.788260
      6          7           0        0.002749   -1.397384   -0.000000
 ---------------------------------------------------------------------

 SCF Done:  E(RB3LYP) =  -244.654226555     A.U. after   12 cycles

 The electronic state is 1-A'.
 Alpha  occ. eigenvalues --  -14.65834 -10.63281 -10.56107 -10.56089 -10.54556
 Alpha  occ. eigenvalues --  -10.54219  -1.31573  -1.26299  -1.07336  -0.96202
 Alpha  occ. eigenvalues --   -0.86507  -0.75957  -0.72932  -0.65629  -0.63835
 Alpha  occ. eigenvalues --   -0.60801  -0.58409  -0.53619
 Alpha virt. eigenvalues --   -0.43213  -0.36091  -0.32950  -0.27791  -0.24732
 Alpha virt. eigenvalues --   -0.16491  -0.15782  -0.12400  -0.12125  -0.11834
 Alpha virt. eigenvalues --   -0.11452  -0.07429  -0.07190  -0.06123  -0.05601

 Mulliken charges:
               1
     1  C    0.552349
     2  C    0.311058
     3  C   -0.405715
     4  C    0.572176
     5  C    0.552349
     6  N   -0.582217
 Sum of Mulliken charges =   1.00000

 Dipole moment (field-independent basis, Debye):
    X=              0.0067    Y=             -0.4377    Z=              0.0000  Tot=              0.4377
 Quadrupole moment (field-independent basis, Debye-Ang):
   XX=            -28.1527   YY=            -26.1029   ZZ=            -30.0620
   XY=             -0.0082   XZ=             -0.0000   YZ=              0.0000

  Exact polarizability:  30.919   0.094  85.504   0.000  -0.000  42.754
 Approx polarizability:  50.462   0.180 153.631  -0.000  -0.000  97.130

                      1                      2                      3
                     A'                     A"                     A'
 Frequencies --    121.6513               135.7490               215.7127
 Red. masses --     12.3501                12.5106                12.6638
 Frc consts  --      0.1077                 0.1358                 0.3472
 IR Inten    --      9.1411                 1.3106                11.4554

                      4                      5                      6
                     A"                     A'                     A'
 Frequencies --    409.0796               591.1667               665.7118
 Red. masses --     12.5252                12.1861                12.2848
 Frc consts  --      1.2350                 2.5092                 3.2077
 IR Inten    --      2.8648                 3.7895                 1.3454

                      7                      8                      9
                     A"                     A'                     A"
 Frequencies --    689.8957               949.3175              1160.1979
 Red. masses --     12.1790                12.0866                12.0001
 Frc consts  --      3.4153                 6.4177                 9.5170
 IR Inten    --     83.8986                 0.0323                 1.9405

                     10                     11                     12
                     A'                     A'                     A'
 Frequencies --   1234.5337              1656.9140              2093.8045
 Red. masses --     12.0001                12.0167                13.1040
 Frc consts  --     10.7756                19.4373                33.8474
 IR Inten    --    462.9347               163.1469              1620.6989

 - Thermochemistry -
 -------------------
 Temperature   298.150 Kelvin.  Pressure   1.00000 Atm.
 Atom     1 has atomic number  6 and mass  12.00000

 Molecular mass:    74.00307 amu.
 Principal axes and moments of inertia in atomic units:
                           1         2         3
     Eigenvalues --    53.25717 701.00484 754.25450
           X            0.00205   0.00000   1.00000
           Y            1.00000   0.00000  -0.00205
           Z            0.00000   1.00000   0.00000
 This molecule is an asymmetric top.
 Rotational symmetry number  1.
 Rotational temperatures (Kelvin)      1.62633     0.12356     0.11483
 Rotational constants (GHZ):          33.88729     2.57451     2.39275
 Zero-point vibrational energy      59357.1 (Joules/Mol)
                                   14.18669 (Kcal/Mol)
 Warning -- explicit consideration of   5 degrees of freedom as
           vibrations may cause significant error
 Vibrational temperatures:    175.03   195.31   310.36   588.57   850.56
          (Kelvin)            957.81   992.60  1365.85  1669.26  1776.22
                             2383.93  3012.51

 Zero-point correction=                           0.022608 (Hartree/Particle)
 Thermal correction to Energy=                    0.028131
 Thermal correction to Enthalpy=                  0.029075
 Thermal correction to Gibbs Free Energy=        -0.006022
 Sum of electronic and zero-point Energies=           -244.631619
 Sum of electronic and thermal Energies=              -244.626096
 Sum of electronic and thermal Enthalpies=            -244.625151
 Sum of electronic and thermal Free Energies=         -244.660248

                     E (Thermal)             CV                S
                      KCal/Mol        Cal/Mol-Kelvin    Cal/Mol-Kelvin
 Total                   17.652             16.776             73.868
 Electronic               0.000              0.000              0.000
 Translational            0.889              2.981             38.821
 Rotational               0.889              2.981             24.847
 Vibrational             15.875             10.815             10.201
 Vibration     1          0.609              1.931              3.074
 Vibration     2          0.614              1.918              2.863
 Vibration     3          0.645              1.817              1.995
 Vibration     4          0.773              1.451              0.930
 Vibration     5          0.949              1.051              0.465

 Normal termination of Gaussian 09 at Tue Aug 16 18:15:32 2016.
