 Gaussian 09, Revision E.01,
 Gaussian 09:  EM64L-G09RevE.01 30-Nov-2015

 ---------------------------------------------
 #p b3lyp/6-311++G(3df,2p) freq symmetry=Loose
 ---------------------------------------------

 ---------
 b3lyp opt
 ---------
 Symbolic Z-matrix:
 Charge =  1 Multiplicity = 3

                         Standard orientation:
 ---------------------------------------------------------------------
 Center     Atomic      Atomic             Coordinates (Angstroms)
 Number     Number       Type             X           Y           Z
 ---------------------------------------------------------------------
      1          7           0       -0.605729   -1.394252    0.000000
      2          6           0       -0.056686    2.214147   -0.000000
      3          6           0        0.707453   -1.297224    0.000000
      4          6           0        0.000000    0.870524   -0.000000
      5          6           0        1.135967    0.034323    0.000000
      6          6           0       -1.080051   -0.195142   -0.000000
 ---------------------------------------------------------------------

 SCF Done:  E(UB3LYP) =  -244.533875054     A.U. after   25 cycles

 The electronic state is 3-A".
 Alpha  occ. eigenvalues --  -14.62738 -10.57458 -10.56867 -10.56079 -10.55564
 Alpha  occ. eigenvalues --  -10.48965  -1.30879  -1.11457  -1.03798  -0.94801
 Alpha  occ. eigenvalues --   -0.82780  -0.81323  -0.73428  -0.68211  -0.59608
 Alpha  occ. eigenvalues --   -0.57641  -0.57019  -0.55510  -0.55380
 Alpha virt. eigenvalues --   -0.40866  -0.38350  -0.37374  -0.24683  -0.19264
 Alpha virt. eigenvalues --   -0.15078  -0.10896  -0.10579  -0.09897  -0.08543
 Alpha virt. eigenvalues --   -0.07670  -0.06514  -0.06160  -0.05626  -0.04595

  Beta  occ. eigenvalues --  -14.62686 -10.58254 -10.55577 -10.54775 -10.53561
  Beta  occ. eigenvalues --  -10.49119  -1.29472  -1.10215  -1.00371  -0.93949
  Beta  occ. eigenvalues --   -0.81407  -0.79336  -0.70118  -0.66067  -0.58525
  Beta  occ. eigenvalues --   -0.57128  -0.54164
  Beta virt. eigenvalues --   -0.44343  -0.40933  -0.39326  -0.36009  -0.35654
  Beta virt. eigenvalues --   -0.20416  -0.16865  -0.14804  -0.10416  -0.10184
  Beta virt. eigenvalues --   -0.09507  -0.08419  -0.07294  -0.06380  -0.05707

 Mulliken charges and spin densities:
               1          2
     1  N   -0.565293  -0.003358
     2  C   -0.536210   0.045862
     3  C    0.144182   1.256210
     4  C    0.980817  -0.068736
     5  C    0.647064   1.184040
     6  C    0.329439  -0.414017
 Sum of Mulliken charges =   1.00000   2.00000

 Dipole moment (field-independent basis, Debye):
    X=              0.8462    Y=              0.4170    Z=             -0.0000  Tot=              0.9434
 Quadrupole moment (field-independent basis, Debye-Ang):
   XX=            -25.2579   YY=            -26.6840   ZZ=            -29.6711
   XY=             -1.9957   XZ=             -0.0000   YZ=              0.0000

  Exact polarizability:  49.487  -0.244  77.484  -0.000   0.000  30.611
 Approx polarizability: 100.404  -3.280 176.996   0.000  -0.000  46.799

                      1                      2                      3
                     A"                     A'                     A"
 Frequencies --     75.9186               189.6103               328.1814
 Red. masses --     12.4237                12.0803                12.2834
 Frc consts  --      0.0422                 0.2559                 0.7795
 IR Inten    --      2.5534                13.0794                 0.0054

                      4                      5                      6
                     A'                     A"                     A'
 Frequencies --    470.3676               576.0458               608.8728
 Red. masses --     12.8201                12.1054                12.0976
 Frc consts  --      1.6711                 2.3667                 2.6424
 IR Inten    --      8.1260                 0.9136                12.6762

                      7                      8                      9
                     A'                     A'                     A'
 Frequencies --    680.5848              1014.0612              1132.6882
 Red. masses --     12.0617                12.1088                12.7846
 Frc consts  --      3.2917                 7.3364                 9.6640
 IR Inten    --     11.1670                 1.1796                66.6665

                     10                     11                     12
                     A'                     A'                     A'
 Frequencies --   1350.8532              1418.8337              1617.8178
 Red. masses --     12.4131                12.1812                12.0008
 Frc consts  --     13.3458                14.4478                18.5063
 IR Inten    --     33.6171                16.8787               555.7501

 - Thermochemistry -
 -------------------
 Temperature   298.150 Kelvin.  Pressure   1.00000 Atm.
 Atom     1 has atomic number  7 and mass  14.00307

 Molecular mass:    74.00307 amu.
 Principal axes and moments of inertia in atomic units:
                           1         2         3
     Eigenvalues --   144.96692 413.81286 558.77978
           X            0.03062   0.99953   0.00000
           Y            0.99953  -0.03062   0.00000
           Z            0.00000   0.00000   1.00000
 This molecule is an asymmetric top.
 Rotational symmetry number  1.
 Rotational temperatures (Kelvin)      0.59747     0.20931     0.15501
 Rotational constants (GHZ):          12.44933     4.36125     3.22979
 Zero-point vibrational energy      56606.3 (Joules/Mol)
                                   13.52923 (Kcal/Mol)
 Warning -- explicit consideration of   6 degrees of freedom as
           vibrations may cause significant error
 Vibrational temperatures:    109.23   272.81   472.18   676.75   828.80
          (Kelvin)            876.03   979.21  1459.01  1629.68  1943.57
                             2041.38  2327.68

 Zero-point correction=                           0.021560 (Hartree/Particle)
 Thermal correction to Energy=                    0.026910
 Thermal correction to Enthalpy=                  0.027854
 Thermal correction to Gibbs Free Energy=        -0.008114
 Sum of electronic and zero-point Energies=           -244.512315
 Sum of electronic and thermal Energies=              -244.506965
 Sum of electronic and thermal Enthalpies=            -244.506021
 Sum of electronic and thermal Free Energies=         -244.541989

                     E (Thermal)             CV                S
                      KCal/Mol        Cal/Mol-Kelvin    Cal/Mol-Kelvin
 Total                   16.886             16.568             75.701
 Electronic               0.000              0.000              2.183
 Translational            0.889              2.981             38.821
 Rotational               0.889              2.981             25.020
 Vibrational             15.109             10.606              9.677
 Vibration     1          0.599              1.965              3.994
 Vibration     2          0.633              1.854              2.232
 Vibration     3          0.711              1.619              1.269
 Vibration     4          0.827              1.316              0.737
 Vibration     5          0.932              1.083              0.493
 Vibration     6          0.968              1.013              0.435

 Normal termination of Gaussian 09 at Tue Aug 16 18:45:42 2016.
