 Gaussian 09, Revision E.01,
 Gaussian 09:  EM64L-G09RevE.01 30-Nov-2015

 ---------------------------------------------
 #p b3lyp/6-311++G(3df,2p) freq symmetry=Loose
 ---------------------------------------------

 ---------
 b3lyp opt
 ---------
 Symbolic Z-matrix:
 Charge =  0 Multiplicity = 2

                         Standard orientation:
 ---------------------------------------------------------------------
 Center     Atomic      Atomic             Coordinates (Angstroms)
 Number     Number       Type             X           Y           Z
 ---------------------------------------------------------------------
      1          6           0        0.486134   -1.052931    0.000000
      2          6           0       -0.085039    2.129330   -0.000000
      3          6           0       -0.784552   -1.581063   -0.000000
      4          6           0        0.000000    0.821111   -0.000000
      5          6           0       -1.031265   -0.290127   -0.000000
      6          7           0        1.212618   -0.022561    0.000000
 ---------------------------------------------------------------------

 SCF Done:  E(UB3LYP) =  -244.925137585     A.U. after   21 cycles

 The electronic state is 2-A'.
 Alpha  occ. eigenvalues --  -14.40056 -10.34120 -10.30873 -10.28745 -10.28647
 Alpha  occ. eigenvalues --  -10.26745  -1.07798  -0.90642  -0.82696  -0.66569
 Alpha  occ. eigenvalues --   -0.58053  -0.55676  -0.50285  -0.44825  -0.36821
 Alpha  occ. eigenvalues --   -0.34490  -0.34437  -0.32659  -0.27988
 Alpha virt. eigenvalues --   -0.17569  -0.12062  -0.09967  -0.00206   0.00814
 Alpha virt. eigenvalues --    0.02561   0.03504   0.04246   0.04563   0.05960
 Alpha virt. eigenvalues --    0.06730   0.07381   0.08763   0.09584   0.09670

  Beta  occ. eigenvalues --  -14.40038 -10.33651 -10.30083 -10.28574 -10.28369
  Beta  occ. eigenvalues --  -10.26184  -1.07754  -0.90444  -0.81606  -0.65235
  Beta  occ. eigenvalues --   -0.57105  -0.54286  -0.49946  -0.43050  -0.35027
  Beta  occ. eigenvalues --   -0.34087  -0.33103  -0.32181
  Beta virt. eigenvalues --   -0.18720  -0.14292  -0.11194  -0.07002   0.00446
  Beta virt. eigenvalues --    0.00972   0.03201   0.03736   0.04602   0.04633
  Beta virt. eigenvalues --    0.06002   0.06999   0.07523   0.08827   0.09732

 Mulliken charges and spin densities:
               1          2
     1  C    0.788237   0.237891
     2  C   -0.651528   0.225760
     3  C   -0.404289   0.165278
     4  C    0.834700   0.047401
     5  C    0.210268   0.368354
     6  N   -0.777388  -0.044683
 Sum of Mulliken charges =  -0.00000   1.00000

 Dipole moment (field-independent basis, Debye):
    X=             -0.2692    Y=             -1.0013    Z=              0.0000  Tot=              1.0369
 Quadrupole moment (field-independent basis, Debye-Ang):
   XX=            -35.2143   YY=            -39.9116   ZZ=            -33.9195
   XY=             -2.3785   XZ=             -0.0000   YZ=             -0.0000

  Exact polarizability:  58.934   8.882 103.553  -0.000  -0.000  36.063
 Approx polarizability: 121.431  19.086 239.204   0.000   0.000  54.163

                      1                      2                      3
                     A'                     A"                     A'
 Frequencies --    176.3037               187.1712               359.1414
 Red. masses --     12.1450                12.0641                12.0876
 Frc consts  --      0.2224                 0.2490                 0.9186
 IR Inten    --     42.1144                 1.9297                20.2072

                      4                      5                      6
                     A"                     A"                     A'
 Frequencies --    455.6662               580.9931               642.6930
 Red. masses --     12.1015                12.4117                12.0806
 Frc consts  --      1.4804                 2.4684                 2.9400
 IR Inten    --      2.4118                 2.9723                14.1721

                      7                      8                      9
                     A'                     A'                     A'
 Frequencies --    705.4138               783.1269              1001.6459
 Red. masses --     12.4445                12.9170                12.3855
 Frc consts  --      3.6485                 4.6674                 7.3214
 IR Inten    --     25.0019                34.6344                 8.3421

                     10                     11                     12
                     A'                     A'                     A'
 Frequencies --   1448.0144              1640.0417              1716.9091
 Red. masses --     12.2643                12.1249                12.2055
 Frc consts  --     15.1509                19.2149                21.1983
 IR Inten    --    212.6671                73.7788               504.5950

 - Thermochemistry -
 -------------------
 Temperature   298.150 Kelvin.  Pressure   1.00000 Atm.
 Atom     1 has atomic number  6 and mass  12.00000

 Molecular mass:    74.00307 amu.
 Principal axes and moments of inertia in atomic units:
                           1         2         3
     Eigenvalues --   150.63755 386.73379 537.37134
           X            0.14957   0.98875   0.00000
           Y            0.98875  -0.14957   0.00000
           Z           -0.00000   0.00000   1.00000
 This molecule is an asymmetric top.
 Rotational symmetry number  1.
 Rotational temperatures (Kelvin)      0.57498     0.22396     0.16118
 Rotational constants (GHZ):          11.98069     4.66662     3.35846
 Zero-point vibrational energy      58001.7 (Joules/Mol)
                                   13.86273 (Kcal/Mol)
 Warning -- explicit consideration of   5 degrees of freedom as
           vibrations may cause significant error
 Vibrational temperatures:    253.66   269.30   516.72   655.60   835.92
          (Kelvin)            924.69  1014.93  1126.74  1441.14  2083.37
                             2359.65  2470.25

 Zero-point correction=                           0.022092 (Hartree/Particle)
 Thermal correction to Energy=                    0.027264
 Thermal correction to Enthalpy=                  0.028209
 Thermal correction to Gibbs Free Energy=        -0.006563
 Sum of electronic and zero-point Energies=           -244.903046
 Sum of electronic and thermal Energies=              -244.897873
 Sum of electronic and thermal Enthalpies=            -244.896929
 Sum of electronic and thermal Free Energies=         -244.931700

                     E (Thermal)             CV                S
                      KCal/Mol        Cal/Mol-Kelvin    Cal/Mol-Kelvin
 Total                   17.109             16.654             73.183
 Electronic               0.000              0.000              1.377
 Translational            0.889              2.981             38.821
 Rotational               0.889              2.981             24.952
 Vibrational             15.331             10.692              8.033
 Vibration     1          0.628              1.872              2.367
 Vibration     2          0.632              1.857              2.256
 Vibration     3          0.734              1.556              1.126
 Vibration     4          0.814              1.348              0.779
 Vibration     5          0.938              1.072              0.484

 Optimization completed.
    -- Stationary point found.
 Normal termination of Gaussian 09 at Tue Aug 16 18:51:08 2016.
