 Gaussian 09, Revision E.01,
 Gaussian 09:  EM64L-G09RevE.01 30-Nov-2015

 ---------------------------------------------
 #p b3lyp/6-311++G(3df,2p) freq symmetry=Loose
 ---------------------------------------------

 ---------
 b3lyp opt
 ---------
 Symbolic Z-matrix:
 Charge =  0 Multiplicity = 4

                         Standard orientation:
 ---------------------------------------------------------------------
 Center     Atomic      Atomic             Coordinates (Angstroms)
 Number     Number       Type             X           Y           Z
 ---------------------------------------------------------------------
      1          7           0       -0.301437   -1.415691   -0.000000
      2          6           0       -0.811008   -0.047758    0.000000
      3          6           0       -0.301437    1.079394    0.744680
      4          6           0        0.877542   -0.989371   -0.000000
      5          6           0        0.888018    0.529980   -0.000000
      6          6           0       -0.301437    1.079394   -0.744680
 ---------------------------------------------------------------------

 SCF Done:  E(UB3LYP) =  -244.844948597     A.U. after   17 cycles

 The electronic state is 4-A".
 Alpha  occ. eigenvalues --  -14.39794 -10.33178 -10.30439 -10.29992 -10.27027
 Alpha  occ. eigenvalues --  -10.26998  -1.10302  -0.97681  -0.72441  -0.63270
 Alpha  occ. eigenvalues --   -0.61220  -0.58134  -0.48675  -0.41813  -0.41392
 Alpha  occ. eigenvalues --   -0.36046  -0.33920  -0.31830  -0.30245  -0.27774
 Alpha virt. eigenvalues --   -0.11900  -0.07434   0.01757   0.02705   0.03265
 Alpha virt. eigenvalues --    0.03455   0.05383   0.06520   0.07159   0.07935
 Alpha virt. eigenvalues --    0.08482   0.08983   0.11464   0.12028   0.12170

  Beta  occ. eigenvalues --  -14.39342 -10.32591 -10.28998 -10.28571 -10.25682
  Beta  occ. eigenvalues --  -10.25653  -1.09121  -0.96372  -0.69624  -0.60910
  Beta  occ. eigenvalues --   -0.58057  -0.55446  -0.43850  -0.38861  -0.36552
  Beta  occ. eigenvalues --   -0.33917  -0.30313
  Beta virt. eigenvalues --   -0.19423  -0.15148  -0.14235  -0.08382  -0.05139
  Beta virt. eigenvalues --    0.02226   0.03146   0.03836   0.04275   0.05762
  Beta virt. eigenvalues --    0.06867   0.07971   0.08326   0.08594   0.10753

 Mulliken charges and spin densities:
               1          2
     1  N   -0.704967   0.060281
     2  C    0.517564   0.107586
     3  C   -0.067045   0.745303
     4  C   -0.036798   0.849430
     5  C    0.358290   0.492096
     6  C   -0.067045   0.745303
 Sum of Mulliken charges =  -0.00000   3.00000

 Dipole moment (field-independent basis, Debye):
    X=              0.3019    Y=             -0.1036    Z=             -0.0000  Tot=              0.3192
 Quadrupole moment (field-independent basis, Debye-Ang):
   XX=            -31.9006   YY=            -36.8178   ZZ=            -34.9801
   XY=             -0.9187   XZ=             -0.0000   YZ=              0.0000

  Exact polarizability:  52.174  -3.357  64.860  -0.000  -0.000  45.027
 Approx polarizability: 114.360   2.357 121.483   0.000   0.000  73.457

                      1                      2                      3
                     A"                     A"                     A'
 Frequencies --    433.0358               494.0870               525.4786
 Red. masses --     12.6430                12.0444                12.2495
 Frc consts  --      1.3968                 1.7324                 1.9929
 IR Inten    --      1.8813                 2.9195                23.7873

                      4                      5                      6
                     A'                     A'                     A'
 Frequencies --    651.5929               691.5758               720.6028
 Red. masses --     13.0664                12.0623                12.1280
 Frc consts  --      3.2686                 3.3991                 3.7105
 IR Inten    --     41.3878                 4.3934                 1.0360

                      7                      8                      9
                     A"                     A'                     A'
 Frequencies --    850.2363               901.9598              1011.2581
 Red. masses --     12.0550                12.0271                12.0979
 Frc consts  --      5.1345                 5.7648                 7.2892
 IR Inten    --      5.0555                12.4229                25.1854

                     10                     11                     12
                     A"                     A'                     A'
 Frequencies --   1054.4402              1347.9717              1622.9220
 Red. masses --     12.0207                12.0250                12.7712
 Frc consts  --      7.8745                12.8735                19.8189
 IR Inten    --      7.9188                 9.0459                34.0136

 - Thermochemistry -
 -------------------
 Temperature   298.150 Kelvin.  Pressure   1.00000 Atm.
 Atom     1 has atomic number  7 and mass  14.00307

 Molecular mass:    74.00307 amu.
 Principal axes and moments of inertia in atomic units:
                           1         2         3
     Eigenvalues --   151.63427 304.88787 361.46642
           X           -0.14458   0.98949   0.00000
           Y            0.98949   0.14458   0.00000
           Z           -0.00000  -0.00000   1.00000
 This molecule is an asymmetric top.
 Rotational symmetry number  1.
 Rotational temperatures (Kelvin)      0.57120     0.28408     0.23962
 Rotational constants (GHZ):          11.90193     5.91936     4.99283
 Zero-point vibrational energy      61638.6 (Joules/Mol)
                                   14.73197 (Kcal/Mol)
 Warning -- explicit consideration of   3 degrees of freedom as
           vibrations may cause significant error
 Vibrational temperatures:    623.04   710.88   756.05   937.50   995.02
          (Kelvin)           1036.79  1223.30  1297.72  1454.97  1517.10
                             1939.43  2335.02

 Zero-point correction=                           0.023477 (Hartree/Particle)
 Thermal correction to Energy=                    0.027573
 Thermal correction to Enthalpy=                  0.028517
 Thermal correction to Gibbs Free Energy=        -0.004501
 Sum of electronic and zero-point Energies=           -244.821472
 Sum of electronic and thermal Energies=              -244.817376
 Sum of electronic and thermal Enthalpies=            -244.816432
 Sum of electronic and thermal Free Energies=         -244.849450

                     E (Thermal)             CV                S
                      KCal/Mol        Cal/Mol-Kelvin    Cal/Mol-Kelvin
 Total                   17.302             14.307             69.493
 Electronic               0.000              0.000              2.755
 Translational            0.889              2.981             38.821
 Rotational               0.889              2.981             24.328
 Vibrational             15.525              8.345              3.589
 Vibration     1          0.794              1.398              0.849
 Vibration     2          0.850              1.263              0.673
 Vibration     3          0.880              1.194              0.597

 Optimization completed.
    -- Stationary point found.
 Normal termination of Gaussian 09 at Tue Aug 16 18:38:28 2016.
