 Gaussian 09, Revision E.01,
 Gaussian 09:  EM64L-G09RevE.01 30-Nov-2015

 ---------------------------------------------
 #p b3lyp/6-311++G(3df,2p) freq symmetry=Loose
 ---------------------------------------------

 ---------
 b3lyp opt
 ---------
 Symbolic Z-matrix:
 Charge =  1 Multiplicity = 3

                         Standard orientation:
 ---------------------------------------------------------------------
 Center     Atomic      Atomic             Coordinates (Angstroms)
 Number     Number       Type             X           Y           Z
 ---------------------------------------------------------------------
      1          6           0        0.654968    1.045093    0.000778
      2          6           0       -1.816899   -0.039229    0.000011
      3          6           0       -0.676182   -0.749264    0.000381
      4          6           0       -0.710072    0.742273   -0.000694
      5          6           0        0.765711   -1.037577   -0.000003
      6          7           0        1.527835    0.033175   -0.000405
 ---------------------------------------------------------------------

 SCF Done:  E(UB3LYP) =  -244.568860234     A.U. after   71 cycles

 The electronic state is 3-A.
 Alpha  occ. eigenvalues --  -14.63316 -10.58761 -10.57479 -10.57475 -10.57382
 Alpha  occ. eigenvalues --  -10.54432  -1.31886  -1.22534  -1.02628  -0.97654
 Alpha  occ. eigenvalues --   -0.86708  -0.75842  -0.75436  -0.73924  -0.63602
 Alpha  occ. eigenvalues --   -0.63566  -0.56424  -0.55742  -0.51331
 Alpha virt. eigenvalues --   -0.44348  -0.33811  -0.30352  -0.24521  -0.19662
 Alpha virt. eigenvalues --   -0.17503  -0.12271  -0.11473  -0.11036  -0.09169
 Alpha virt. eigenvalues --   -0.08594  -0.07805  -0.06407  -0.06324  -0.05973

  Beta  occ. eigenvalues --  -14.63468 -10.58100 -10.56898 -10.56736 -10.55233
  Beta  occ. eigenvalues --  -10.54496  -1.30636  -1.22121  -0.99140  -0.95946
  Beta  occ. eigenvalues --   -0.84948  -0.74702  -0.72580  -0.71143  -0.62619
  Beta  occ. eigenvalues --   -0.62381  -0.51324
  Beta virt. eigenvalues --   -0.45091  -0.43116  -0.38285  -0.32625  -0.25035
  Beta virt. eigenvalues --   -0.22632  -0.16980  -0.16721  -0.11490  -0.10763
  Beta virt. eigenvalues --   -0.10612  -0.08842  -0.07590  -0.07056  -0.06188

 Mulliken charges and spin densities:
               1          2
     1  C    0.341162   0.436576
     2  C    0.173627  -0.029352
     3  C    0.341372   0.213217
     4  C    0.393327   0.282016
     5  C    0.368776   1.288312
     6  N   -0.618264  -0.190767
 Sum of Mulliken charges =   1.00000   2.00000

 Dipole moment (field-independent basis, Debye):
    X=             -1.4359    Y=             -0.2092    Z=              0.0020  Tot=              1.4511
 Quadrupole moment (field-independent basis, Debye-Ang):
   XX=            -29.0460   YY=            -24.4614   ZZ=            -29.0642
   XY=             -0.0644   XZ=              0.0006   YZ=              0.0097

  Exact polarizability:  76.859   6.451  50.996   0.001  -0.125  26.506
 Approx polarizability: 287.057  84.836 149.938  -0.005  -0.039  44.285

                      1                      2                      3
                      A                      A                      A
 Frequencies --     98.5784               203.2474               594.1398
 Red. masses --     12.3228                12.3914                12.3537
 Frc consts  --      0.0706                 0.3016                 2.5694
 IR Inten    --    298.5417                18.4696                 8.1738

                      4                      5                      6
                      A                      A                      A
 Frequencies --    608.2376               622.3301               787.5607
 Red. masses --     12.1886                12.0756                12.0798
 Frc consts  --      2.6568                 2.7555                 4.4145
 IR Inten    --      4.1686                 0.0976                22.7235

                      7                      8                      9
                      A                      A                      A
 Frequencies --    819.7445               873.8115              1112.3220
 Red. masses --     12.0817                12.8616                12.3402
 Frc consts  --      4.7834                 5.7860                 8.9957
 IR Inten    --     25.6810                 2.8352                 8.0837

                     10                     11                     12
                      A                      A                      A
 Frequencies --   1216.2557              1331.3136              1592.8285
 Red. masses --     12.2161                12.3821                12.0001
 Frc consts  --     10.6471                12.9302                17.9380
 IR Inten    --     70.4686                26.9407                58.1661

 - Thermochemistry -
 -------------------
 Temperature   298.150 Kelvin.  Pressure   1.00000 Atm.
 Atom     1 has atomic number  6 and mass  12.00000

 Molecular mass:    74.00307 amu.
 Principal axes and moments of inertia in atomic units:
                           1         2         3
     Eigenvalues --   140.72748 342.89799 483.62535
           X            1.00000  -0.00000   0.00000
           Y            0.00000   1.00000   0.00000
           Z           -0.00000  -0.00000   1.00000
 This molecule is an asymmetric top.
 Rotational symmetry number  1.
 Rotational temperatures (Kelvin)      0.61547     0.25259     0.17909
 Rotational constants (GHZ):          12.82437     5.26320     3.73169
 Zero-point vibrational energy      58978.1 (Joules/Mol)
                                   14.09611 (Kcal/Mol)
 Warning -- explicit consideration of   4 degrees of freedom as
           vibrations may cause significant error
 Vibrational temperatures:    141.83   292.43   854.83   875.12   895.39
          (Kelvin)           1133.12  1179.43  1257.22  1600.38  1749.92
                             1915.46  2291.72

 Zero-point correction=                           0.022464 (Hartree/Particle)
 Thermal correction to Energy=                    0.027323
 Thermal correction to Enthalpy=                  0.028267
 Thermal correction to Gibbs Free Energy=        -0.006537
 Sum of electronic and zero-point Energies=           -244.546397
 Sum of electronic and thermal Energies=              -244.541537
 Sum of electronic and thermal Enthalpies=            -244.540593
 Sum of electronic and thermal Free Energies=         -244.575397

                     E (Thermal)             CV                S
                      KCal/Mol        Cal/Mol-Kelvin    Cal/Mol-Kelvin
 Total                   17.146             15.269             73.252
 Electronic               0.000              0.000              2.183
 Translational            0.889              2.981             38.821
 Rotational               0.889              2.981             24.660
 Vibrational             15.368              9.307              7.588
 Vibration     1          0.604              1.950              3.482
 Vibration     2          0.639              1.835              2.104
 Vibration     3          0.952              1.044              0.460
 Vibration     4          0.967              1.014              0.436

 Normal termination of Gaussian 09 at Tue Aug 16 19:18:37 2016.
