 Gaussian 09, Revision E.01,
 Gaussian 09:  EM64L-G09RevE.01 30-Nov-2015

 ---------------------------------------------
 #p b3lyp/6-311++G(3df,2p) freq symmetry=Loose
 ---------------------------------------------

 ---------
 b3lyp opt
 ---------
 Symbolic Z-matrix:
 Charge =  0 Multiplicity = 2

                         Standard orientation:
 ---------------------------------------------------------------------
 Center     Atomic      Atomic             Coordinates (Angstroms)
 Number     Number       Type             X           Y           Z
 ---------------------------------------------------------------------
      1          6           0       -0.113730   -0.676068   -0.218342
      2          7           0        0.986126   -0.351457    0.729865
      3          6           0        0.427969    0.913683    0.081688
      4          6           0        1.127494   -0.101256   -0.752198
      5          6           0       -0.918774    0.673902    0.014708
      6          6           0       -1.673440   -0.400227    0.022634
 ---------------------------------------------------------------------

 SCF Done:  E(UB3LYP) =  -244.855895027     A.U. after   20 cycles

 The electronic state is 2-A.
 Alpha  occ. eigenvalues --  -14.42661 -10.34690 -10.32199 -10.30661 -10.29371
 Alpha  occ. eigenvalues --  -10.26777  -1.15989  -0.92722  -0.74896  -0.68681
 Alpha  occ. eigenvalues --   -0.62242  -0.53407  -0.47540  -0.42387  -0.39216
 Alpha  occ. eigenvalues --   -0.37631  -0.37257  -0.30507  -0.28947
 Alpha virt. eigenvalues --   -0.15996  -0.06453  -0.03790   0.00705   0.01917
 Alpha virt. eigenvalues --    0.03479   0.04055   0.05729   0.06149   0.06278
 Alpha virt. eigenvalues --    0.06904   0.07873   0.08145   0.08940   0.11192

  Beta  occ. eigenvalues --  -14.42261 -10.34574 -10.32043 -10.29593 -10.29300
  Beta  occ. eigenvalues --  -10.26522  -1.15308  -0.92176  -0.74417  -0.67373
  Beta  occ. eigenvalues --   -0.61246  -0.52653  -0.46057  -0.41045  -0.37462
  Beta  occ. eigenvalues --   -0.36783  -0.34197  -0.29926
  Beta virt. eigenvalues --   -0.18665  -0.15464  -0.05387  -0.03444   0.00927
  Beta virt. eigenvalues --    0.02363   0.03736   0.04195   0.05985   0.06394
  Beta virt. eigenvalues --    0.06942   0.07021   0.08105   0.08650   0.09374

 Mulliken charges and spin densities:
               1          2
     1  C    0.566839  -0.002163
     2  N   -0.534759   0.161293
     3  C    0.236609   0.046412
     4  C   -0.221998   0.566706
     5  C    0.338834   0.067316
     6  C   -0.385526   0.160437
 Sum of Mulliken charges =  -0.00000   1.00000

 Dipole moment (field-independent basis, Debye):
    X=              0.5631    Y=              1.4717    Z=             -0.3833  Tot=              1.6217
 Quadrupole moment (field-independent basis, Debye-Ang):
   XX=            -38.8087   YY=            -32.2853   ZZ=            -35.2943
   XY=             -2.5055   XZ=             -0.2335   YZ=              0.8533

  Exact polarizability:  73.770   4.334  48.769  -4.692   0.867  44.842
 Approx polarizability: 150.312  19.204 115.696  -9.653   5.444  79.884

                      1                      2                      3
                      A                      A                      A
 Frequencies --    296.8286               388.3758               500.9805
 Red. masses --     12.2868                12.0737                12.0557
 Frc consts  --      0.6378                 1.0730                 1.7827
 IR Inten    --      6.6299                21.1946                 1.1745

                      4                      5                      6
                      A                      A                      A
 Frequencies --    640.0633               677.5283               685.5311
 Red. masses --     12.1731                12.8444                12.4914
 Frc consts  --      2.9383                 3.4739                 3.4587
 IR Inten    --     27.5141                 1.3378                15.7574

                      7                      8                      9
                      A                      A                      A
 Frequencies --    723.7178               860.8329               953.6854
 Red. masses --     12.1941                12.7024                12.0011
 Frc consts  --      3.7630                 5.5459                 6.4311
 IR Inten    --     28.1764                38.8873                20.6603

                     10                     11                     12
                      A                      A                      A
 Frequencies --   1199.3565              1254.6917              1532.8454
 Red. masses --     12.3091                12.1107                12.0035
 Frc consts  --     10.4321                11.2329                16.6171
 IR Inten    --     24.9496                 8.2377                20.9242

 - Thermochemistry -
 -------------------
 Temperature   298.150 Kelvin.  Pressure   1.00000 Atm.
 Atom     1 has atomic number  6 and mass  12.00000

 Molecular mass:    74.00307 amu.
 Principal axes and moments of inertia in atomic units:
                           1         2         3
     Eigenvalues --   141.54719 320.93075 355.98883
           X            1.00000   0.00002  -0.00004
           Y           -0.00002   1.00000   0.00008
           Z            0.00004  -0.00008   1.00000
 This molecule is an asymmetric top.
 Rotational symmetry number  1.
 Rotational temperatures (Kelvin)      0.61191     0.26988     0.24330
 Rotational constants (GHZ):          12.75010     5.62346     5.06966
 Zero-point vibrational energy      58105.2 (Joules/Mol)
                                   13.88749 (Kcal/Mol)
 Warning -- explicit consideration of   3 degrees of freedom as
           vibrations may cause significant error
 Vibrational temperatures:    427.07   558.79   720.80   920.91   974.81
          (Kelvin)            986.33  1041.27  1238.55  1372.14  1725.60
                             1805.22  2205.42

 Zero-point correction=                           0.022131 (Hartree/Particle)
 Thermal correction to Energy=                    0.026556
 Thermal correction to Enthalpy=                  0.027501
 Thermal correction to Gibbs Free Energy=        -0.005413
 Sum of electronic and zero-point Energies=           -244.833764
 Sum of electronic and thermal Energies=              -244.829339
 Sum of electronic and thermal Enthalpies=            -244.828394
 Sum of electronic and thermal Free Energies=         -244.861308

                     E (Thermal)             CV                S
                      KCal/Mol        Cal/Mol-Kelvin    Cal/Mol-Kelvin
 Total                   16.664             15.277             69.273
 Electronic               0.000              0.000              1.377
 Translational            0.889              2.981             38.821
 Rotational               0.889              2.981             24.295
 Vibrational             14.887              9.315              4.780
 Vibration     1          0.690              1.680              1.435
 Vibration     2          0.757              1.495              1.006
 Vibration     3          0.856              1.248              0.656

 Normal termination of Gaussian 09 at Tue Aug 16 18:57:22 2016.
