 Gaussian 09, Revision E.01,
 Gaussian 09:  EM64L-G09RevE.01 30-Nov-2015

 ---------------------------------------------
 #p b3lyp/6-311++G(3df,2p) freq symmetry=Loose
 ---------------------------------------------

 ---------
 b3lyp opt
 ---------
 Symbolic Z-matrix:
 Charge =  0 Multiplicity = 2

                         Standard orientation:
 ---------------------------------------------------------------------
 Center     Atomic      Atomic             Coordinates (Angstroms)
 Number     Number       Type             X           Y           Z
 ---------------------------------------------------------------------
      1          7           0       -1.427168   -0.000086   -0.001074
      2          6           0        1.055358    0.759299    0.000445
      3          6           0       -0.119041    0.000111    0.004961
      4          6           0        1.055494   -0.759079    0.000447
      5          6           0       -2.611290   -0.000055   -0.001710
      6          6           0        2.284507   -0.000176   -0.002891
 ---------------------------------------------------------------------

 SCF Done:  E(UB3LYP) =  -245.003934596     A.U. after   15 cycles

 The electronic state is 2-A.
 Alpha  occ. eigenvalues --  -14.42699 -10.34844 -10.31361 -10.31336 -10.28324
 Alpha  occ. eigenvalues --  -10.26157  -1.07116  -1.02515  -0.83380  -0.72126
 Alpha  occ. eigenvalues --   -0.61015  -0.53008  -0.48738  -0.43789  -0.40509
 Alpha  occ. eigenvalues --   -0.38374  -0.36858  -0.30018  -0.26685
 Alpha virt. eigenvalues --   -0.11842  -0.09384  -0.06463  -0.01786   0.00138
 Alpha virt. eigenvalues --    0.02727   0.03193   0.03920   0.04801   0.05163
 Alpha virt. eigenvalues --    0.06590   0.06888   0.07907   0.08863   0.09538

  Beta  occ. eigenvalues --  -14.42894 -10.33953 -10.31464 -10.31438 -10.27917
  Beta  occ. eigenvalues --  -10.25522  -1.06332  -1.02205  -0.81880  -0.70969
  Beta  occ. eigenvalues --   -0.60823  -0.50516  -0.48456  -0.42348  -0.40296
  Beta  occ. eigenvalues --   -0.38021  -0.36199  -0.29114
  Beta virt. eigenvalues --   -0.16521  -0.12102  -0.08923  -0.03459  -0.01584
  Beta virt. eigenvalues --    0.00207   0.02910   0.03223   0.04019   0.05140
  Beta virt. eigenvalues --    0.06675   0.06921   0.07368   0.08873   0.09133

 Mulliken charges and spin densities:
               1          2
     1  N   -0.702725  -0.086791
     2  C    0.401899  -0.055962
     3  C    0.464132   0.541013
     4  C    0.402437  -0.055597
     5  C    0.098099   0.245516
     6  C   -0.663841   0.411821
 Sum of Mulliken charges =  -0.00000   1.00000

 Dipole moment (field-independent basis, Debye):
    X=             -1.1289    Y=             -0.0005    Z=              0.0106  Tot=              1.1289
 Quadrupole moment (field-independent basis, Debye-Ang):
   XX=            -49.8769   YY=            -34.1645   ZZ=            -32.3044
   XY=             -0.0013   XZ=              0.0119   YZ=              0.0000

  Exact polarizability: 104.564  -0.003  48.460  -0.013  -0.000  37.316
 Approx polarizability: 175.274  -0.008  98.911  -0.078  -0.000  57.274

                      1                      2                      3
                      A                      A                      A
 Frequencies --     93.6849               160.8240               313.9659
 Red. masses --     12.0052                12.3758                13.2591
 Frc consts  --      0.0621                 0.1886                 0.7701
 IR Inten    --     13.6894                 5.4927                 0.1069

                      4                      5                      6
                      A                      A                      A
 Frequencies --    381.9300               450.7197               599.1796
 Red. masses --     12.5442                12.0021                12.2356
 Frc consts  --      1.0781                 1.4366                 2.5881
 IR Inten    --     10.6682                 8.7842                38.5630

                      7                      8                      9
                      A                      A                      A
 Frequencies --    678.6440               770.4618              1011.5416
 Red. masses --     12.3863                12.0468                12.0387
 Frc consts  --      3.3610                 4.2133                 7.2577
 IR Inten    --      1.2675                37.0771                 0.2122

                     10                     11                     12
                      A                      A                      A
 Frequencies --   1253.8853              1583.5882              2055.7008
 Red. masses --     12.0004                12.0047                13.0599
 Frc consts  --     11.1163                17.7372                32.5169
 IR Inten    --     22.6805                 0.1324                95.8158

 - Thermochemistry -
 -------------------
 Temperature   298.150 Kelvin.  Pressure   1.00000 Atm.
 Atom     1 has atomic number  7 and mass  14.00307

 Molecular mass:    74.00307 amu.
 Principal axes and moments of inertia in atomic units:
                           1         2         3
     Eigenvalues --    49.39956 713.78418 763.18051
           X            1.00000  -0.00000  -0.00000
           Y            0.00000   1.00000  -0.00000
           Z            0.00000   0.00000   1.00000
 This molecule is an asymmetric top.
 Rotational symmetry number  1.
 Rotational temperatures (Kelvin)      1.75333     0.12134     0.11349
 Rotational constants (GHZ):          36.53355     2.52841     2.36476
 Zero-point vibrational energy      55950.1 (Joules/Mol)
                                   13.37239 (Kcal/Mol)
 Warning -- explicit consideration of   6 degrees of freedom as
           vibrations may cause significant error
 Vibrational temperatures:    134.79   231.39   451.73   549.51   648.48
          (Kelvin)            862.08   976.42  1108.52  1455.38  1804.06
                             2278.43  2957.69

 Zero-point correction=                           0.021310 (Hartree/Particle)
 Thermal correction to Energy=                    0.026930
 Thermal correction to Enthalpy=                  0.027874
 Thermal correction to Gibbs Free Energy=        -0.007968
 Sum of electronic and zero-point Energies=           -244.982624
 Sum of electronic and thermal Energies=              -244.977005
 Sum of electronic and thermal Enthalpies=            -244.976061
 Sum of electronic and thermal Free Energies=         -245.011902

                     E (Thermal)             CV                S
                      KCal/Mol        Cal/Mol-Kelvin    Cal/Mol-Kelvin
 Total                   16.899             17.528             75.436
 Electronic               0.000              0.000              1.377
 Translational            0.889              2.981             38.821
 Rotational               0.889              2.981             24.801
 Vibrational             15.121             11.566             10.436
 Vibration     1          0.603              1.954              3.582
 Vibration     2          0.622              1.890              2.540
 Vibration     3          0.702              1.647              1.341
 Vibration     4          0.751              1.509              1.032
 Vibration     5          0.809              1.359              0.794
 Vibration     6          0.957              1.034              0.451

 Normal termination of Gaussian 09 at Tue Aug 16 18:48:51 2016.
