 Gaussian 09, Revision E.01,
 Gaussian 09:  EM64L-G09RevE.01 30-Nov-2015

 ---------------------------------------------
 #p b3lyp/6-311++G(3df,2p) freq symmetry=Loose
 ---------------------------------------------

 ---------
 b3lyp opt
 ---------
 Symbolic Z-matrix:
 Charge =  0 Multiplicity = 4

                         Standard orientation:
 ---------------------------------------------------------------------
 Center     Atomic      Atomic             Coordinates (Angstroms)
 Number     Number       Type             X           Y           Z
 ---------------------------------------------------------------------
      1          6           0        0.000000    0.976024   -0.680459
      2          6           0       -0.000000   -0.976024   -0.680459
      3          6           0        0.000000    0.000000   -1.620459
      4          6           0       -0.000000    1.066210    0.657937
      5          6           0       -0.000000   -1.066210    0.657937
      6          7           0       -0.000000   -0.000000    1.427575
 ---------------------------------------------------------------------

 SCF Done:  E(UB3LYP) =  -244.966911667     A.U. after   16 cycles

 The electronic state is 4-B2.
 Alpha  occ. eigenvalues --  -14.39882 -10.28897 -10.28895 -10.27194 -10.27192
 Alpha  occ. eigenvalues --  -10.26316  -1.04361  -0.89636  -0.79945  -0.69533
 Alpha  occ. eigenvalues --   -0.64180  -0.53589  -0.49358  -0.47999  -0.38310
 Alpha  occ. eigenvalues --   -0.35813  -0.31989  -0.31901  -0.30324  -0.25468
 Alpha virt. eigenvalues --   -0.11455  -0.08760  -0.04331   0.00964   0.03763
 Alpha virt. eigenvalues --    0.04076   0.04143   0.06207   0.06444   0.06984
 Alpha virt. eigenvalues --    0.08391   0.08705   0.10481   0.10790   0.12034

  Beta  occ. eigenvalues --  -14.39314 -10.27245 -10.27244 -10.26323 -10.26321
  Beta  occ. eigenvalues --  -10.25309  -1.02485  -0.88238  -0.76310  -0.66933
  Beta  occ. eigenvalues --   -0.61586  -0.51875  -0.46925  -0.42706  -0.34989
  Beta  occ. eigenvalues --   -0.32643  -0.30177
  Beta virt. eigenvalues --   -0.16834  -0.15185  -0.13024  -0.07066  -0.04475
  Beta virt. eigenvalues --   -0.02169   0.01316   0.04150   0.04550   0.04677
  Beta virt. eigenvalues --    0.06355   0.07179   0.07635   0.08461   0.08766

 Mulliken charges and spin densities:
               1          2
     1  C    0.248672   0.262231
     2  C    0.248672   0.262231
     3  C   -0.181215   0.454180
     4  C    0.252415   0.997010
     5  C    0.252415   0.997010
     6  N   -0.820960   0.027338
 Sum of Mulliken charges =  -0.00000   3.00000

 Dipole moment (field-independent basis, Debye):
    X=              0.0000    Y=              0.0000    Z=              0.1218  Tot=              0.1218
 Quadrupole moment (field-independent basis, Debye-Ang):
   XX=            -33.5079   YY=            -31.9606   ZZ=            -38.3812
   XY=             -0.0000   XZ=              0.0000   YZ=             -0.0000

  Exact polarizability:  35.991   0.000  69.665  -0.000  -0.000  75.645
 Approx polarizability:  51.958   0.000 174.663  -0.000  -0.000 158.354

                      1                      2                      3
                     B2                     A1                     B1
 Frequencies --    292.3384               338.6350               365.8560
 Red. masses --     12.0664                12.0012                12.2649
 Frc consts  --      0.6076                 0.8108                 0.9672
 IR Inten    --    176.4193                 0.1291                 1.8268

                      4                      5                      6
                     B1                     A2                     A1
 Frequencies --    502.9298               519.3101               725.4031
 Red. masses --     12.5566                12.0000                12.9162
 Frc consts  --      1.8713                 1.9067                 4.0045
 IR Inten    --      0.6076                 0.0000                30.1947

                      7                      8                      9
                     B2                     A1                     B2
 Frequencies --    836.9073              1126.0276              1202.7739
 Red. masses --     12.0334                12.2099                12.9929
 Frc consts  --      4.9659                 9.1213                11.0745
 IR Inten    --     25.4347                 0.4544                14.9291

                     10                     11                     12
                     B2                     A1                     A1
 Frequencies --   1377.2149              1393.2910              1710.3423
 Red. masses --     12.0034                12.3336                12.0085
 Frc consts  --     13.4140                14.1066                20.6969
 IR Inten    --      1.1532                63.8896                 0.1331

 - Thermochemistry -
 -------------------
 Temperature   298.150 Kelvin.  Pressure   1.00000 Atm.
 Atom     1 has atomic number  6 and mass  12.00000

 Molecular mass:    74.00307 amu.
 Principal axes and moments of inertia in atomic units:
                           1         2         3
     Eigenvalues --   179.07546 291.22111 470.29657
           X            0.00000   0.00000   1.00000
           Y            0.00000   1.00000  -0.00000
           Z            1.00000  -0.00000  -0.00000
 This molecule is an asymmetric top.
 Rotational symmetry number  2.
 Rotational temperatures (Kelvin)      0.48367     0.29742     0.18417
 Rotational constants (GHZ):          10.07810     6.19715     3.83745
 Zero-point vibrational energy      62152.2 (Joules/Mol)
                                   14.85472 (Kcal/Mol)
 Warning -- explicit consideration of   5 degrees of freedom as
           vibrations may cause significant error
 Vibrational temperatures:    420.61   487.22   526.38   723.60   747.17
          (Kelvin)           1043.69  1204.12  1620.10  1730.52  1981.50
                             2004.63  2460.80

 Zero-point correction=                           0.023673 (Hartree/Particle)
 Thermal correction to Energy=                    0.028313
 Thermal correction to Enthalpy=                  0.029258
 Thermal correction to Gibbs Free Energy=        -0.004259
 Sum of electronic and zero-point Energies=           -244.943239
 Sum of electronic and thermal Energies=              -244.938598
 Sum of electronic and thermal Enthalpies=            -244.937654
 Sum of electronic and thermal Free Energies=         -244.971171

                     E (Thermal)             CV                S
                      KCal/Mol        Cal/Mol-Kelvin    Cal/Mol-Kelvin
 Total                   17.767             15.334             70.543
 Electronic               0.000              0.000              2.755
 Translational            0.889              2.981             38.821
 Rotational               0.889              2.981             23.332
 Vibrational             15.989              9.372              5.635
 Vibration     1          0.688              1.688              1.460
 Vibration     2          0.719              1.598              1.219
 Vibration     3          0.739              1.543              1.097
 Vibration     4          0.858              1.244              0.651
 Vibration     5          0.874              1.207              0.612

 Optimization completed.
    -- Stationary point found.
 Normal termination of Gaussian 09 at Tue Aug 16 18:31:24 2016.
