 Gaussian 09, Revision E.01,
 Gaussian 09:  EM64L-G09RevE.01 30-Nov-2015

 ---------------------------------------------
 #p b3lyp/6-311++G(3df,2p) freq symmetry=Loose
 ---------------------------------------------

 ---------
 b3lyp opt
 ---------
 Symbolic Z-matrix:
 Charge =  0 Multiplicity = 2

                         Standard orientation:
 ---------------------------------------------------------------------
 Center     Atomic      Atomic             Coordinates (Angstroms)
 Number     Number       Type             X           Y           Z
 ---------------------------------------------------------------------
      1          7           0       -0.000000    0.434874    0.000000
      2          6           0       -1.220856    0.934935    0.000000
      3          6           0       -1.423824   -1.793319   -0.000000
      4          6           0       -1.178773   -0.512713   -0.000000
      5          6           0        2.550839    0.438761    0.000000
      6          6           0        1.272614    0.424983    0.000000
 ---------------------------------------------------------------------

 SCF Done:  E(UB3LYP) =  -244.883816373     A.U. after   21 cycles

 The electronic state is 2-A".
 Alpha  occ. eigenvalues --  -14.53001 -10.33733 -10.29556 -10.28922 -10.27176
 Alpha  occ. eigenvalues --  -10.25952  -1.14267  -0.91283  -0.81659  -0.77105
 Alpha  occ. eigenvalues --   -0.60925  -0.55624  -0.52879  -0.38498  -0.37234
 Alpha  occ. eigenvalues --   -0.35317  -0.33402  -0.31803  -0.31287
 Alpha virt. eigenvalues --   -0.18190  -0.15455  -0.02311  -0.01727  -0.00952
 Alpha virt. eigenvalues --    0.02210   0.02490   0.03916   0.03986   0.05658
 Alpha virt. eigenvalues --    0.05878   0.06448   0.07896   0.08647   0.09133

  Beta  occ. eigenvalues --  -14.52795 -10.33678 -10.29504 -10.28368 -10.26949
  Beta  occ. eigenvalues --  -10.25497  -1.13818  -0.90962  -0.79875  -0.75378
  Beta  occ. eigenvalues --   -0.60587  -0.54178  -0.52797  -0.36947  -0.35002
  Beta  occ. eigenvalues --   -0.34485  -0.32494  -0.31326
  Beta virt. eigenvalues --   -0.22931  -0.17547  -0.13197  -0.02052  -0.00803
  Beta virt. eigenvalues --   -0.00087   0.02622   0.03859   0.03974   0.04855
  Beta virt. eigenvalues --    0.05724   0.05913   0.06484   0.08458   0.08718

 Mulliken charges and spin densities:
               1          2
     1  N   -0.614033   0.073866
     2  C   -0.283392   0.032479
     3  C   -0.437380   0.338400
     4  C    0.980824   0.059804
     5  C   -0.514291   0.292699
     6  C    0.868272   0.202751
 Sum of Mulliken charges =  -0.00000   1.00000

 Dipole moment (field-independent basis, Debye):
    X=             -1.6662    Y=              0.8626    Z=              0.0000  Tot=              1.8762
 Quadrupole moment (field-independent basis, Debye-Ang):
   XX=            -45.4436   YY=            -40.3221   ZZ=            -32.6565
   XY=             -2.5072   XZ=              0.0000   YZ=             -0.0000

  Exact polarizability: 118.614  24.584  78.128  -0.000   0.000  42.470
 Approx polarizability: 290.266  89.275 188.476   0.000   0.000  62.301

                      1                      2                      3
                     A'                     A"                     A'
 Frequencies --    128.2185               150.5310               214.6487
 Red. masses --     12.2612                12.2265                12.2554
 Frc consts  --      0.1188                 0.1632                 0.3327
 IR Inten    --     19.8872                18.6323               110.3325

                      4                      5                      6
                     A'                     A"                     A"
 Frequencies --    254.5867               282.0157               395.0808
 Red. masses --     12.2498                12.0033                13.1738
 Frc consts  --      0.4678                 0.5625                 1.2115
 IR Inten    --     46.8944                10.3249                 1.6620

                      7                      8                      9
                     A'                     A'                     A'
 Frequencies --    521.6243               797.9388               923.1560
 Red. masses --     12.6832                12.1335                12.1177
 Frc consts  --      2.0333                 4.5517                 6.0844
 IR Inten    --     22.5014                23.6133                10.9230

                     10                     11                     12
                     A'                     A'                     A'
 Frequencies --   1430.8425              1724.0334              1980.6031
 Red. masses --     12.8543                12.1555                12.1682
 Frc consts  --     15.5054                21.2869                28.1237
 IR Inten    --    233.3464               401.0286               604.4357

 - Thermochemistry -
 -------------------
 Temperature   298.150 Kelvin.  Pressure   1.00000 Atm.
 Atom     1 has atomic number  7 and mass  14.00307

 Molecular mass:    74.00307 amu.
 Principal axes and moments of inertia in atomic units:
                           1         2         3
     Eigenvalues --   151.06932 619.43953 770.50885
           X            0.93271  -0.36063   0.00000
           Y            0.36063   0.93271   0.00000
           Z            0.00000  -0.00000   1.00000
 This molecule is an asymmetric top.
 Rotational symmetry number  1.
 Rotational temperatures (Kelvin)      0.57334     0.13983     0.11241
 Rotational constants (GHZ):          11.94644     2.91351     2.34227
 Zero-point vibrational energy      52655.3 (Joules/Mol)
                                   12.58492 (Kcal/Mol)
 Warning -- explicit consideration of   7 degrees of freedom as
           vibrations may cause significant error
 Vibrational temperatures:    184.48   216.58   308.83   366.29   405.76
          (Kelvin)            568.43   750.50  1148.05  1328.21  2058.66
                             2480.50  2849.64

 Zero-point correction=                           0.020055 (Hartree/Particle)
 Thermal correction to Energy=                    0.026334
 Thermal correction to Enthalpy=                  0.027278
 Thermal correction to Gibbs Free Energy=        -0.010156
 Sum of electronic and zero-point Energies=           -244.863761
 Sum of electronic and thermal Energies=              -244.857482
 Sum of electronic and thermal Enthalpies=            -244.856538
 Sum of electronic and thermal Free Energies=         -244.893972

                     E (Thermal)             CV                S
                      KCal/Mol        Cal/Mol-Kelvin    Cal/Mol-Kelvin
 Total                   16.525             19.017             78.786
 Electronic               0.000              0.000              1.377
 Translational            0.889              2.981             38.821
 Rotational               0.889              2.981             25.781
 Vibrational             14.747             13.055             12.807
 Vibration     1          0.611              1.925              2.973
 Vibration     2          0.618              1.902              2.666
 Vibration     3          0.645              1.819              2.004
 Vibration     4          0.665              1.755              1.699
 Vibration     5          0.681              1.707              1.521
 Vibration     6          0.762              1.481              0.981
 Vibration     7          0.877              1.202              0.606

 Normal termination of Gaussian 09 at Tue Aug 16 18:26:33 2016.
