 Gaussian 09, Revision E.01,
 Gaussian 09:  EM64L-G09RevE.01 30-Nov-2015

 ---------------------------------------------
 #p b3lyp/6-311++G(3df,2p) freq symmetry=Loose
 ---------------------------------------------

 ---------
 b3lyp opt
 ---------
 Symbolic Z-matrix:
 Charge =  1 Multiplicity = 1

                         Standard orientation:
 ---------------------------------------------------------------------
 Center     Atomic      Atomic             Coordinates (Angstroms)
 Number     Number       Type             X           Y           Z
 ---------------------------------------------------------------------
      1          6           0       -0.000000   -0.794669   -0.687168
      2          6           0        0.000000    0.880080    0.627020
      3          6           0        0.000000    0.794669   -0.687168
      4          6           0       -0.000000   -0.880080    0.627020
      5          6           0       -0.000000   -0.000000   -1.774745
      6          7           0        0.000000    0.000000    1.624314
 ---------------------------------------------------------------------

 SCF Done:  E(RB3LYP) =  -244.606503488     A.U. after   14 cycles

 The electronic state is 1-A1.
 Alpha  occ. eigenvalues --  -14.68316 -10.57972 -10.57968 -10.56487 -10.56475
 Alpha  occ. eigenvalues --  -10.53218  -1.35397  -1.22786  -1.01853  -1.01815
 Alpha  occ. eigenvalues --   -0.85348  -0.76700  -0.76414  -0.74127  -0.65332
 Alpha  occ. eigenvalues --   -0.62966  -0.55447  -0.53390
 Alpha virt. eigenvalues --   -0.41894  -0.38043  -0.35435  -0.25816  -0.25651
 Alpha virt. eigenvalues --   -0.16454  -0.15919  -0.11467  -0.10831  -0.10520
 Alpha virt. eigenvalues --   -0.09485  -0.08118  -0.06392  -0.06110  -0.05704

 Mulliken charges:
               1
     1  C    0.495182
     2  C    0.330756
     3  C    0.495182
     4  C    0.330756
     5  C   -0.032407
     6  N   -0.619469
 Sum of Mulliken charges =   1.00000

 Dipole moment (field-independent basis, Debye):
    X=              0.0000    Y=             -0.0000    Z=             -0.4324  Tot=              0.4324
 Quadrupole moment (field-independent basis, Debye-Ang):
   XX=            -30.0356   YY=            -22.7192   ZZ=            -28.6425
   XY=             -0.0000   XZ=             -0.0000   YZ=              0.0000

  Exact polarizability:  28.431   0.000  46.312  -0.000   0.000  72.390
 Approx polarizability:  42.262   0.000 124.846  -0.000  -0.000 221.527

                      1                      2                      3
                     B1                     B2                     A2
 Frequencies --    252.7024               434.9684               459.5227
 Red. masses --     12.4513                12.0945                12.0000
 Frc consts  --      0.4685                 1.3482                 1.4930
 IR Inten    --      5.7104                49.4054                 0.0000

                      4                      5                      6
                     B1                     A1                     B2
 Frequencies --    518.6799               661.6132               754.7655
 Red. masses --     12.3002                12.3348                12.6465
 Frc consts  --      1.9497                 3.1812                 4.2447
 IR Inten    --      0.1788                74.4748                11.4779

                      7                      8                      9
                     A1                     A1                     B2
 Frequencies --    811.7326              1136.5917              1168.7271
 Red. masses --     12.0639                12.5432                12.1918
 Frc consts  --      4.6834                 9.5470                 9.8117
 IR Inten    --     12.2918                15.2323                22.5257

                     10                     11                     12
                     B2                     A1                     A1
 Frequencies --   1388.4705              1410.7119              1830.6678
 Red. masses --     12.0051                12.4021                12.0945
 Frc consts  --     13.6361                14.5419                23.8812
 IR Inten    --    121.5644               126.1038                52.0029

 - Thermochemistry -
 -------------------
 Temperature   298.150 Kelvin.  Pressure   1.00000 Atm.
 Atom     1 has atomic number  6 and mass  12.00000

 Molecular mass:    74.00307 amu.
 Principal axes and moments of inertia in atomic units:
                           1         2         3
     Eigenvalues --   120.50546 341.07529 461.58075
           X            0.00000   0.00000   1.00000
           Y            0.00000   1.00000  -0.00000
           Z            1.00000   0.00000   0.00000
 This molecule is an asymmetric top.
 Rotational symmetry number  2.
 Rotational temperatures (Kelvin)      0.71875     0.25394     0.18765
 Rotational constants (GHZ):          14.97643     5.29133     3.90991
 Zero-point vibrational energy      64772.7 (Joules/Mol)
                                   15.48105 (Kcal/Mol)
 Warning -- explicit consideration of   4 degrees of freedom as
           vibrations may cause significant error
 Vibrational temperatures:    363.58   625.82   661.15   746.26   951.91
          (Kelvin)           1085.94  1167.90  1635.30  1681.54  1997.70
                             2029.70  2633.92

 Zero-point correction=                           0.024671 (Hartree/Particle)
 Thermal correction to Energy=                    0.029083
 Thermal correction to Enthalpy=                  0.030027
 Thermal correction to Gibbs Free Energy=        -0.001699
 Sum of electronic and zero-point Energies=           -244.581833
 Sum of electronic and thermal Energies=              -244.577421
 Sum of electronic and thermal Enthalpies=            -244.576477
 Sum of electronic and thermal Free Energies=         -244.608202

                     E (Thermal)             CV                S
                      KCal/Mol        Cal/Mol-Kelvin    Cal/Mol-Kelvin
 Total                   18.250             14.638             66.772
 Electronic               0.000              0.000              0.000
 Translational            0.889              2.981             38.821
 Rotational               0.889              2.981             23.077
 Vibrational             16.472              8.676              4.875
 Vibration     1          0.664              1.758              1.712
 Vibration     2          0.796              1.394              0.843
 Vibration     3          0.817              1.340              0.767
 Vibration     4          0.874              1.209              0.613

 Optimization completed.
    -- Stationary point found.
 Normal termination of Gaussian 09 at Tue Aug 16 18:14:48 2016.
