 Gaussian 09, Revision E.01,
 Gaussian 09:  EM64L-G09RevE.01 30-Nov-2015

 ---------------------------------------------
 #p b3lyp/6-311++G(3df,2p) freq symmetry=Loose
 ---------------------------------------------

 ---------
 b3lyp opt
 ---------
 Symbolic Z-matrix:
 Charge =  1 Multiplicity = 3

                         Standard orientation:
 ---------------------------------------------------------------------
 Center     Atomic      Atomic             Coordinates (Angstroms)
 Number     Number       Type             X           Y           Z
 ---------------------------------------------------------------------
      1          6           0       -0.000000   -0.000000   -3.071159
      2          6           0        0.000000    0.000000    0.650544
      3          6           0       -0.000000   -0.000000   -0.607442
      4          6           0        0.000000    0.000000    1.932678
      5          6           0        0.000000    0.000000    3.264371
      6          7           0       -0.000000   -0.000000   -1.859136
 ---------------------------------------------------------------------

 SCF Done:  E(UB3LYP) =  -244.697207996     A.U. after   16 cycles

 The electronic state is 3-SG.
 Alpha  occ. eigenvalues --  -14.65550 -10.57771 -10.52892 -10.51874 -10.51448
 Alpha  occ. eigenvalues --  -10.49952  -1.27730  -1.12074  -1.06908  -1.00781
 Alpha  occ. eigenvalues --   -0.91658  -0.72801  -0.72801  -0.63404  -0.63404
 Alpha  occ. eigenvalues --   -0.57830  -0.55505  -0.53335  -0.53335
 Alpha virt. eigenvalues --   -0.35011  -0.35011  -0.22986  -0.22986  -0.17269
 Alpha virt. eigenvalues --   -0.12062  -0.10847  -0.10847  -0.09781  -0.09781
 Alpha virt. eigenvalues --   -0.09702  -0.07394  -0.05558  -0.05558  -0.04021

  Beta  occ. eigenvalues --  -14.65585 -10.56674 -10.52401 -10.51609 -10.50889
  Beta  occ. eigenvalues --  -10.49192  -1.26849  -1.10106  -1.04364  -0.98258
  Beta  occ. eigenvalues --   -0.90055  -0.70628  -0.70628  -0.60628  -0.60628
  Beta  occ. eigenvalues --   -0.56814  -0.53521
  Beta virt. eigenvalues --   -0.43925  -0.43925  -0.31413  -0.31413  -0.20029
  Beta virt. eigenvalues --   -0.20029  -0.17053  -0.11779  -0.10591  -0.10591
  Beta virt. eigenvalues --   -0.07957  -0.07862  -0.07862  -0.06780  -0.04282

 Mulliken charges and spin densities:
               1          2
     1  C    0.281533   0.271792
     2  C    0.411632   0.397569
     3  C    0.350009   0.283518
     4  C    1.074008   0.649099
     5  C   -0.342069   0.410752
     6  N   -0.775114  -0.012729
 Sum of Mulliken charges =   1.00000   2.00000

 Dipole moment (field-independent basis, Debye):
    X=              0.0000    Y=             -0.0000    Z=              0.0131  Tot=              0.0131
 Quadrupole moment (field-independent basis, Debye-Ang):
   XX=            -29.3084   YY=            -29.3084   ZZ=            -17.9032
   XY=              0.0000   XZ=              0.0000   YZ=             -0.0000

  Exact polarizability:  34.497   0.000  34.497   0.000  -0.000 162.805
 Approx polarizability:  47.691   0.000  47.691   0.000   0.000 359.795

                      1                      2                      3
                     PI                     PI                     PI
 Frequencies --     30.3056                30.3056               151.6667
 Red. masses --     12.0078                12.0078                12.2828
 Frc consts  --      0.0065                 0.0065                 0.1665
 IR Inten    --     16.0363                16.0363                 0.5750

                      4                      5                      6
                     PI                     PI                     PI
 Frequencies --    151.6667               313.8859               313.8859
 Red. masses --     12.2828                12.7446                12.7446
 Frc consts  --      0.1665                 0.7398                 0.7398
 IR Inten    --      0.5750                 2.8823                 2.8823

                      7                      8                      9
                     PI                     PI                     SG
 Frequencies --    492.7465               492.7465               671.0273
 Red. masses --     12.1672                12.1672                12.3328
 Frc consts  --      1.7406                 1.7406                 3.2718
 IR Inten    --      7.4973                 7.4973                15.1831

                     10                     11                     12
                     SG                     SG                     SG
 Frequencies --   1231.7880              1766.9606              2024.8250
 Red. masses --     12.0162                12.1647                12.8208
 Frc consts  --     10.7421                22.3771                30.9698
 IR Inten    --    200.8477                19.8629              1470.2547

                     13
                     SG
 Frequencies --   2151.6759
 Red. masses --     12.1223
 Frc consts  --     33.0667
 IR Inten    --    172.3545

 - Thermochemistry -
 -------------------
 Temperature   298.150 Kelvin.  Pressure   1.00000 Atm.
 Atom     1 has atomic number  6 and mass  12.00000

 Molecular mass:    74.00307 amu.
 Principal axes and moments of inertia in atomic units:
                           1         2         3
     Eigenvalues --     0.000001227.685331227.68533
           X            0.00000   0.31618   0.94870
           Y            0.00000   0.94870  -0.31618
           Z            1.00000  -0.00000   0.00000
 This molecule is a prolate symmetric top.
 Rotational symmetry number  1.
 Warning -- assumption of classical behavior for rotation
           may cause significant error
 Rotational temperature (Kelvin)      0.07055
 Rotational constant (GHZ):           1.470036
 Zero-point vibrational energy      58757.5 (Joules/Mol)
                                   14.04338 (Kcal/Mol)
 Warning -- explicit consideration of   8 degrees of freedom as
           vibrations may cause significant error
 Vibrational temperatures:     43.60    43.60   218.21   218.21   451.61
          (Kelvin)            451.61   708.95   708.95   965.46  1772.27
                             2542.26  2913.27  3095.78

 Zero-point correction=                           0.022380 (Hartree/Particle)
 Thermal correction to Energy=                    0.029182
 Thermal correction to Enthalpy=                  0.030126
 Thermal correction to Gibbs Free Energy=        -0.008324
 Sum of electronic and zero-point Energies=           -244.674828
 Sum of electronic and thermal Energies=              -244.668026
 Sum of electronic and thermal Enthalpies=            -244.667082
 Sum of electronic and thermal Free Energies=         -244.705532

                     E (Thermal)             CV                S
                      KCal/Mol        Cal/Mol-Kelvin    Cal/Mol-Kelvin
 Total                   18.312             19.680             80.924
 Electronic               0.000              0.000              2.183
 Translational            0.889              2.981             38.821
 Rotational               0.592              1.987             18.578
 Vibrational             16.831             14.712             21.342
 Vibration     1          0.594              1.984              5.809
 Vibration     2          0.594              1.984              5.809
 Vibration     3          0.619              1.901              2.651
 Vibration     4          0.619              1.901              2.651
 Vibration     5          0.702              1.647              1.342
 Vibration     6          0.702              1.647              1.342
 Vibration     7          0.848              1.266              0.677
 Vibration     8          0.848              1.266              0.677

 Optimization completed.
    -- Stationary point found.
 Normal termination of Gaussian 09 at Tue Aug 16 18:00:18 2016.
