 Gaussian 09, Revision E.01,
 Gaussian 09:  EM64L-G09RevE.01 30-Nov-2015

 ---------------------------------------------
 #p b3lyp/6-311++G(3df,2p) freq symmetry=Loose
 ---------------------------------------------

 ---------
 b3lyp opt
 ---------
 Symbolic Z-matrix:
 Charge =  1 Multiplicity = 3

                         Standard orientation:
 ---------------------------------------------------------------------
 Center     Atomic      Atomic             Coordinates (Angstroms)
 Number     Number       Type             X           Y           Z
 ---------------------------------------------------------------------
      1          6           0        0.499253   -1.046255   -0.000000
      2          6           0       -0.250314    2.159437    0.000000
      3          6           0       -0.655688   -1.699211   -0.000000
      4          6           0        0.000000    0.821782    0.000000
      5          6           0       -0.978119   -0.388197   -0.000000
      6          7           0        1.187029    0.130667    0.000000
 ---------------------------------------------------------------------

 SCF Done:  E(UB3LYP) =  -244.532391281     A.U. after   26 cycles

 The electronic state is 3-A".
 Alpha  occ. eigenvalues --  -14.67805 -10.59795 -10.58202 -10.56913 -10.54451
 Alpha  occ. eigenvalues --  -10.53132  -1.34145  -1.17904  -1.06682  -0.91358
 Alpha  occ. eigenvalues --   -0.84828  -0.79253  -0.76224  -0.69246  -0.61889
 Alpha  occ. eigenvalues --   -0.61417  -0.58710  -0.56473  -0.52592
 Alpha virt. eigenvalues --   -0.41289  -0.38399  -0.31311  -0.25527  -0.22054
 Alpha virt. eigenvalues --   -0.16916  -0.12871  -0.11522  -0.10436  -0.09243
 Alpha virt. eigenvalues --   -0.08574  -0.07691  -0.06467  -0.05963  -0.05717

  Beta  occ. eigenvalues --  -14.66744 -10.59309 -10.56943 -10.56375 -10.54325
  Beta  occ. eigenvalues --  -10.52303  -1.32846  -1.16762  -1.04525  -0.89139
  Beta  occ. eigenvalues --   -0.83411  -0.77066  -0.72865  -0.66058  -0.58547
  Beta  occ. eigenvalues --   -0.58538  -0.57332
  Beta virt. eigenvalues --   -0.46326  -0.42095  -0.38342  -0.34361  -0.27745
  Beta virt. eigenvalues --   -0.22432  -0.19083  -0.16498  -0.12245  -0.11199
  Beta virt. eigenvalues --   -0.09719  -0.08601  -0.08277  -0.07336  -0.06089

 Mulliken charges and spin densities:
               1          2
     1  C    0.832292   0.191171
     2  C   -0.201404   0.350354
     3  C   -0.093022   0.310950
     4  C    0.892102   0.068656
     5  C    0.137878   0.607102
     6  N   -0.567847   0.471766
 Sum of Mulliken charges =   1.00000   2.00000

 Dipole moment (field-independent basis, Debye):
    X=             -0.6859    Y=             -0.1372    Z=              0.0000  Tot=              0.6995
 Quadrupole moment (field-independent basis, Debye-Ang):
   XX=            -28.7045   YY=            -24.1649   ZZ=            -29.6069
   XY=             -0.9186   XZ=             -0.0000   YZ=              0.0000

  Exact polarizability:  48.256   2.473  93.314   0.000   0.000  30.743
 Approx polarizability: 106.816  -0.217 212.374   0.000   0.000  47.139

                      1                      2                      3
                     A"                     A'                     A'
 Frequencies --    202.1246               222.1750               401.8984
 Red. masses --     12.0302                12.2417                12.0250
 Frc consts  --      0.2896                 0.3560                 1.1444
 IR Inten    --      2.2562                 9.5293                17.6737

                      4                      5                      6
                     A"                     A"                     A'
 Frequencies --    422.4794               558.8934               566.6225
 Red. masses --     12.1952                12.3326                12.0520
 Frc consts  --      1.2825                 2.2697                 2.2798
 IR Inten    --      7.0208                 8.0990                 0.0325

                      7                      8                      9
                     A'                     A'                     A'
 Frequencies --    649.3875               884.7913              1048.3517
 Red. masses --     12.3402                12.6483                13.0563
 Frc consts  --      3.0661                 5.8340                 8.4544
 IR Inten    --      4.3180                16.3296                 2.7560

                     10                     11                     12
                     A'                     A'                     A'
 Frequencies --   1185.7828              1463.4254              1605.1101
 Red. masses --     12.2591                12.0280                12.0491
 Frc consts  --     10.1559                15.1770                18.2900
 IR Inten    --      6.4554               296.3534               274.4256

 - Thermochemistry -
 -------------------
 Temperature   298.150 Kelvin.  Pressure   1.00000 Atm.
 Atom     1 has atomic number  6 and mass  12.00000

 Molecular mass:    74.00307 amu.
 Principal axes and moments of inertia in atomic units:
                           1         2         3
     Eigenvalues --   140.66307 409.30417 549.96724
           X            0.09809   0.99518   0.00000
           Y            0.99518  -0.09809   0.00000
           Z           -0.00000  -0.00000   1.00000
 This molecule is an asymmetric top.
 Rotational symmetry number  1.
 Rotational temperatures (Kelvin)      0.61575     0.21161     0.15749
 Rotational constants (GHZ):          12.83024     4.40929     3.28154
 Zero-point vibrational energy      55094.3 (Joules/Mol)
                                   13.16785 (Kcal/Mol)
 Warning -- explicit consideration of   6 degrees of freedom as
           vibrations may cause significant error
 Vibrational temperatures:    290.81   319.66   578.24   607.85   804.12
          (Kelvin)            815.24   934.32  1273.02  1508.34  1706.07
                             2105.54  2309.39

 Zero-point correction=                           0.020984 (Hartree/Particle)
 Thermal correction to Energy=                    0.026109
 Thermal correction to Enthalpy=                  0.027053
 Thermal correction to Gibbs Free Energy=        -0.007898
 Sum of electronic and zero-point Energies=           -244.511407
 Sum of electronic and thermal Energies=              -244.506282
 Sum of electronic and thermal Enthalpies=            -244.505338
 Sum of electronic and thermal Free Energies=         -244.540289

                     E (Thermal)             CV                S
                      KCal/Mol        Cal/Mol-Kelvin    Cal/Mol-Kelvin
 Total                   16.384             16.845             73.560
 Electronic               0.000              0.000              2.183
 Translational            0.889              2.981             38.821
 Rotational               0.889              2.981             24.963
 Vibrational             14.606             10.884              7.594
 Vibration     1          0.639              1.837              2.114
 Vibration     2          0.648              1.807              1.941
 Vibration     3          0.768              1.466              0.956
 Vibration     4          0.785              1.421              0.884
 Vibration     5          0.914              1.120              0.526
 Vibration     6          0.923              1.103              0.511

 Normal termination of Gaussian 09 at Tue Aug 16 18:45:57 2016.
