 Gaussian 09, Revision E.01,
 Gaussian 09:  EM64L-G09RevE.01 30-Nov-2015

 ---------------------------------------------
 #p b3lyp/6-311++G(3df,2p) freq symmetry=Loose
 ---------------------------------------------

 ---------
 b3lyp opt
 ---------
 Symbolic Z-matrix:
 Charge =  0 Multiplicity = 2

                         Standard orientation:
 ---------------------------------------------------------------------
 Center     Atomic      Atomic             Coordinates (Angstroms)
 Number     Number       Type             X           Y           Z
 ---------------------------------------------------------------------
      1          6           0        3.059482    0.020325    0.000274
      2          6           0       -3.236251    0.052925   -0.000062
      3          6           0       -1.957388   -0.045262   -0.000909
      4          6           0        0.589573   -0.010135   -0.001015
      5          6           0       -0.640201   -0.023840    0.002158
      6          7           0        1.872673    0.005132   -0.000383
 ---------------------------------------------------------------------

 SCF Done:  E(UB3LYP) =  -245.061176687     A.U. after   32 cycles

 The electronic state is 2-A.
 Alpha  occ. eigenvalues --  -14.44055 -10.31596 -10.29281 -10.27941 -10.24657
 Alpha  occ. eigenvalues --  -10.24114  -1.05360  -0.88372  -0.82904  -0.76858
 Alpha  occ. eigenvalues --   -0.66927  -0.50713  -0.49994  -0.41064  -0.39874
 Alpha  occ. eigenvalues --   -0.37855  -0.32444  -0.31230  -0.29511
 Alpha virt. eigenvalues --   -0.12087  -0.11079  -0.01598  -0.01225  -0.00543
 Alpha virt. eigenvalues --    0.02860   0.03583   0.03894   0.05349   0.06165
 Alpha virt. eigenvalues --    0.06477   0.07135   0.10560   0.10820   0.10825

  Beta  occ. eigenvalues --  -14.44118 -10.31071 -10.29069 -10.28071 -10.24161
  Beta  occ. eigenvalues --  -10.23644  -1.05042  -0.87414  -0.81609  -0.75555
  Beta  occ. eigenvalues --   -0.66120  -0.49841  -0.49243  -0.39707  -0.38419
  Beta  occ. eigenvalues --   -0.37417  -0.31210  -0.28839
  Beta virt. eigenvalues --   -0.22287  -0.10830  -0.09552  -0.01274  -0.00295
  Beta virt. eigenvalues --    0.00425   0.02976   0.03972   0.04218   0.05474
  Beta virt. eigenvalues --    0.06524   0.06663   0.07183   0.10858   0.10861

 Mulliken charges and spin densities:
               1          2
     1  C    0.095875   0.125162
     2  C   -0.695934   0.259918
     3  C    0.942020   0.352589
     4  C    0.249708   0.182722
     5  C    0.266730   0.112303
     6  N   -0.858400  -0.032695
 Sum of Mulliken charges =  -0.00000   1.00000

 Dipole moment (field-independent basis, Debye):
    X=              2.0853    Y=             -0.2519    Z=             -0.0043  Tot=              2.1004
 Quadrupole moment (field-independent basis, Debye-Ang):
   XX=            -53.6753   YY=            -32.0204   ZZ=            -33.7125
   XY=              0.8727   XZ=              0.0152   YZ=              0.0603

  Exact polarizability: 179.892   4.165  40.581   0.143  -0.172  47.073
 Approx polarizability: 374.850   0.586  56.087  -0.081   0.031  55.180

                      1                      2                      3
                      A                      A                      A
 Frequencies --     79.9986               159.4756               177.1969
 Red. masses --     12.0014                12.1044                12.2236
 Frc consts  --      0.0453                 0.1814                 0.2261
 IR Inten    --     35.2368                 1.1589                16.9270

                      4                      5                      6
                      A                      A                      A
 Frequencies --    343.4653               376.5794               447.5402
 Red. masses --     12.7658                12.9695                12.1374
 Frc consts  --      0.8873                 1.0836                 1.4323
 IR Inten    --     20.8600                 6.1842                 3.2496

                      7                      8                      9
                      A                      A                      A
 Frequencies --    517.3897               663.8654              1244.9326
 Red. masses --     12.2098                12.3614                12.0412
 Frc consts  --      1.9257                 3.2098                10.9955
 IR Inten    --     10.3785                 2.8552                 5.9667

                     10                     11                     12
                      A                      A                      A
 Frequencies --   1892.9195              2092.8608              2157.8434
 Red. masses --     12.0803                12.7458                12.2206
 Frc consts  --     25.5031                32.8926                33.5259
 IR Inten    --     51.0413               383.2683               124.4989

 - Thermochemistry -
 -------------------
 Temperature   298.150 Kelvin.  Pressure   1.00000 Atm.
 Atom     1 has atomic number  6 and mass  12.00000

 Molecular mass:    74.00307 amu.
 Principal axes and moments of inertia in atomic units:
                           1         2         3
     Eigenvalues --     0.255891221.941051222.19636
           X            1.00000  -0.00000   0.00000
           Y            0.00000   1.00000   0.00000
           Z           -0.00000  -0.00000   1.00000
 This molecule is an asymmetric top.
 Rotational symmetry number  1.
 Rotational temperatures (Kelvin)    338.48287     0.07088     0.07087
 Rotational constants (GHZ):        7052.84702     1.47695     1.47664
 Zero-point vibrational energy      60734.8 (Joules/Mol)
                                   14.51597 (Kcal/Mol)
 Warning -- explicit consideration of   7 degrees of freedom as
           vibrations may cause significant error
 Vibrational temperatures:    115.10   229.45   254.95   494.17   541.81
          (Kelvin)            643.91   744.41   955.15  1791.18  2723.49
                             3011.16  3104.65

 Zero-point correction=                           0.023133 (Hartree/Particle)
 Thermal correction to Energy=                    0.029286
 Thermal correction to Enthalpy=                  0.030230
 Thermal correction to Gibbs Free Energy=        -0.004756
 Sum of electronic and zero-point Energies=           -245.038044
 Sum of electronic and thermal Energies=              -245.031891
 Sum of electronic and thermal Enthalpies=            -245.030947
 Sum of electronic and thermal Free Energies=         -245.065933

                     E (Thermal)             CV                S
                      KCal/Mol        Cal/Mol-Kelvin    Cal/Mol-Kelvin
 Total                   18.377             18.483             73.635
 Electronic               0.000              0.000              1.377
 Translational            0.889              2.981             38.821
 Rotational               0.889              2.981             20.574
 Vibrational             16.600             12.521             12.863
 Vibration     1          0.600              1.963              3.891
 Vibration     2          0.621              1.892              2.556
 Vibration     3          0.628              1.870              2.358
 Vibration     4          0.722              1.589              1.196
 Vibration     5          0.747              1.520              1.053
 Vibration     6          0.807              1.366              0.803
 Vibration     7          0.872              1.211              0.616

 Normal termination of Gaussian 09 at Tue Aug 16 18:52:47 2016.
