 Gaussian 09, Revision E.01,
 Gaussian 09:  EM64L-G09RevE.01 30-Nov-2015

 ---------------------------------------------
 #p b3lyp/6-311++G(3df,2p) freq symmetry=Loose
 ---------------------------------------------

 ---------
 b3lyp opt
 ---------
 Symbolic Z-matrix:
 Charge =  1 Multiplicity = 3

                         Standard orientation:
 ---------------------------------------------------------------------
 Center     Atomic      Atomic             Coordinates (Angstroms)
 Number     Number       Type             X           Y           Z
 ---------------------------------------------------------------------
      1          6           0        2.243521    0.000176    0.000142
      2          6           0        1.125035   -0.774093    0.000024
      3          6           0        1.124884    0.774123    0.000023
      4          6           0       -1.420633   -0.000121   -0.000193
      5          6           0       -0.058850   -0.000278   -0.000252
      6          7           0       -2.583392    0.000166    0.000220
 ---------------------------------------------------------------------

 SCF Done:  E(UB3LYP) =  -244.667488319     A.U. after   19 cycles

 The electronic state is 3-A.
 Alpha  occ. eigenvalues --  -14.59069 -10.59272 -10.59250 -10.57733 -10.57621
 Alpha  occ. eigenvalues --  -10.46908  -1.33012  -1.17152  -1.06786  -0.92760
 Alpha  occ. eigenvalues --   -0.87171  -0.76193  -0.74931  -0.68516  -0.63074
 Alpha  occ. eigenvalues --   -0.61390  -0.59418  -0.59315  -0.52788
 Alpha virt. eigenvalues --   -0.37432  -0.34729  -0.28779  -0.21827  -0.15884
 Alpha virt. eigenvalues --   -0.13282  -0.12278  -0.11339  -0.11208  -0.11078
 Alpha virt. eigenvalues --   -0.07684  -0.07181  -0.06252  -0.05537  -0.05254

  Beta  occ. eigenvalues --  -14.58350 -10.59067 -10.59046 -10.56623 -10.55244
  Beta  occ. eigenvalues --  -10.47169  -1.31922  -1.15820  -1.04155  -0.91275
  Beta  occ. eigenvalues --   -0.85836  -0.73730  -0.73059  -0.62232  -0.60213
  Beta  occ. eigenvalues --   -0.59854  -0.58923
  Beta virt. eigenvalues --   -0.44899  -0.40959  -0.37342  -0.32473  -0.23573
  Beta virt. eigenvalues --   -0.21422  -0.15668  -0.11803  -0.11567  -0.10619
  Beta virt. eigenvalues --   -0.10185  -0.09195  -0.07659  -0.06850  -0.05836

 Mulliken charges and spin densities:
               1          2
     1  C   -0.657199   1.214925
     2  C    1.196785   0.071157
     3  C    1.195250   0.071158
     4  C   -0.661171  -0.178010
     5  C    0.708103   0.470142
     6  N   -0.781768   0.350627
 Sum of Mulliken charges =   1.00000   2.00000

 Dipole moment (field-independent basis, Debye):
    X=              4.5003    Y=             -0.0006    Z=             -0.0004  Tot=              4.5003
 Quadrupole moment (field-independent basis, Debye-Ang):
   XX=            -21.4986   YY=            -28.2298   ZZ=            -28.8570
   XY=              0.0010   XZ=              0.0015   YZ=              0.0000

  Exact polarizability:  89.153  -0.001  38.313  -0.000  -0.000  27.529
 Approx polarizability: 175.769  -0.006  81.058  -0.005  -0.000  41.313

                      1                      2                      3
                      A                      A                      A
 Frequencies --    150.3027               184.1464               411.4453
 Red. masses --     12.4331                12.6374                12.2056
 Frc consts  --      0.1655                 0.2525                 1.2174
 IR Inten    --      2.9125                 5.1800                 2.5017

                      4                      5                      6
                      A                      A                      A
 Frequencies --    529.5456               537.0222               628.9027
 Red. masses --     12.0601                12.0022                12.5115
 Frc consts  --      1.9926                 2.0394                 2.9156
 IR Inten    --      1.5411                 3.3852                 2.3881

                      7                      8                      9
                      A                      A                      A
 Frequencies --    683.7533               912.4025               955.1510
 Red. masses --     12.0066                12.1683                12.0003
 Frc consts  --      3.3073                 5.9683                 6.4504
 IR Inten    --     14.9307                29.3860                19.9532

                     10                     11                     12
                      A                      A                      A
 Frequencies --   1486.3547              1562.2105              2200.0771
 Red. masses --     12.0145                12.1222                12.6312
 Frc consts  --     15.6387                17.4306                36.0223
 IR Inten    --    103.5356                11.9728               228.1778

 - Thermochemistry -
 -------------------
 Temperature   298.150 Kelvin.  Pressure   1.00000 Atm.
 Atom     1 has atomic number  6 and mass  12.00000

 Molecular mass:    74.00307 amu.
 Principal axes and moments of inertia in atomic units:
                           1         2         3
     Eigenvalues --    51.35843 744.52684 795.88526
           X            1.00000   0.00000   0.00000
           Y           -0.00000   1.00000  -0.00000
           Z           -0.00000   0.00000   1.00000
 This molecule is an asymmetric top.
 Rotational symmetry number  1.
 Rotational temperatures (Kelvin)      1.68646     0.11633     0.10883
 Rotational constants (GHZ):          35.14012     2.42401     2.26759
 Zero-point vibrational energy      61256.7 (Joules/Mol)
                                   14.64069 (Kcal/Mol)
 Warning -- explicit consideration of   5 degrees of freedom as
           vibrations may cause significant error
 Vibrational temperatures:    216.25   264.95   591.98   761.90   772.65
          (Kelvin)            904.85   983.77  1312.74  1374.25  2138.53
                             2247.67  3165.42

 Zero-point correction=                           0.023331 (Hartree/Particle)
 Thermal correction to Energy=                    0.028461
 Thermal correction to Enthalpy=                  0.029405
 Thermal correction to Gibbs Free Energy=        -0.005735
 Sum of electronic and zero-point Energies=           -244.644157
 Sum of electronic and thermal Energies=              -244.639027
 Sum of electronic and thermal Enthalpies=            -244.638083
 Sum of electronic and thermal Free Energies=         -244.673223

                     E (Thermal)             CV                S
                      KCal/Mol        Cal/Mol-Kelvin    Cal/Mol-Kelvin
 Total                   17.860             16.412             73.959
 Electronic               0.000              0.000              2.183
 Translational            0.889              2.981             38.821
 Rotational               0.889              2.981             24.924
 Vibrational             16.082             10.450              8.031
 Vibration     1          0.618              1.902              2.668
 Vibration     2          0.631              1.861              2.286
 Vibration     3          0.775              1.445              0.922
 Vibration     4          0.885              1.185              0.588
 Vibration     5          0.892              1.168              0.572

 Optimization completed.
    -- Stationary point found.
 Normal termination of Gaussian 09 at Tue Aug 16 18:47:15 2016.
