 Gaussian 09, Revision E.01,
 Gaussian 09:  EM64L-G09RevE.01 30-Nov-2015

 ---------------------------------------------
 #p b3lyp/6-311++G(3df,2p) freq symmetry=Loose
 ---------------------------------------------

 ---------
 b3lyp opt
 ---------
 Symbolic Z-matrix:
 Charge =  1 Multiplicity = 1

                         Standard orientation:
 ---------------------------------------------------------------------
 Center     Atomic      Atomic             Coordinates (Angstroms)
 Number     Number       Type             X           Y           Z
 ---------------------------------------------------------------------
      1          6           0       -2.337687   -0.000050    0.001075
      2          6           0       -1.084406   -0.786116   -0.000525
      3          6           0       -1.084356    0.786245   -0.000525
      4          6           0        1.431332   -0.000068    0.000216
      5          6           0        0.053368   -0.000043   -0.000665
      6          7           0        2.590071    0.000028    0.000364
 ---------------------------------------------------------------------

 SCF Done:  E(RB3LYP) =  -244.671036435     A.U. after   13 cycles

 The electronic state is 1-A.
 Alpha  occ. eigenvalues --  -14.63261 -10.61844 -10.57456 -10.57437 -10.56299
 Alpha  occ. eigenvalues --  -10.50563  -1.31180  -1.20365  -1.06469  -0.93956
 Alpha  occ. eigenvalues --   -0.86705  -0.74521  -0.72252  -0.64727  -0.63379
 Alpha  occ. eigenvalues --   -0.62310  -0.61243  -0.54984
 Alpha virt. eigenvalues --   -0.45400  -0.37078  -0.33881  -0.28128  -0.24058
 Alpha virt. eigenvalues --   -0.17137  -0.14186  -0.13160  -0.11780  -0.11651
 Alpha virt. eigenvalues --   -0.11385  -0.07795  -0.07697  -0.06391  -0.05926

 Mulliken charges:
               1
     1  C   -0.572232
     2  C    0.917471
     3  C    0.916865
     4  C   -0.469750
     5  C    0.954766
     6  N   -0.747120
 Sum of Mulliken charges =   1.00000

 Dipole moment (field-independent basis, Debye):
    X=             -1.0819    Y=             -0.0006    Z=             -0.0039  Tot=              1.0819
 Quadrupole moment (field-independent basis, Debye-Ang):
   XX=            -27.1616   YY=            -29.7957   ZZ=            -27.9983
   XY=              0.0005   XZ=              0.0077   YZ=              0.0000

  Exact polarizability:  89.169   0.001  41.171   0.009  -0.000  29.467
 Approx polarizability: 185.201   0.008  94.267   0.021   0.000  47.649

                      1                      2                      3
                      A                      A                      A
 Frequencies --    123.2152               177.7672               248.7042
 Red. masses --     12.3438                12.6346                12.2829
 Frc consts  --      0.1104                 0.2352                 0.4476
 IR Inten    --     24.3280                 8.1782                 0.1449

                      4                      5                      6
                      A                      A                      A
 Frequencies --    441.2790               586.2519               633.3567
 Red. masses --     12.0590                12.0218                12.5349
 Frc consts  --      1.3835                 2.4344                 2.9626
 IR Inten    --     25.1287                 0.3211                 6.3281

                      7                      8                      9
                      A                      A                      A
 Frequencies --    667.1339               925.1167              1170.2088
 Red. masses --     12.0205                12.1639                12.0002
 Frc consts  --      3.1521                 6.1336                 9.6820
 IR Inten    --     47.6504                 4.9294                 2.5156

                     10                     11                     12
                      A                      A                      A
 Frequencies --   1207.2836              1651.7369              2313.3241
 Red. masses --     12.0237                12.1116                12.6136
 Frc consts  --     10.3254                19.4686                39.7705
 IR Inten    --    376.2365               328.2260               518.9566

 - Thermochemistry -
 -------------------
 Temperature   298.150 Kelvin.  Pressure   1.00000 Atm.
 Atom     1 has atomic number  6 and mass  12.00000

 Molecular mass:    74.00307 amu.
 Principal axes and moments of inertia in atomic units:
                           1         2         3
     Eigenvalues --    52.97295 758.33879 811.31154
           X            1.00000  -0.00000  -0.00000
           Y            0.00000   1.00000  -0.00000
           Z            0.00000   0.00000   1.00000
 This molecule is an asymmetric top.
 Rotational symmetry number  1.
 Rotational temperatures (Kelvin)      1.63506     0.11422     0.10676
 Rotational constants (GHZ):          34.06911     2.37986     2.22447
 Zero-point vibrational energy      60682.8 (Joules/Mol)
                                   14.50355 (Kcal/Mol)
 Warning -- explicit consideration of   5 degrees of freedom as
           vibrations may cause significant error
 Vibrational temperatures:    177.28   255.77   357.83   634.90   843.48
          (Kelvin)            911.26   959.86  1331.03  1683.67  1737.01
                             2376.48  3328.35

 Zero-point correction=                           0.023113 (Hartree/Particle)
 Thermal correction to Energy=                    0.028516
 Thermal correction to Enthalpy=                  0.029461
 Thermal correction to Gibbs Free Energy=        -0.005325
 Sum of electronic and zero-point Energies=           -244.647924
 Sum of electronic and thermal Energies=              -244.642520
 Sum of electronic and thermal Enthalpies=            -244.641576
 Sum of electronic and thermal Free Energies=         -244.676362

                     E (Thermal)             CV                S
                      KCal/Mol        Cal/Mol-Kelvin    Cal/Mol-Kelvin
 Total                   17.894             16.762             73.213
 Electronic               0.000              0.000              0.000
 Translational            0.889              2.981             38.821
 Rotational               0.889              2.981             24.992
 Vibrational             16.117             10.800              9.400
 Vibration     1          0.610              1.930              3.049
 Vibration     2          0.628              1.870              2.352
 Vibration     3          0.662              1.765              1.740
 Vibration     4          0.801              1.380              0.823
 Vibration     5          0.943              1.061              0.474

 Normal termination of Gaussian 09 at Tue Aug 16 18:28:01 2016.
