 Gaussian 09, Revision E.01,
 Gaussian 09:  EM64L-G09RevE.01 30-Nov-2015

 ---------------------------------------------
 #p b3lyp/6-311++G(3df,2p) freq symmetry=Loose
 ---------------------------------------------

 ---------
 b3lyp opt
 ---------
 Symbolic Z-matrix:
 Charge =  0 Multiplicity = 4

                         Standard orientation:
 ---------------------------------------------------------------------
 Center     Atomic      Atomic             Coordinates (Angstroms)
 Number     Number       Type             X           Y           Z
 ---------------------------------------------------------------------
      1          6           0        3.022429   -0.092837    0.003143
      2          6           0       -0.629161   -0.237515   -0.003482
      3          6           0        0.585592    0.330373   -0.002136
      4          6           0       -1.889620   -0.032864   -0.001028
      5          6           0       -3.218973    0.036548    0.003722
      6          7           0        1.825486   -0.003175   -0.000189
 ---------------------------------------------------------------------

 SCF Done:  E(UB3LYP) =  -244.975599321     A.U. after   19 cycles

 The electronic state is 4-A.
 Alpha  occ. eigenvalues --  -14.43635 -10.34107 -10.29280 -10.26792 -10.26032
 Alpha  occ. eigenvalues --  -10.25727  -1.05443  -0.89069  -0.83651  -0.75920
 Alpha  occ. eigenvalues --   -0.65148  -0.51122  -0.50495  -0.41604  -0.40687
 Alpha  occ. eigenvalues --   -0.38112  -0.33837  -0.33697  -0.30719  -0.22719
 Alpha virt. eigenvalues --   -0.13829  -0.04933  -0.02066  -0.02021   0.02697
 Alpha virt. eigenvalues --    0.03385   0.03657   0.03884   0.05332   0.05903
 Alpha virt. eigenvalues --    0.07052   0.07388   0.07703   0.07886   0.10317

  Beta  occ. eigenvalues --  -14.43789 -10.32205 -10.28518 -10.26211 -10.25323
  Beta  occ. eigenvalues --  -10.24684  -1.04325  -0.86237  -0.80858  -0.72518
  Beta  occ. eigenvalues --   -0.63030  -0.48213  -0.47439  -0.37967  -0.36985
  Beta  occ. eigenvalues --   -0.36256  -0.31174
  Beta virt. eigenvalues --   -0.21046  -0.21012  -0.10706  -0.09720  -0.02643
  Beta virt. eigenvalues --    0.00067   0.00208   0.02996   0.04659   0.04881
  Beta virt. eigenvalues --    0.05329   0.06177   0.06456   0.07430   0.07657

 Mulliken charges and spin densities:
               1          2
     1  C    0.052751   0.453536
     2  C    0.122040   0.354753
     3  C    0.156500   1.115448
     4  C    0.812512   0.340656
     5  C   -0.615921   0.861857
     6  N   -0.527882  -0.126251
 Sum of Mulliken charges =  -0.00000   3.00000

 Dipole moment (field-independent basis, Debye):
    X=              1.6624    Y=              0.3546    Z=             -0.0113  Tot=              1.6998
 Quadrupole moment (field-independent basis, Debye-Ang):
   XX=            -53.3140   YY=            -34.1097   ZZ=            -32.5071
   XY=              0.8995   XZ=              0.0152   YZ=             -0.0027

  Exact polarizability: 174.981  -3.652  44.921  -0.007   0.007  41.451
 Approx polarizability: 340.237 -10.555  63.927  -0.083   0.010  58.865

                      1                      2                      3
                      A                      A                      A
 Frequencies --     70.6585               103.5229               220.0278
 Red. masses --     12.0040                12.0035                12.4139
 Frc consts  --      0.0353                 0.0758                 0.3541
 IR Inten    --      5.8656                13.2082                 1.7624

                      4                      5                      6
                      A                      A                      A
 Frequencies --    252.0800               352.2432               393.9822
 Red. masses --     12.5491                12.0189                12.6560
 Frc consts  --      0.4698                 0.8786                 1.1574
 IR Inten    --      4.6518                21.0957                 4.6601

                      7                      8                      9
                      A                      A                      A
 Frequencies --    440.8659               765.2183              1188.4787
 Red. masses --     12.8962                12.2781                12.0327
 Frc consts  --      1.4768                 4.2360                10.0138
 IR Inten    --      1.4821                 3.1213                65.2246

                     10                     11                     12
                      A                      A                      A
 Frequencies --   1506.7304              1856.3578              1947.2819
 Red. masses --     12.0149                12.9655                12.0745
 Frc consts  --     16.0710                26.3248                26.9761
 IR Inten    --    186.1203               184.1240                14.6694

 - Thermochemistry -
 -------------------
 Temperature   298.150 Kelvin.  Pressure   1.00000 Atm.
 Atom     1 has atomic number  6 and mass  12.00000

 Molecular mass:    74.00307 amu.
 Principal axes and moments of inertia in atomic units:
                           1         2         3
     Eigenvalues --     7.569831186.806821194.37310
           X            1.00000   0.00000   0.00000
           Y           -0.00000   1.00000  -0.00000
           Z           -0.00000   0.00000   1.00000
 This molecule is an asymmetric top.
 Rotational symmetry number  1.
 Rotational temperatures (Kelvin)     11.44197     0.07298     0.07252
 Rotational constants (GHZ):         238.41231     1.52067     1.51104
 Zero-point vibrational energy      54414.8 (Joules/Mol)
                                   13.00545 (Kcal/Mol)
 Warning -- explicit consideration of   7 degrees of freedom as
           vibrations may cause significant error
 Vibrational temperatures:    101.66   148.95   316.57   362.69   506.80
          (Kelvin)            566.85   634.31  1100.98  1709.95  2167.85
                             2670.88  2801.70

 Zero-point correction=                           0.020726 (Hartree/Particle)
 Thermal correction to Energy=                    0.027151
 Thermal correction to Enthalpy=                  0.028095
 Thermal correction to Gibbs Free Energy=        -0.009878
 Sum of electronic and zero-point Energies=           -244.954874
 Sum of electronic and thermal Energies=              -244.948448
 Sum of electronic and thermal Enthalpies=            -244.947504
 Sum of electronic and thermal Free Energies=         -244.985478

                     E (Thermal)             CV                S
                      KCal/Mol        Cal/Mol-Kelvin    Cal/Mol-Kelvin
 Total                   17.037             18.911             79.922
 Electronic               0.000              0.000              2.755
 Translational            0.889              2.981             38.821
 Rotational               0.889              2.981             23.888
 Vibrational             15.260             12.950             14.458
 Vibration     1          0.598              1.968              4.135
 Vibration     2          0.605              1.946              3.387
 Vibration     3          0.647              1.811              1.959
 Vibration     4          0.664              1.759              1.716
 Vibration     5          0.729              1.571              1.156
 Vibration     6          0.761              1.483              0.985
 Vibration     7          0.801              1.381              0.824

 Normal termination of Gaussian 09 at Tue Aug 16 18:39:58 2016.
