 Gaussian 09, Revision E.01,
 Gaussian 09:  EM64L-G09RevE.01 30-Nov-2015

 ---------------------------------------------
 #p b3lyp/6-311++G(3df,2p) freq symmetry=Loose
 ---------------------------------------------

 ---------
 b3lyp opt
 ---------
 Symbolic Z-matrix:
 Charge =  0 Multiplicity = 4

                         Standard orientation:
 ---------------------------------------------------------------------
 Center     Atomic      Atomic             Coordinates (Angstroms)
 Number     Number       Type             X           Y           Z
 ---------------------------------------------------------------------
      1          7           0        0.426192    2.147231    0.000000
      2          6           0       -0.187906   -3.000275   -0.000000
      3          6           0        0.000000    0.765401    0.000000
      4          6           0        0.456291   -0.478957   -0.000000
      5          6           0       -0.818251    1.916887    0.000000
      6          6           0        0.052642   -1.708158   -0.000000
 ---------------------------------------------------------------------

 SCF Done:  E(UB3LYP) =  -244.950828219     A.U. after   22 cycles

 The electronic state is 4-A".
 Alpha  occ. eigenvalues --  -14.44115 -10.35028 -10.32133 -10.25690 -10.24824
 Alpha  occ. eigenvalues --  -10.24507  -1.12031  -0.87245  -0.79168  -0.67535
 Alpha  occ. eigenvalues --   -0.63068  -0.56755  -0.51564  -0.43161  -0.40884
 Alpha  occ. eigenvalues --   -0.39802  -0.34274  -0.32719  -0.28762  -0.24609
 Alpha virt. eigenvalues --   -0.11270  -0.07537  -0.01171   0.00726   0.02358
 Alpha virt. eigenvalues --    0.03522   0.03691   0.05426   0.05676   0.07027
 Alpha virt. eigenvalues --    0.07818   0.08152   0.08591   0.09644   0.10227

  Beta  occ. eigenvalues --  -14.43307 -10.34073 -10.31114 -10.24844 -10.24469
  Beta  occ. eigenvalues --  -10.23170  -1.10382  -0.84699  -0.74997  -0.64834
  Beta  occ. eigenvalues --   -0.60289  -0.53203  -0.48741  -0.40216  -0.36481
  Beta  occ. eigenvalues --   -0.35251  -0.30014
  Beta virt. eigenvalues --   -0.22513  -0.19265  -0.12618  -0.08306  -0.03785
  Beta virt. eigenvalues --    0.00160   0.02168   0.03002   0.03762   0.05408
  Beta virt. eigenvalues --    0.05753   0.06531   0.07641   0.08091   0.09049

 Mulliken charges and spin densities:
               1          2
     1  N   -0.483301   0.306376
     2  C   -0.675888   0.932948
     3  C    0.525853   0.401681
     4  C    0.022248   0.485951
     5  C   -0.488767   0.518047
     6  C    1.099855   0.354997
 Sum of Mulliken charges =  -0.00000   3.00000

 Dipole moment (field-independent basis, Debye):
    X=             -0.3992    Y=              3.2944    Z=             -0.0000  Tot=              3.3185
 Quadrupole moment (field-independent basis, Debye-Ang):
   XX=            -35.1788   YY=            -46.4406   ZZ=            -32.4276
   XY=             -2.1732   XZ=             -0.0000   YZ=             -0.0000

  Exact polarizability:  51.740  -2.918 153.607  -0.001  -0.001  39.054
 Approx polarizability:  84.738  -0.628 309.428  -0.000   0.000  56.080

                      1                      2                      3
                     A'                     A"                     A'
 Frequencies --     94.3969               141.8480               333.4174
 Red. masses --     12.1236                12.5263                12.0104
 Frc consts  --      0.0636                 0.1485                 0.7867
 IR Inten    --      4.8919                11.6833                11.5026

                      4                      5                      6
                     A"                     A'                     A"
 Frequencies --    352.8815               427.1099               458.8542
 Red. masses --     12.1009                12.8069                12.0025
 Frc consts  --      0.8878                 1.3765                 1.4889
 IR Inten    --      1.6717                 4.8441                 8.5960

                      7                      8                      9
                     A'                     A'                     A'
 Frequencies --    597.6638               716.5618              1187.3391
 Red. masses --     12.5196                12.1269                12.0935
 Frc consts  --      2.6348                 3.6687                10.0450
 IR Inten    --     30.4264                30.5686                10.9841

                     10                     11                     12
                     A'                     A'                     A'
 Frequencies --   1516.5543              1707.7809              1991.9381
 Red. masses --     12.3401                12.4381                12.0061
 Frc consts  --     16.7219                21.3732                28.0674
 IR Inten    --    287.5822               360.6929               202.4170

 - Thermochemistry -
 -------------------
 Temperature   298.150 Kelvin.  Pressure   1.00000 Atm.
 Atom     1 has atomic number  7 and mass  14.00307

 Molecular mass:    74.00307 amu.
 Principal axes and moments of inertia in atomic units:
                           1         2         3
     Eigenvalues --    48.20355 933.85967 982.06322
           X           -0.01187   0.99993   0.00000
           Y            0.99993   0.01187  -0.00000
           Z            0.00000  -0.00000   1.00000
 This molecule is an asymmetric top.
 Rotational symmetry number  1.
 Rotational temperatures (Kelvin)      1.79683     0.09275     0.08820
 Rotational constants (GHZ):          37.44001     1.93256     1.83770
 Zero-point vibrational energy      56980.2 (Joules/Mol)
                                   13.61860 (Kcal/Mol)
 Warning -- explicit consideration of   7 degrees of freedom as
           vibrations may cause significant error
 Vibrational temperatures:    135.82   204.09   479.71   507.72   614.52
          (Kelvin)            660.19   859.90  1030.97  1708.31  2181.98
                             2457.11  2865.95

 Zero-point correction=                           0.021703 (Hartree/Particle)
 Thermal correction to Energy=                    0.027509
 Thermal correction to Enthalpy=                  0.028453
 Thermal correction to Gibbs Free Energy=        -0.008632
 Sum of electronic and zero-point Energies=           -244.929126
 Sum of electronic and thermal Energies=              -244.923319
 Sum of electronic and thermal Enthalpies=            -244.922375
 Sum of electronic and thermal Free Energies=         -244.959460

                     E (Thermal)             CV                S
                      KCal/Mol        Cal/Mol-Kelvin    Cal/Mol-Kelvin
 Total                   17.262             17.923             78.052
 Electronic               0.000              0.000              2.755
 Translational            0.889              2.981             38.821
 Rotational               0.889              2.981             25.295
 Vibrational             15.485             11.962             11.182
 Vibration     1          0.603              1.953              3.567
 Vibration     2          0.615              1.911              2.779
 Vibration     3          0.715              1.609              1.243
 Vibration     4          0.729              1.569              1.153
 Vibration     5          0.789              1.411              0.868
 Vibration     6          0.817              1.341              0.769
 Vibration     7          0.956              1.037              0.454

 Normal termination of Gaussian 09 at Tue Aug 16 18:38:00 2016.
