 Gaussian 09, Revision E.01,
 Gaussian 09:  EM64L-G09RevE.01 30-Nov-2015

 ---------------------------------------------
 #p b3lyp/6-311++G(3df,2p) freq symmetry=Loose
 ---------------------------------------------

 ---------
 b3lyp opt
 ---------
 Symbolic Z-matrix:
 Charge =  0 Multiplicity = 4

                         Standard orientation:
 ---------------------------------------------------------------------
 Center     Atomic      Atomic             Coordinates (Angstroms)
 Number     Number       Type             X           Y           Z
 ---------------------------------------------------------------------
      1          6           0       -0.359965    1.816440   -0.000000
      2          6           0        1.294982    0.046244   -0.000000
      3          6           0       -1.098046   -0.481861    0.000000
      4          6           0        2.498533   -0.419272   -0.000000
      5          6           0       -0.000000    0.435369   -0.000000
      6          7           0       -2.001860   -1.197361    0.000000
 ---------------------------------------------------------------------

 SCF Done:  E(UB3LYP) =  -244.942464989     A.U. after   24 cycles

 The electronic state is 4-A".
 Alpha  occ. eigenvalues --  -14.37151 -10.32886 -10.31638 -10.28207 -10.27601
 Alpha  occ. eigenvalues --  -10.26844  -0.97143  -0.91799  -0.82514  -0.69742
 Alpha  occ. eigenvalues --   -0.65895  -0.46942  -0.43922  -0.42143  -0.39466
 Alpha  occ. eigenvalues --   -0.39047  -0.36498  -0.35400  -0.32613  -0.29345
 Alpha virt. eigenvalues --   -0.14817  -0.06069  -0.03073  -0.00845   0.00290
 Alpha virt. eigenvalues --    0.02954   0.03397   0.03574   0.05905   0.06155
 Alpha virt. eigenvalues --    0.06657   0.06896   0.08004   0.09137   0.09896

  Beta  occ. eigenvalues --  -14.36970 -10.32667 -10.28822 -10.27213 -10.27004
  Beta  occ. eigenvalues --  -10.26736  -0.96551  -0.89643  -0.78169  -0.64674
  Beta  occ. eigenvalues --   -0.64475  -0.45045  -0.41718  -0.39880  -0.36667
  Beta  occ. eigenvalues --   -0.33920  -0.33052
  Beta virt. eigenvalues --   -0.25687  -0.22528  -0.11800  -0.09239  -0.03727
  Beta virt. eigenvalues --   -0.01118  -0.00347   0.01624   0.03795   0.04136
  Beta virt. eigenvalues --    0.04154   0.06218   0.06325   0.07262   0.07508

 Mulliken charges and spin densities:
               1          2
     1  C   -0.180024   1.804803
     2  C    0.637812   0.393578
     3  C    0.551414   0.023867
     4  C   -0.540141   0.510206
     5  C    0.465001   0.180889
     6  N   -0.934062   0.086657
 Sum of Mulliken charges =  -0.00000   3.00000

 Dipole moment (field-independent basis, Debye):
    X=              0.3888    Y=              1.6708    Z=             -0.0000  Tot=              1.7155
 Quadrupole moment (field-independent basis, Debye-Ang):
   XX=            -45.0270   YY=            -37.3129   ZZ=            -32.5584
   XY=             -0.6016   XZ=              0.0000   YZ=              0.0000

  Exact polarizability: 143.700 -38.716 100.926   0.000  -0.000  40.829
 Approx polarizability: 289.442-111.643 205.109  -0.000  -0.000  57.716

                      1                      2                      3
                     A'                     A"                     A'
 Frequencies --    121.1055               180.1876               237.6669
 Red. masses --     12.4696                12.1267                12.3822
 Frc consts  --      0.1078                 0.2320                 0.4121
 IR Inten    --      7.7353                24.3041                22.4743

                      4                      5                      6
                     A"                     A'                     A'
 Frequencies --    322.2553               458.8893               579.2849
 Red. masses --     12.3191                12.1723                12.1103
 Frc consts  --      0.7538                 1.5102                 2.3944
 IR Inten    --      0.1087                20.0542                 0.8539

                      7                      8                      9
                     A"                     A'                     A'
 Frequencies --    616.4896               737.9352              1085.6090
 Red. masses --     12.0390                12.3303                12.0559
 Frc consts  --      2.6958                 3.9560                 8.3714
 IR Inten    --      0.2264                29.3694               211.0377

                     10                     11                     12
                     A'                     A'                     A'
 Frequencies --   1232.5324              1826.8540              2310.5260
 Red. masses --     12.0886                12.0010                12.6952
 Frc consts  --     10.8199                23.5981                39.9310
 IR Inten    --     29.4183               290.2279                18.0986

 - Thermochemistry -
 -------------------
 Temperature   298.150 Kelvin.  Pressure   1.00000 Atm.
 Atom     1 has atomic number  6 and mass  12.00000

 Molecular mass:    74.00307 amu.
 Principal axes and moments of inertia in atomic units:
                           1         2         3
     Eigenvalues --   224.77877 610.99638 835.77515
           X            0.98171  -0.19040   0.00000
           Y            0.19040   0.98171   0.00000
           Z            0.00000  -0.00000   1.00000
 This molecule is an asymmetric top.
 Rotational symmetry number  1.
 Rotational temperatures (Kelvin)      0.38533     0.14176     0.10363
 Rotational constants (GHZ):           8.02897     2.95377     2.15936
 Zero-point vibrational energy      58074.7 (Joules/Mol)
                                   13.88019 (Kcal/Mol)
 Warning -- explicit consideration of   7 degrees of freedom as
           vibrations may cause significant error
 Vibrational temperatures:    174.24   259.25   341.95   463.65   660.24
          (Kelvin)            833.46   886.99  1061.72  1561.95  1773.34
                             2628.43  3324.33

 Zero-point correction=                           0.022119 (Hartree/Particle)
 Thermal correction to Energy=                    0.027857
 Thermal correction to Enthalpy=                  0.028801
 Thermal correction to Gibbs Free Energy=        -0.008447
 Sum of electronic and zero-point Energies=           -244.920345
 Sum of electronic and thermal Energies=              -244.914608
 Sum of electronic and thermal Enthalpies=            -244.913664
 Sum of electronic and thermal Free Energies=         -244.950912

                     E (Thermal)             CV                S
                      KCal/Mol        Cal/Mol-Kelvin    Cal/Mol-Kelvin
 Total                   17.480             17.850             78.394
 Electronic               0.000              0.000              2.755
 Translational            0.889              2.981             38.821
 Rotational               0.889              2.981             26.243
 Vibrational             15.703             11.888             10.576
 Vibration     1          0.609              1.932              3.083
 Vibration     2          0.629              1.867              2.326
 Vibration     3          0.656              1.783              1.820
 Vibration     4          0.707              1.631              1.299
 Vibration     5          0.817              1.341              0.769
 Vibration     6          0.936              1.076              0.487
 Vibration     7          0.976              0.997              0.422

 Normal termination of Gaussian 09 at Tue Aug 16 18:38:27 2016.
