 Gaussian 09, Revision E.01,
 Gaussian 09:  EM64L-G09RevE.01 30-Nov-2015

 ---------------------------------------------
 #p b3lyp/6-311++G(3df,2p) freq symmetry=Loose
 ---------------------------------------------

 ---------
 b3lyp opt
 ---------
 Symbolic Z-matrix:
 Charge =  1 Multiplicity = 3

                         Standard orientation:
 ---------------------------------------------------------------------
 Center     Atomic      Atomic             Coordinates (Angstroms)
 Number     Number       Type             X           Y           Z
 ---------------------------------------------------------------------
      1          7           0       -1.255974    0.648184   -0.000000
      2          6           0       -0.991835   -0.708724    0.000000
      3          6           0        1.305286    0.689492   -0.000000
      4          6           0       -1.327128   -2.029722    0.000000
      5          6           0       -0.000000    0.310744   -0.000000
      6          6           0        2.478979    0.981997   -0.000000
 ---------------------------------------------------------------------

 SCF Done:  E(UB3LYP) =  -244.575928411     A.U. after   29 cycles

 The electronic state is 3-A".
 Alpha  occ. eigenvalues --  -14.67645 -10.58159 -10.53887 -10.53751 -10.53284
 Alpha  occ. eigenvalues --  -10.46424  -1.35136  -1.06727  -1.03774  -0.95423
 Alpha  occ. eigenvalues --   -0.82934  -0.75704  -0.74289  -0.65962  -0.61875
 Alpha  occ. eigenvalues --   -0.59289  -0.57784  -0.55424  -0.53746
 Alpha virt. eigenvalues --   -0.38424  -0.36470  -0.25786  -0.24886  -0.16275
 Alpha virt. eigenvalues --   -0.14235  -0.11934  -0.10677  -0.10134  -0.07768
 Alpha virt. eigenvalues --   -0.07017  -0.06096  -0.05972  -0.05079  -0.03265

  Beta  occ. eigenvalues --  -14.67301 -10.58103 -10.53507 -10.52997 -10.50781
  Beta  occ. eigenvalues --  -10.46386  -1.34575  -1.05710  -1.00759  -0.93688
  Beta  occ. eigenvalues --   -0.82331  -0.75252  -0.72343  -0.61487  -0.56905
  Beta  occ. eigenvalues --   -0.56098  -0.53866
  Beta virt. eigenvalues --   -0.43285  -0.42305  -0.37309  -0.33787  -0.22464
  Beta virt. eigenvalues --   -0.20932  -0.15991  -0.12147  -0.11523  -0.10385
  Beta virt. eigenvalues --   -0.10083  -0.07345  -0.06697  -0.05435  -0.05288

 Mulliken charges and spin densities:
               1          2
     1  N   -0.519843   0.156261
     2  C    0.776708   0.223950
     3  C    0.636257  -0.310630
     4  C   -0.173984   0.462454
     5  C    0.053094   0.058126
     6  C    0.227767   1.409840
 Sum of Mulliken charges =   1.00000   2.00000

 Dipole moment (field-independent basis, Debye):
    X=              1.8954    Y=              0.3831    Z=              0.0000  Tot=              1.9338
 Quadrupole moment (field-independent basis, Debye-Ang):
   XX=            -15.3968   YY=            -28.1385   ZZ=            -29.3339
   XY=              6.9513   XZ=             -0.0000   YZ=              0.0000

  Exact polarizability:  80.065  23.890  65.688  -0.000  -0.000  32.462
 Approx polarizability: 161.551  47.756 122.411  -0.000  -0.000  45.146

                      1                      2                      3
                     A'                     A"                     A'
 Frequencies --    118.1569               197.1408               215.8755
 Red. masses --     12.1102                12.2385                12.1490
 Frc consts  --      0.0996                 0.2802                 0.3336
 IR Inten    --      0.5732                 0.4706                 2.4295

                      4                      5                      6
                     A"                     A'                     A"
 Frequencies --    281.1652               492.0222               546.0049
 Red. masses --     12.0976                12.2751                12.0395
 Frc consts  --      0.5635                 1.7508                 2.1147
 IR Inten    --     23.1993                 8.3493                 1.0026

                      7                      8                      9
                     A'                     A'                     A'
 Frequencies --    722.0657               861.5721              1037.1703
 Red. masses --     12.2094                12.6612                12.8663
 Frc consts  --      3.7506                 5.5374                 8.1546
 IR Inten    --      2.4481                28.5059               156.7524

                     10                     11                     12
                     A'                     A'                     A'
 Frequencies --   1359.7813              1781.2954              2212.7894
 Red. masses --     12.0621                12.3534                12.0031
 Frc consts  --     13.1405                23.0945                34.6278
 IR Inten    --     87.1366               310.5167               421.1750

 - Thermochemistry -
 -------------------
 Temperature   298.150 Kelvin.  Pressure   1.00000 Atm.
 Atom     1 has atomic number  7 and mass  14.00307

 Molecular mass:    74.00307 amu.
 Principal axes and moments of inertia in atomic units:
                           1         2         3
     Eigenvalues --   131.86829 685.91337 817.78167
           X            0.85075  -0.52557   0.00000
           Y            0.52557   0.85075   0.00000
           Z            0.00000  -0.00000   1.00000
 This molecule is an asymmetric top.
 Rotational symmetry number  1.
 Rotational temperatures (Kelvin)      0.65682     0.12628     0.10591
 Rotational constants (GHZ):          13.68594     2.63115     2.20687
 Zero-point vibrational energy      58766.8 (Joules/Mol)
                                   14.04560 (Kcal/Mol)
 Warning -- explicit consideration of   6 degrees of freedom as
           vibrations may cause significant error
 Vibrational temperatures:    170.00   283.64   310.60   404.53   707.91
          (Kelvin)            785.58  1038.89  1239.61  1492.25  1956.42
                             2562.88  3183.71

 Zero-point correction=                           0.022383 (Hartree/Particle)
 Thermal correction to Energy=                    0.028093
 Thermal correction to Enthalpy=                  0.029037
 Thermal correction to Gibbs Free Energy=        -0.007738
 Sum of electronic and zero-point Energies=           -244.553545
 Sum of electronic and thermal Energies=              -244.547835
 Sum of electronic and thermal Enthalpies=            -244.546891
 Sum of electronic and thermal Free Energies=         -244.583667

                     E (Thermal)             CV                S
                      KCal/Mol        Cal/Mol-Kelvin    Cal/Mol-Kelvin
 Total                   17.629             17.515             77.400
 Electronic               0.000              0.000              2.183
 Translational            0.889              2.981             38.821
 Rotational               0.889              2.981             25.806
 Vibrational             15.851             11.554             10.590
 Vibration     1          0.608              1.934              3.130
 Vibration     2          0.637              1.844              2.160
 Vibration     3          0.645              1.817              1.993
 Vibration     4          0.681              1.708              1.527
 Vibration     5          0.848              1.268              0.678
 Vibration     6          0.901              1.148              0.553

 Optimization completed.
    -- Stationary point found.
 Normal termination of Gaussian 09 at Tue Aug 16 18:44:09 2016.
