 Gaussian 09, Revision E.01,
 Gaussian 09:  EM64L-G09RevE.01 30-Nov-2015

 ---------------------------------------------
 #p b3lyp/6-311++G(3df,2p) freq symmetry=Loose
 ---------------------------------------------

 ---------
 b3lyp opt
 ---------
 Symbolic Z-matrix:
 Charge =  1 Multiplicity = 3

                         Standard orientation:
 ---------------------------------------------------------------------
 Center     Atomic      Atomic             Coordinates (Angstroms)
 Number     Number       Type             X           Y           Z
 ---------------------------------------------------------------------
      1          6           0        1.073867   -0.937063   -0.208747
      2          6           0       -2.485230    0.000454    0.140876
      3          6           0        1.858664    0.000375    0.433644
      4          6           0       -0.010488   -0.000263   -0.163814
      5          6           0        1.073277    0.937168   -0.209006
      6          7           0       -1.294362   -0.000575    0.006040
 ---------------------------------------------------------------------

 SCF Done:  E(UB3LYP) =  -244.621779810     A.U. after   18 cycles

 The electronic state is 3-A.
 Alpha  occ. eigenvalues --  -14.63400 -10.61347 -10.56256 -10.54917 -10.54915
 Alpha  occ. eigenvalues --  -10.51548  -1.29610  -1.23964  -1.04448  -0.92297
 Alpha  occ. eigenvalues --   -0.88703  -0.75225  -0.74780  -0.65952  -0.64166
 Alpha  occ. eigenvalues --   -0.62795  -0.57223  -0.56491  -0.53456
 Alpha virt. eigenvalues --   -0.39098  -0.34209  -0.28987  -0.25642  -0.18140
 Alpha virt. eigenvalues --   -0.15190  -0.11906  -0.11689  -0.10850  -0.09070
 Alpha virt. eigenvalues --   -0.07443  -0.06195  -0.06087  -0.05674  -0.04678

  Beta  occ. eigenvalues --  -14.63403 -10.60997 -10.54751 -10.53624 -10.53623
  Beta  occ. eigenvalues --  -10.51493  -1.28623  -1.23337  -1.03998  -0.89316
  Beta  occ. eigenvalues --   -0.86159  -0.73719  -0.72845  -0.63660  -0.61977
  Beta  occ. eigenvalues --   -0.57579  -0.56222
  Beta virt. eigenvalues --   -0.43439  -0.39632  -0.36861  -0.31735  -0.25993
  Beta virt. eigenvalues --   -0.25083  -0.17242  -0.14679  -0.11673  -0.10576
  Beta virt. eigenvalues --   -0.10203  -0.08697  -0.07275  -0.06040  -0.05703

 Mulliken charges and spin densities:
               1          2
     1  C   -0.050117   0.621954
     2  C    0.253267   0.032049
     3  C    0.448707   0.674191
     4  C    0.896296   0.046470
     5  C   -0.049494   0.621990
     6  N   -0.498658   0.003347
 Sum of Mulliken charges =   1.00000   2.00000

 Dipole moment (field-independent basis, Debye):
    X=              2.1242    Y=             -0.0000    Z=              0.1352  Tot=              2.1285
 Quadrupole moment (field-independent basis, Debye-Ang):
   XX=            -21.8265   YY=            -29.2570   ZZ=            -28.8393
   XY=              0.0017   XZ=              0.7143   YZ=              0.0001

  Exact polarizability:  80.543  -0.006  49.199   1.514  -0.001  33.165
 Approx polarizability: 145.306  -0.021 105.731   6.945  -0.003  53.170

                      1                      2                      3
                      A                      A                      A
 Frequencies --    143.1103               151.0316               323.3528
 Red. masses --     12.5781                12.5379                12.5819
 Frc consts  --      0.1518                 0.1685                 0.7751
 IR Inten    --      1.4306                 0.3718                 5.6767

                      4                      5                      6
                      A                      A                      A
 Frequencies --    490.2010               515.8784               674.9430
 Red. masses --     12.0979                12.6881                12.1062
 Frc consts  --      1.7128                 1.9895                 3.2493
 IR Inten    --     25.0815                 6.0908                18.3320

                      7                      8                      9
                      A                      A                      A
 Frequencies --    836.2872               846.7281              1181.1092
 Red. masses --     12.0059                12.2145                12.0057
 Frc consts  --      4.9472                 5.1596                 9.8677
 IR Inten    --      9.0014                 4.5646                 1.3260

                     10                     11                     12
                      A                      A                      A
 Frequencies --   1409.1777              1542.8267              2081.4748
 Red. masses --     12.0030                12.0001                13.1203
 Frc consts  --     14.0433                16.8294                33.4917
 IR Inten    --     87.1775                83.2133              1273.5267

 - Thermochemistry -
 -------------------
 Temperature   298.150 Kelvin.  Pressure   1.00000 Atm.
 Atom     1 has atomic number  6 and mass  12.00000

 Molecular mass:    74.00307 amu.
 Principal axes and moments of inertia in atomic units:
                           1         2         3
     Eigenvalues --    89.06533 609.07880 670.54438
           X            1.00000  -0.00000   0.00000
           Y            0.00000   1.00000   0.00000
           Z           -0.00000  -0.00000   1.00000
 This molecule is an asymmetric top.
 Rotational symmetry number  1.
 Rotational temperatures (Kelvin)      0.97248     0.14220     0.12917
 Rotational constants (GHZ):          20.26312     2.96307     2.69146
 Zero-point vibrational energy      60986.3 (Joules/Mol)
                                   14.57609 (Kcal/Mol)
 Warning -- explicit consideration of   5 degrees of freedom as
           vibrations may cause significant error
 Vibrational temperatures:    205.90   217.30   465.23   705.29   742.23
          (Kelvin)            971.09  1203.23  1218.25  1699.35  2027.49
                             2219.78  2994.77

 Zero-point correction=                           0.023228 (Hartree/Particle)
 Thermal correction to Energy=                    0.028481
 Thermal correction to Enthalpy=                  0.029425
 Thermal correction to Gibbs Free Energy=        -0.006154
 Sum of electronic and zero-point Energies=           -244.598551
 Sum of electronic and thermal Energies=              -244.593299
 Sum of electronic and thermal Enthalpies=            -244.592354
 Sum of electronic and thermal Free Energies=         -244.627934

                     E (Thermal)             CV                S
                      KCal/Mol        Cal/Mol-Kelvin    Cal/Mol-Kelvin
 Total                   17.872             16.329             74.884
 Electronic               0.000              0.000              2.183
 Translational            0.889              2.981             38.821
 Rotational               0.889              2.981             25.101
 Vibrational             16.095             10.368              8.779
 Vibration     1          0.616              1.910              2.762
 Vibration     2          0.618              1.902              2.659
 Vibration     3          0.708              1.629              1.293
 Vibration     4          0.846              1.272              0.683
 Vibration     5          0.871              1.215              0.620

 Normal termination of Gaussian 09 at Tue Aug 16 18:48:49 2016.
