 Gaussian 09, Revision E.01,
 Gaussian 09:  EM64L-G09RevE.01 30-Nov-2015

 ---------------------------------------------
 #p b3lyp/6-311++G(3df,2p) freq symmetry=Loose
 ---------------------------------------------

 ---------
 b3lyp opt
 ---------
 Symbolic Z-matrix:
 Charge =  0 Multiplicity = 2

                         Standard orientation:
 ---------------------------------------------------------------------
 Center     Atomic      Atomic             Coordinates (Angstroms)
 Number     Number       Type             X           Y           Z
 ---------------------------------------------------------------------
      1          7           0        2.383003    0.001153    0.123088
      2          6           0       -0.155775   -0.001494   -0.212507
      3          6           0       -1.570786    0.002300    0.547301
      4          6           0       -1.150455   -1.084296   -0.225090
      5          6           0        1.240207   -0.004185   -0.026931
      6          6           0       -1.143361    1.086331   -0.226376
 ---------------------------------------------------------------------

 SCF Done:  E(UB3LYP) =  -245.001593186     A.U. after   19 cycles

 The electronic state is 2-A.
 Alpha  occ. eigenvalues --  -14.37854 -10.34071 -10.31208 -10.28962 -10.28954
 Alpha  occ. eigenvalues --  -10.26947  -1.05106  -0.96881  -0.76723  -0.72890
 Alpha  occ. eigenvalues --   -0.57505  -0.49834  -0.47062  -0.42718  -0.41065
 Alpha  occ. eigenvalues --   -0.38835  -0.38034  -0.31934  -0.30633
 Alpha virt. eigenvalues --   -0.13671  -0.11270  -0.05723  -0.02972   0.00249
 Alpha virt. eigenvalues --    0.02082   0.02745   0.04117   0.05906   0.06154
 Alpha virt. eigenvalues --    0.06579   0.07328   0.07779   0.08269   0.10420

  Beta  occ. eigenvalues --  -14.37641 -10.33537 -10.29982 -10.28832 -10.28825
  Beta  occ. eigenvalues --  -10.27005  -1.04349  -0.96488  -0.75820  -0.72494
  Beta  occ. eigenvalues --   -0.53748  -0.48826  -0.46452  -0.42166  -0.40030
  Beta  occ. eigenvalues --   -0.38608  -0.36501  -0.30006
  Beta virt. eigenvalues --   -0.20019  -0.13631  -0.09414  -0.04338  -0.02899
  Beta virt. eigenvalues --    0.00411   0.02505   0.03117   0.04216   0.06014
  Beta virt. eigenvalues --    0.06164   0.06885   0.08066   0.08218   0.08278

 Mulliken charges and spin densities:
               1          2
     1  N   -0.927879   0.102690
     2  C    0.857617   0.304602
     3  C    0.269720   0.659276
     4  C   -0.303382  -0.020051
     5  C    0.407935  -0.026834
     6  C   -0.304012  -0.019684
 Sum of Mulliken charges =  -0.00000   1.00000

 Dipole moment (field-independent basis, Debye):
    X=             -1.3631    Y=             -0.0065    Z=              0.8469  Tot=              1.6048
 Quadrupole moment (field-independent basis, Debye-Ang):
   XX=            -40.1750   YY=            -38.2878   ZZ=            -32.7848
   XY=             -0.0258   XZ=             -2.0276   YZ=              0.0030

  Exact polarizability:  76.857   0.065  58.857  -1.873  -0.004  38.899
 Approx polarizability: 134.349   0.243 114.200  -6.039   0.002  63.795

                      1                      2                      3
                      A                      A                      A
 Frequencies --    198.2066               208.4966               489.5550
 Red. masses --     12.5835                12.5125                12.1591
 Frc consts  --      0.2913                 0.3205                 1.7169
 IR Inten    --      6.7221                12.6835                 9.3723

                      4                      5                      6
                      A                      A                      A
 Frequencies --    497.2681               513.3655               649.1041
 Red. masses --     12.0853                12.0627                12.0341
 Frc consts  --      1.7607                 1.8730                 2.9874
 IR Inten    --      1.6891                 4.5081                 0.0016

                      7                      8                      9
                      A                      A                      A
 Frequencies --    665.8689               819.0839              1135.0257
 Red. masses --     12.4108                12.0165                12.0069
 Frc consts  --      3.2421                 4.7499                 9.1137
 IR Inten    --      1.6090                13.0909                 2.5075

                     10                     11                     12
                      A                      A                      A
 Frequencies --   1140.7184              1400.2410              2316.1961
 Red. masses --     12.0925                12.0629                12.6839
 Frc consts  --      9.2709                13.9350                40.0918
 IR Inten    --      2.8391                 6.5152                 2.6453

 - Thermochemistry -
 -------------------
 Temperature   298.150 Kelvin.  Pressure   1.00000 Atm.
 Atom     1 has atomic number  7 and mass  14.00307

 Molecular mass:    74.00307 amu.
 Principal axes and moments of inertia in atomic units:
                           1         2         3
     Eigenvalues --   120.88139 589.31961 670.34672
           X            1.00000  -0.00000  -0.00001
           Y            0.00000   1.00000  -0.00000
           Z            0.00001   0.00000   1.00000
 This molecule is an asymmetric top.
 Rotational symmetry number  1.
 Rotational temperatures (Kelvin)      0.71652     0.14697     0.12921
 Rotational constants (GHZ):          14.92985     3.06241     2.69225
 Zero-point vibrational energy      60011.4 (Joules/Mol)
                                   14.34308 (Kcal/Mol)
 Warning -- explicit consideration of   5 degrees of freedom as
           vibrations may cause significant error
 Vibrational temperatures:    285.17   299.98   704.36   715.46   738.62
          (Kelvin)            933.91   958.04  1178.48  1633.05  1641.24
                             2014.63  3332.49

 Zero-point correction=                           0.022857 (Hartree/Particle)
 Thermal correction to Energy=                    0.027859
 Thermal correction to Enthalpy=                  0.028803
 Thermal correction to Gibbs Free Energy=        -0.005782
 Sum of electronic and zero-point Energies=           -244.978736
 Sum of electronic and thermal Energies=              -244.973734
 Sum of electronic and thermal Enthalpies=            -244.972790
 Sum of electronic and thermal Free Energies=         -245.007375

                     E (Thermal)             CV                S
                      KCal/Mol        Cal/Mol-Kelvin    Cal/Mol-Kelvin
 Total                   17.482             16.434             72.790
 Electronic               0.000              0.000              1.377
 Translational            0.889              2.981             38.821
 Rotational               0.889              2.981             25.371
 Vibrational             15.704             10.473              7.221
 Vibration     1          0.637              1.842              2.150
 Vibration     2          0.642              1.828              2.057
 Vibration     3          0.845              1.273              0.685
 Vibration     4          0.853              1.256              0.665
 Vibration     5          0.868              1.220              0.626

 Normal termination of Gaussian 09 at Tue Aug 16 18:54:43 2016.
