 Gaussian 09, Revision E.01,
 Gaussian 09:  EM64L-G09RevE.01 30-Nov-2015

 ---------------------------------------------
 #p b3lyp/6-311++G(3df,2p) freq symmetry=Loose
 ---------------------------------------------

 ---------
 b3lyp opt
 ---------
 Symbolic Z-matrix:
 Charge =  1 Multiplicity = 1

                         Standard orientation:
 ---------------------------------------------------------------------
 Center     Atomic      Atomic             Coordinates (Angstroms)
 Number     Number       Type             X           Y           Z
 ---------------------------------------------------------------------
      1          6           0       -0.598644    0.602250   -0.574999
      2          6           0        0.831328    0.231547   -0.549974
      3          6           0        0.264216    1.183096    0.473534
      4          6           0       -1.316358   -0.583117   -0.094327
      5          6           0       -0.108378   -0.252439    0.807148
      6          7           0        0.795288   -1.012573   -0.052614
 ---------------------------------------------------------------------

 SCF Done:  E(RB3LYP) =  -244.494367681     A.U. after   15 cycles

 The electronic state is 1-A.
 Alpha  occ. eigenvalues --  -14.71756 -10.61685 -10.61146 -10.59769 -10.57664
 Alpha  occ. eigenvalues --  -10.57146  -1.43773  -1.18443  -1.07510  -0.95131
 Alpha  occ. eigenvalues --   -0.81709  -0.78003  -0.73744  -0.72703  -0.65601
 Alpha  occ. eigenvalues --   -0.63153  -0.61185  -0.56182
 Alpha virt. eigenvalues --   -0.43361  -0.41042  -0.38920  -0.34752  -0.19066
 Alpha virt. eigenvalues --   -0.17400  -0.13590  -0.12430  -0.11279  -0.09408
 Alpha virt. eigenvalues --   -0.09283  -0.08344  -0.07382  -0.06867  -0.06701

 Mulliken charges:
               1
     1  C    0.723229
     2  C    0.404791
     3  C   -0.102977
     4  C   -0.317105
     5  C    0.812995
     6  N   -0.520933
 Sum of Mulliken charges =   1.00000

 Dipole moment (field-independent basis, Debye):
    X=              0.1342    Y=              1.2633    Z=             -0.4862  Tot=              1.3602
 Quadrupole moment (field-independent basis, Debye-Ang):
   XX=            -27.5031   YY=            -29.9109   ZZ=            -27.3241
   XY=             -1.1972   XZ=             -0.7846   YZ=             -1.2672

  Exact polarizability:  48.181   2.135  48.392  -0.904   0.899  37.908
 Approx polarizability: 118.276  -1.636 128.165  -8.781   1.846  91.360

                      1                      2                      3
                      A                      A                      A
 Frequencies --    266.3444               411.5039               494.8703
 Red. masses --     12.4504                12.5535                12.2101
 Frc consts  --      0.5204                 1.2525                 1.7618
 IR Inten    --      4.5785                 5.6701                 2.7767

                      4                      5                      6
                      A                      A                      A
 Frequencies --    619.5432               664.8241               747.7214
 Red. masses --     12.1683                12.3401                12.1244
 Frc consts  --      2.7518                 3.2135                 3.9938
 IR Inten    --     17.2490                 4.3437                 4.3387

                      7                      8                      9
                      A                      A                      A
 Frequencies --    789.9945               862.7856               941.3380
 Red. masses --     12.1455                12.2068                12.0087
 Frc consts  --      4.4660                 5.3537                 6.2696
 IR Inten    --     13.9225                 9.6199                13.7767

                     10                     11                     12
                      A                      A                      A
 Frequencies --   1041.9625              1192.4029              1296.4383
 Red. masses --     12.0749                12.0117                12.8634
 Frc consts  --      7.7239                10.0624                12.7382
 IR Inten    --      6.8643                12.0652                 9.9645

 - Thermochemistry -
 -------------------
 Temperature   298.150 Kelvin.  Pressure   1.00000 Atm.
 Atom     1 has atomic number  6 and mass  12.00000

 Molecular mass:    74.00307 amu.
 Principal axes and moments of inertia in atomic units:
                           1         2         3
     Eigenvalues --   211.57189 219.52791 300.74638
           X            1.00000   0.00111   0.00001
           Y           -0.00111   1.00000  -0.00001
           Z           -0.00001   0.00001   1.00000
 This molecule is an asymmetric top.
 Rotational symmetry number  1.
 Rotational temperatures (Kelvin)      0.40938     0.39455     0.28800
 Rotational constants (GHZ):           8.53016     8.22101     6.00087
 Zero-point vibrational energy      55804.2 (Joules/Mol)
                                   13.33752 (Kcal/Mol)
 Warning -- explicit consideration of   4 degrees of freedom as
           vibrations may cause significant error
 Vibrational temperatures:    383.21   592.06   712.01   891.38   956.53
          (Kelvin)           1075.80  1136.62  1241.35  1354.37  1499.15
                             1715.60  1865.28

 Zero-point correction=                           0.021255 (Hartree/Particle)
 Thermal correction to Energy=                    0.025699
 Thermal correction to Enthalpy=                  0.026643
 Thermal correction to Gibbs Free Energy=        -0.005595
 Sum of electronic and zero-point Energies=           -244.473113
 Sum of electronic and thermal Energies=              -244.468669
 Sum of electronic and thermal Enthalpies=            -244.467724
 Sum of electronic and thermal Free Energies=         -244.499962

                     E (Thermal)             CV                S
                      KCal/Mol        Cal/Mol-Kelvin    Cal/Mol-Kelvin
 Total                   16.126             15.392             67.850
 Electronic               0.000              0.000              0.000
 Translational            0.889              2.981             38.821
 Rotational               0.889              2.981             24.150
 Vibrational             14.349              9.430              4.880
 Vibration     1          0.672              1.735              1.620
 Vibration     2          0.775              1.445              0.921
 Vibration     3          0.850              1.261              0.671
 Vibration     4          0.980              0.991              0.417

 Optimization completed.
    -- Stationary point found.
 Normal termination of Gaussian 09 at Tue Aug 16 18:35:20 2016.
