 Gaussian 09, Revision E.01,
 Gaussian 09:  EM64L-G09RevE.01 30-Nov-2015

 ---------------------------------------------
 #p b3lyp/6-311++G(3df,2p) freq symmetry=Loose
 ---------------------------------------------

 ---------
 b3lyp opt
 ---------
 Symbolic Z-matrix:
 Charge =  1 Multiplicity = 3

                         Standard orientation:
 ---------------------------------------------------------------------
 Center     Atomic      Atomic             Coordinates (Angstroms)
 Number     Number       Type             X           Y           Z
 ---------------------------------------------------------------------
      1          6           0        0.111859   -0.662400   -0.616105
      2          6           0        0.512312    0.195773    0.736813
      3          6           0       -0.324788    1.225248    0.126947
      4          6           0        1.450245    0.039095   -0.354514
      5          6           0       -1.107796    0.222017   -0.547989
      6          7           0       -0.550141   -0.874057    0.561298
 ---------------------------------------------------------------------

 SCF Done:  E(UB3LYP) =  -244.475253624     A.U. after   20 cycles

 The electronic state is 3-A.
 Alpha  occ. eigenvalues --  -14.70967 -10.60035 -10.59679 -10.59017 -10.58429
 Alpha  occ. eigenvalues --  -10.55288  -1.42537  -1.12121  -1.07757  -0.96916
 Alpha  occ. eigenvalues --   -0.80165  -0.77674  -0.75851  -0.71181  -0.67695
 Alpha  occ. eigenvalues --   -0.65101  -0.59443  -0.58193  -0.54287
 Alpha virt. eigenvalues --   -0.38369  -0.37507  -0.35485  -0.26326  -0.18691
 Alpha virt. eigenvalues --   -0.13703  -0.13131  -0.11670  -0.09771  -0.09652
 Alpha virt. eigenvalues --   -0.08495  -0.07869  -0.07475  -0.06792  -0.05989

  Beta  occ. eigenvalues --  -14.70584 -10.59499 -10.58268 -10.58171 -10.57389
  Beta  occ. eigenvalues --  -10.55199  -1.41372  -1.10978  -1.05378  -0.95607
  Beta  occ. eigenvalues --   -0.78501  -0.74917  -0.71661  -0.70229  -0.65494
  Beta  occ. eigenvalues --   -0.63207  -0.55103
  Beta virt. eigenvalues --   -0.43913  -0.41381  -0.36734  -0.35625  -0.34521
  Beta virt. eigenvalues --   -0.23761  -0.17828  -0.13399  -0.12193  -0.11106
  Beta virt. eigenvalues --   -0.09374  -0.08807  -0.08195  -0.07475  -0.07099

 Mulliken charges and spin densities:
               1          2
     1  C    0.836775   0.005069
     2  C    0.714695   0.004395
     3  C    0.182658   0.970824
     4  C   -0.295282   0.088007
     5  C    0.043719   0.779102
     6  N   -0.482566   0.152604
 Sum of Mulliken charges =   1.00000   2.00000

 Dipole moment (field-independent basis, Debye):
    X=             -0.7840    Y=              0.7179    Z=              0.0177  Tot=              1.0631
 Quadrupole moment (field-independent basis, Debye-Ang):
   XX=            -29.2430   YY=            -26.0049   ZZ=            -28.5623
   XY=             -1.9139   XZ=              2.0718   YZ=              1.5552

  Exact polarizability:  53.551  -1.146  44.272   1.448   1.295  38.265
 Approx polarizability: 109.407  -5.059 103.534   6.483   7.774  84.530

                      1                      2                      3
                      A                      A                      A
 Frequencies --    190.4009               270.1443               534.8759
 Red. masses --     12.0523                12.2025                12.7434
 Frc consts  --      0.2574                 0.5247                 2.1480
 IR Inten    --      9.0054                 0.4117                 0.6938

                      4                      5                      6
                      A                      A                      A
 Frequencies --    574.3585               646.4838               768.7305
 Red. masses --     12.1862                12.6475                12.1945
 Frc consts  --      2.3686                 3.1144                 4.2458
 IR Inten    --      1.2282                 5.8342                 8.3372

                      7                      8                      9
                      A                      A                      A
 Frequencies --    868.1969               928.6132              1080.7877
 Red. masses --     12.4468                12.1022                12.0027
 Frc consts  --      5.5277                 6.1487                 8.2606
 IR Inten    --      7.6186                 4.4739                 3.0850

                     10                     11                     12
                      A                      A                      A
 Frequencies --   1107.0342              1189.3392              1286.5224
 Red. masses --     12.0824                12.0228                12.6446
 Frc consts  --      8.7242                10.0200                12.3308
 IR Inten    --     21.0891                 2.1795                 1.1265

 - Thermochemistry -
 -------------------
 Temperature   298.150 Kelvin.  Pressure   1.00000 Atm.
 Atom     1 has atomic number  6 and mass  12.00000

 Molecular mass:    74.00307 amu.
 Principal axes and moments of inertia in atomic units:
                           1         2         3
     Eigenvalues --   199.38814 248.38643 299.31440
           X            1.00000  -0.00011   0.00003
           Y            0.00011   1.00000   0.00011
           Z           -0.00003  -0.00011   1.00000
 This molecule is an asymmetric top.
 Rotational symmetry number  1.
 Rotational temperatures (Kelvin)      0.43440     0.34871     0.28937
 Rotational constants (GHZ):           9.05140     7.26586     6.02958
 Zero-point vibrational energy      56496.6 (Joules/Mol)
                                   13.50300 (Kcal/Mol)
 Warning -- explicit consideration of   4 degrees of freedom as
           vibrations may cause significant error
 Vibrational temperatures:    273.94   388.68   769.57   826.37   930.14
          (Kelvin)           1106.03  1249.14  1336.07  1555.01  1592.77
                             1711.19  1851.02

 Zero-point correction=                           0.021518 (Hartree/Particle)
 Thermal correction to Energy=                    0.026174
 Thermal correction to Enthalpy=                  0.027118
 Thermal correction to Gibbs Free Energy=        -0.006711
 Sum of electronic and zero-point Energies=           -244.453735
 Sum of electronic and thermal Energies=              -244.449080
 Sum of electronic and thermal Enthalpies=            -244.448136
 Sum of electronic and thermal Free Energies=         -244.481964

                     E (Thermal)             CV                S
                      KCal/Mol        Cal/Mol-Kelvin    Cal/Mol-Kelvin
 Total                   16.424             15.386             71.198
 Electronic               0.000              0.000              2.183
 Translational            0.889              2.981             38.821
 Rotational               0.889              2.981             24.209
 Vibrational             14.647              9.424              5.985
 Vibration     1          0.634              1.853              2.224
 Vibration     2          0.674              1.728              1.595
 Vibration     3          0.890              1.173              0.576
 Vibration     4          0.931              1.087              0.496

 Optimization completed.
    -- Stationary point found.
 Normal termination of Gaussian 09 at Tue Aug 16 18:52:30 2016.
