 Gaussian 09, Revision E.01,
 Gaussian 09:  EM64L-G09RevE.01 30-Nov-2015

 ---------------------------------------------
 #p b3lyp/6-311++G(3df,2p) freq symmetry=Loose
 ---------------------------------------------

 ---------
 b3lyp opt
 ---------
 Symbolic Z-matrix:
 Charge =  1 Multiplicity = 1

                         Standard orientation:
 ---------------------------------------------------------------------
 Center     Atomic      Atomic             Coordinates (Angstroms)
 Number     Number       Type             X           Y           Z
 ---------------------------------------------------------------------
      1          7           0       -0.000000    0.366713    0.000000
      2          6           0       -1.321743    0.867939    0.000000
      3          6           0       -1.361643   -1.867282    0.000000
      4          6           0       -1.109490   -0.543907    0.000000
      5          6           0        2.548881    0.658301   -0.000000
      6          6           0        1.243996    0.457117   -0.000000
 ---------------------------------------------------------------------

 SCF Done:  E(RB3LYP) =  -244.496605326     A.U. after   17 cycles

 The electronic state is 1-A'.
 Alpha  occ. eigenvalues --  -14.75982 -10.57323 -10.56605 -10.53241 -10.51985
 Alpha  occ. eigenvalues --  -10.51364  -1.36482  -1.14680  -1.03771  -0.99492
 Alpha  occ. eigenvalues --   -0.83030  -0.77030  -0.75248  -0.59550  -0.58824
 Alpha  occ. eigenvalues --   -0.57849  -0.55206  -0.53343
 Alpha virt. eigenvalues --   -0.46095  -0.40867  -0.37130  -0.25381  -0.23284
 Alpha virt. eigenvalues --   -0.18146  -0.17851  -0.14250  -0.11202  -0.10466
 Alpha virt. eigenvalues --   -0.09873  -0.08400  -0.07871  -0.06143  -0.05618

 Mulliken charges:
               1
     1  N   -0.593086
     2  C   -0.008742
     3  C   -0.036961
     4  C    0.886143
     5  C   -0.150757
     6  C    0.903404
 Sum of Mulliken charges =   1.00000

 Dipole moment (field-independent basis, Debye):
    X=             -0.9743    Y=             -0.4797    Z=              0.0000  Tot=              1.0860
 Quadrupole moment (field-independent basis, Debye-Ang):
   XX=            -25.6039   YY=            -29.8888   ZZ=            -28.4217
   XY=              3.0215   XZ=              0.0000   YZ=              0.0000

  Exact polarizability: 100.338  24.200  70.139  -0.000  -0.000  35.046
 Approx polarizability: 290.462 123.681 216.011  -0.000  -0.000  56.028

                      1                      2                      3
                     A"                     A'                     A"
 Frequencies --    107.2280               132.4778               217.9090
 Red. masses --     12.1672                12.1764                12.0012
 Frc consts  --      0.0824                 0.1259                 0.3358
 IR Inten    --     14.5516                 2.2367                 7.4249

                      4                      5                      6
                     A'                     A"                     A'
 Frequencies --    236.1768               436.7354               489.8652
 Red. masses --     12.0585                13.2807                12.1734
 Frc consts  --      0.3963                 1.4925                 1.7211
 IR Inten    --      1.5495                 4.6973                 5.4085

                      7                      8                      9
                     A'                     A'                     A'
 Frequencies --    618.1446               703.8498               946.9602
 Red. masses --     12.7093                12.4531                12.0562
 Frc consts  --      2.8612                 3.6349                 6.3698
 IR Inten    --    160.0967                14.1886                51.6313

                     10                     11                     12
                     A'                     A'                     A'
 Frequencies --   1261.7865              1640.6274              1934.5522
 Red. masses --     12.8978                12.0957                12.2795
 Frc consts  --     12.0987                19.1822                27.0765
 IR Inten    --    284.2562               720.9184               795.0405

 - Thermochemistry -
 -------------------
 Temperature   298.150 Kelvin.  Pressure   1.00000 Atm.
 Atom     1 has atomic number  7 and mass  14.00307

 Molecular mass:    74.00307 amu.
 Principal axes and moments of inertia in atomic units:
                           1         2         3
     Eigenvalues --   146.88317 633.53028 780.41346
           X            0.91216  -0.40984   0.00000
           Y            0.40984   0.91216   0.00000
           Z           -0.00000   0.00000   1.00000
 This molecule is an asymmetric top.
 Rotational symmetry number  1.
 Rotational temperatures (Kelvin)      0.58968     0.13672     0.11098
 Rotational constants (GHZ):          12.28692     2.84871     2.31254
 Zero-point vibrational energy      52194.9 (Joules/Mol)
                                   12.47489 (Kcal/Mol)
 Warning -- explicit consideration of   7 degrees of freedom as
           vibrations may cause significant error
 Vibrational temperatures:    154.28   190.61   313.52   339.81   628.36
          (Kelvin)            704.81   889.37  1012.68  1362.46  1815.43
                             2360.49  2783.39

 Zero-point correction=                           0.019880 (Hartree/Particle)
 Thermal correction to Energy=                    0.025977
 Thermal correction to Enthalpy=                  0.026921
 Thermal correction to Gibbs Free Energy=        -0.009684
 Sum of electronic and zero-point Energies=           -244.476725
 Sum of electronic and thermal Energies=              -244.470628
 Sum of electronic and thermal Enthalpies=            -244.469684
 Sum of electronic and thermal Free Energies=         -244.506289

                     E (Thermal)             CV                S
                      KCal/Mol        Cal/Mol-Kelvin    Cal/Mol-Kelvin
 Total                   16.301             18.571             77.043
 Electronic               0.000              0.000              0.000
 Translational            0.889              2.981             38.821
 Rotational               0.889              2.981             25.788
 Vibrational             14.524             12.609             12.434
 Vibration     1          0.606              1.943              3.318
 Vibration     2          0.613              1.921              2.910
 Vibration     3          0.646              1.814              1.976
 Vibration     4          0.655              1.785              1.832
 Vibration     5          0.797              1.390              0.837
 Vibration     6          0.846              1.273              0.684
 Vibration     7          0.978              0.994              0.419

 Optimization completed.
    -- Stationary point found.
 Normal termination of Gaussian 09 at Tue Aug 16 18:25:27 2016.
