 Gaussian 09, Revision E.01,
 Gaussian 09:  EM64L-G09RevE.01 30-Nov-2015

 ---------------------------------------------
 #p b3lyp/6-311++G(3df,2p) freq symmetry=Loose
 ---------------------------------------------

 ---------
 b3lyp opt
 ---------
 Symbolic Z-matrix:
 Charge =  1 Multiplicity = 3

                         Standard orientation:
 ---------------------------------------------------------------------
 Center     Atomic      Atomic             Coordinates (Angstroms)
 Number     Number       Type             X           Y           Z
 ---------------------------------------------------------------------
      1          6           0       -0.043127    1.318773    0.000000
      2          6           0       -0.186063   -1.138567    0.936019
      3          6           0        0.522773   -1.867207   -0.000000
      4          6           0       -0.186063   -0.057469   -0.000000
      5          6           0       -0.186063   -1.138567   -0.936019
      6          7           0        0.067321    2.471175    0.000000
 ---------------------------------------------------------------------

 SCF Done:  E(UB3LYP) =  -244.639524347     A.U. after   19 cycles

 The electronic state is 3-A".
 Alpha  occ. eigenvalues --  -14.60678 -10.59986 -10.57761 -10.56474 -10.56472
 Alpha  occ. eigenvalues --  -10.48072  -1.29543  -1.18197  -1.02644  -0.93265
 Alpha  occ. eigenvalues --   -0.87159  -0.74546  -0.74418  -0.65188  -0.63122
 Alpha  occ. eigenvalues --   -0.62324  -0.60800  -0.57975  -0.55139
 Alpha virt. eigenvalues --   -0.40756  -0.34934  -0.30379  -0.25032  -0.15738
 Alpha virt. eigenvalues --   -0.15576  -0.12635  -0.11636  -0.10571  -0.09147
 Alpha virt. eigenvalues --   -0.08067  -0.06832  -0.06373  -0.06102  -0.05249

  Beta  occ. eigenvalues --  -14.60534 -10.59633 -10.56289 -10.55168 -10.55167
  Beta  occ. eigenvalues --  -10.48120  -1.28144  -1.17892  -1.01866  -0.90245
  Beta  occ. eigenvalues --   -0.84795  -0.72913  -0.71418  -0.62420  -0.61353
  Beta  occ. eigenvalues --   -0.60125  -0.58188
  Beta virt. eigenvalues --   -0.45003  -0.41066  -0.38230  -0.32462  -0.27026
  Beta virt. eigenvalues --   -0.24445  -0.15305  -0.15002  -0.11659  -0.10857
  Beta virt. eigenvalues --   -0.09821  -0.08891  -0.07885  -0.06618  -0.05998

 Mulliken charges and spin densities:
               1          2
     1  C    0.148899  -0.073802
     2  C    0.068474   0.628395
     3  C    0.253461   0.619689
     4  C    1.222965   0.123353
     5  C    0.068474   0.628395
     6  N   -0.762274   0.073971
 Sum of Mulliken charges =   1.00000   2.00000

 Dipole moment (field-independent basis, Debye):
    X=              0.0938    Y=             -3.5501    Z=              0.0000  Tot=              3.5513
 Quadrupole moment (field-independent basis, Debye-Ang):
   XX=            -28.6275   YY=            -22.7233   ZZ=            -28.7533
   XY=             -1.0240   XZ=              0.0000   YZ=             -0.0000

  Exact polarizability:  32.344  -3.100  82.457   0.000  -0.000  47.605
 Approx polarizability:  52.129  -9.475 168.429  -0.000   0.000 102.505

                      1                      2                      3
                     A'                     A"                     A'
 Frequencies --    173.9322               193.9712               375.8975
 Red. masses --     12.5384                12.6108                12.1502
 Frc consts  --      0.2235                 0.2796                 1.0115
 IR Inten    --      7.0386                 5.8848                 5.5799

                      4                      5                      6
                     A'                     A"                     A'
 Frequencies --    472.4811               558.2261               668.2031
 Red. masses --     12.1095                12.0608                12.0244
 Frc consts  --      1.5927                 2.2144                 3.1632
 IR Inten    --     19.2095                 0.0203                 6.9952

                      7                      8                      9
                     A'                     A"                     A"
 Frequencies --    784.3769               812.2331              1176.2094
 Red. masses --     12.4740                12.0021                12.0003
 Frc consts  --      4.5217                 4.6652                 9.7816
 IR Inten    --     20.0573                 4.7563                 0.7751

                     10                     11                     12
                     A'                     A'                     A'
 Frequencies --   1391.2131              1506.8144              2303.9314
 Red. masses --     12.0203                12.1068                12.6388
 Frc consts  --     13.7074                16.1957                39.5273
 IR Inten    --     72.2047                90.1888               340.7002

 - Thermochemistry -
 -------------------
 Temperature   298.150 Kelvin.  Pressure   1.00000 Atm.
 Atom     1 has atomic number  6 and mass  12.00000

 Molecular mass:    74.00307 amu.
 Principal axes and moments of inertia in atomic units:
                           1         2         3
     Eigenvalues --    91.07655 657.01681 716.11896
           X           -0.02774   0.00000   0.99962
           Y            0.99962   0.00000   0.02774
           Z           -0.00000   1.00000  -0.00000
 This molecule is an asymmetric top.
 Rotational symmetry number  1.
 Rotational temperatures (Kelvin)      0.95100     0.13183     0.12095
 Rotational constants (GHZ):          19.81565     2.74687     2.52017
 Zero-point vibrational energy      62310.4 (Joules/Mol)
                                   14.89255 (Kcal/Mol)
 Warning -- explicit consideration of   5 degrees of freedom as
           vibrations may cause significant error
 Vibrational temperatures:    250.25   279.08   540.83   679.79   803.16
          (Kelvin)            961.39  1128.54  1168.62  1692.30  2001.64
                             2167.97  3314.84

 Zero-point correction=                           0.023733 (Hartree/Particle)
 Thermal correction to Energy=                    0.028817
 Thermal correction to Enthalpy=                  0.029761
 Thermal correction to Gibbs Free Energy=        -0.005400
 Sum of electronic and zero-point Energies=           -244.615792
 Sum of electronic and thermal Energies=              -244.610708
 Sum of electronic and thermal Enthalpies=            -244.609763
 Sum of electronic and thermal Free Energies=         -244.644925

                     E (Thermal)             CV                S
                      KCal/Mol        Cal/Mol-Kelvin    Cal/Mol-Kelvin
 Total                   18.083             16.244             74.003
 Electronic               0.000              0.000              2.183
 Translational            0.889              2.981             38.821
 Rotational               0.889              2.981             25.264
 Vibrational             16.305             10.283              7.736
 Vibration     1          0.627              1.875              2.393
 Vibration     2          0.635              1.848              2.190
 Vibration     3          0.747              1.521              1.056
 Vibration     4          0.829              1.311              0.731
 Vibration     5          0.914              1.122              0.527

 Normal termination of Gaussian 09 at Tue Aug 16 18:34:19 2016.
