 Gaussian 09, Revision E.01,
 Gaussian 09:  EM64L-G09RevE.01 30-Nov-2015

 ---------------------------------------------
 #p b3lyp/6-311++G(3df,2p) freq symmetry=Loose
 ---------------------------------------------

 ---------
 b3lyp opt
 ---------
 Symbolic Z-matrix:
 Charge =  1 Multiplicity = 3

                         Standard orientation:
 ---------------------------------------------------------------------
 Center     Atomic      Atomic             Coordinates (Angstroms)
 Number     Number       Type             X           Y           Z
 ---------------------------------------------------------------------
      1          6           0       -1.038286   -0.338926   -0.000000
      2          6           0        0.662394   -1.045978   -0.000000
      3          6           0        1.225890    0.182031    0.000000
      4          6           0       -0.266948    2.186344    0.000000
      5          6           0        0.000000    0.871030    0.000000
      6          7           0       -0.499757   -1.589572   -0.000000
 ---------------------------------------------------------------------

 SCF Done:  E(UB3LYP) =  -244.540098840     A.U. after   24 cycles

 The electronic state is 3-A".
 Alpha  occ. eigenvalues --  -14.66991 -10.59843 -10.59173 -10.55836 -10.54300
 Alpha  occ. eigenvalues --  -10.50728  -1.33959  -1.14635  -1.03759  -0.94077
 Alpha  occ. eigenvalues --   -0.82509  -0.80524  -0.75177  -0.69452  -0.60912
 Alpha  occ. eigenvalues --   -0.60825  -0.57583  -0.54974  -0.53931
 Alpha virt. eigenvalues --   -0.39695  -0.39096  -0.37008  -0.25961  -0.20625
 Alpha virt. eigenvalues --   -0.15741  -0.11498  -0.11209  -0.10092  -0.08810
 Alpha virt. eigenvalues --   -0.08693  -0.08055  -0.06197  -0.06185  -0.05806

  Beta  occ. eigenvalues --  -14.66981 -10.58834 -10.58490 -10.55641 -10.52459
  Beta  occ. eigenvalues --  -10.50558  -1.33144  -1.13091  -1.01908  -0.92335
  Beta  occ. eigenvalues --   -0.80619  -0.78826  -0.72088  -0.68245  -0.59411
  Beta  occ. eigenvalues --   -0.57339  -0.54681
  Beta virt. eigenvalues --   -0.44601  -0.41511  -0.37252  -0.35934  -0.35529
  Beta virt. eigenvalues --   -0.22767  -0.17252  -0.15425  -0.11135  -0.10681
  Beta virt. eigenvalues --   -0.09283  -0.08405  -0.07738  -0.07593  -0.05817

 Mulliken charges and spin densities:
               1          2
     1  C    0.188549   0.805666
     2  C    0.501891   0.112034
     3  C    0.317017   0.970083
     4  C   -0.455682   0.090140
     5  C    0.917304   0.064338
     6  N   -0.469081  -0.042261
 Sum of Mulliken charges =   1.00000   2.00000

 Dipole moment (field-independent basis, Debye):
    X=              0.6738    Y=             -0.0033    Z=             -0.0000  Tot=              0.6738
 Quadrupole moment (field-independent basis, Debye-Ang):
   XX=            -26.7728   YY=            -25.8906   ZZ=            -29.7849
   XY=             -2.0833   XZ=             -0.0000   YZ=             -0.0000

  Exact polarizability:  61.567   1.171  79.100  -0.000   0.000  30.763
 Approx polarizability: 152.098   1.113 186.073   0.000   0.000  47.740

                      1                      2                      3
                     A'                     A"                     A'
 Frequencies --     63.7199               173.7996               374.7166
 Red. masses --     12.0676                12.2133                12.0165
 Frc consts  --      0.0289                 0.2174                 0.9941
 IR Inten    --     13.0674                 2.4808                16.1372

                      4                      5                      6
                     A"                     A'                     A"
 Frequencies --    453.8723               469.3191               570.0328
 Red. masses --     12.5313                12.2424                12.0263
 Frc consts  --      1.5209                 1.5887                 2.3024
 IR Inten    --      8.2283                 3.0425                 0.5497

                      7                      8                      9
                     A'                     A'                     A'
 Frequencies --    570.1943               768.8832              1051.0747
 Red. masses --     12.3080                12.9269                12.0267
 Frc consts  --      2.3577                 4.5026                 7.8283
 IR Inten    --     15.8833                12.7360                27.9028

                     10                     11                     12
                     A'                     A'                     A'
 Frequencies --   1153.7350              1569.7578              1608.9832
 Red. masses --     12.3384                12.4808                12.0596
 Frc consts  --      9.6765                18.1199                18.3944
 IR Inten    --     28.1953                 4.2959               563.6732

 - Thermochemistry -
 -------------------
 Temperature   298.150 Kelvin.  Pressure   1.00000 Atm.
 Atom     1 has atomic number  6 and mass  12.00000

 Molecular mass:    74.00307 amu.
 Principal axes and moments of inertia in atomic units:
                           1         2         3
     Eigenvalues --   144.59869 417.27406 561.87276
           X            0.03547   0.99937   0.00000
           Y            0.99937  -0.03547  -0.00000
           Z            0.00000  -0.00000   1.00000
 This molecule is an asymmetric top.
 Rotational symmetry number  1.
 Rotational temperatures (Kelvin)      0.59899     0.20757     0.15415
 Rotational constants (GHZ):          12.48103     4.32507     3.21201
 Zero-point vibrational energy      52803.7 (Joules/Mol)
                                   12.62039 (Kcal/Mol)
 Warning -- explicit consideration of   7 degrees of freedom as
           vibrations may cause significant error
 Vibrational temperatures:     91.68   250.06   539.13   653.02   675.24
          (Kelvin)            820.15   820.38  1106.25  1512.26  1659.97
                             2258.53  2314.97

 Zero-point correction=                           0.020112 (Hartree/Particle)
 Thermal correction to Energy=                    0.025696
 Thermal correction to Enthalpy=                  0.026641
 Thermal correction to Gibbs Free Energy=        -0.009819
 Sum of electronic and zero-point Energies=           -244.519987
 Sum of electronic and thermal Energies=              -244.514403
 Sum of electronic and thermal Enthalpies=            -244.513458
 Sum of electronic and thermal Free Energies=         -244.549918

                     E (Thermal)             CV                S
                      KCal/Mol        Cal/Mol-Kelvin    Cal/Mol-Kelvin
 Total                   16.125             17.569             76.736
 Electronic               0.000              0.000              2.183
 Translational            0.889              2.981             38.821
 Rotational               0.889              2.981             25.031
 Vibrational             14.347             11.607             10.701
 Vibration     1          0.597              1.972              4.339
 Vibration     2          0.627              1.875              2.394
 Vibration     3          0.746              1.524              1.060
 Vibration     4          0.812              1.352              0.784
 Vibration     5          0.826              1.318              0.739
 Vibration     6          0.926              1.096              0.504
 Vibration     7          0.926              1.096              0.504

 Optimization completed.
    -- Stationary point found.
 Normal termination of Gaussian 09 at Tue Aug 16 18:16:16 2016.
