 Gaussian 09, Revision E.01,
 Gaussian 09:  EM64L-G09RevE.01 30-Nov-2015

 ---------------------------------------------
 #p b3lyp/6-311++G(3df,2p) freq symmetry=Loose
 ---------------------------------------------

 ---------
 b3lyp opt
 ---------
 Symbolic Z-matrix:
 Charge =  1 Multiplicity = 1

                         Standard orientation:
 ---------------------------------------------------------------------
 Center     Atomic      Atomic             Coordinates (Angstroms)
 Number     Number       Type             X           Y           Z
 ---------------------------------------------------------------------
      1          7           0        1.132879    1.430169   -0.001040
      2          6           0       -0.930228   -0.152499    0.003905
      3          6           0        0.273885   -0.847303    0.009108
      4          6           0       -2.276546   -0.090684   -0.005449
      5          6           0        0.115091    0.826686    0.000285
      6          6           0        1.496107   -1.404731   -0.006634
 ---------------------------------------------------------------------

 SCF Done:  E(RB3LYP) =  -244.529476962     A.U. after   17 cycles

 The electronic state is 1-A.
 Alpha  occ. eigenvalues --  -14.68315 -10.57517 -10.56470 -10.56266 -10.55208
 Alpha  occ. eigenvalues --  -10.53689  -1.27438  -1.17804  -1.05036  -0.98611
 Alpha  occ. eigenvalues --   -0.81199  -0.72796  -0.70709  -0.68824  -0.61254
 Alpha  occ. eigenvalues --   -0.58741  -0.57629  -0.54421
 Alpha virt. eigenvalues --   -0.47525  -0.40064  -0.35924  -0.34190  -0.24558
 Alpha virt. eigenvalues --   -0.18529  -0.17082  -0.15520  -0.11463  -0.10933
 Alpha virt. eigenvalues --   -0.10022  -0.09219  -0.07143  -0.06612  -0.05803

 Mulliken charges:
               1
     1  N   -0.577785
     2  C    0.830128
     3  C    0.384274
     4  C   -0.230906
     5  C    0.693830
     6  C   -0.099541
 Sum of Mulliken charges =   1.00000

 Dipole moment (field-independent basis, Debye):
    X=             -1.4743    Y=             -0.5724    Z=              0.0086  Tot=              1.5815
 Quadrupole moment (field-independent basis, Debye-Ang):
   XX=            -28.4149   YY=            -23.9950   ZZ=            -31.4013
   XY=              0.2149   XZ=             -0.0026   YZ=             -0.0149

  Exact polarizability:  83.720  -2.857  57.943  -0.012   0.012  32.152
 Approx polarizability: 201.988   1.504 125.130  -0.125   0.007  48.307

                      1                      2                      3
                      A                      A                      A
 Frequencies --    106.7840               160.5704               179.5079
 Red. masses --     13.0016                12.0886                12.0606
 Frc consts  --      0.0873                 0.1836                 0.2290
 IR Inten    --      4.3715                19.0427                 2.6964

                      4                      5                      6
                      A                      A                      A
 Frequencies --    270.4983               275.1615               449.2687
 Red. masses --     12.2300                12.2430                12.0109
 Frc consts  --      0.5272                 0.5462                 1.4284
 IR Inten    --      1.7997                 1.7374                39.7719

                      7                      8                      9
                      A                      A                      A
 Frequencies --    453.5815               809.3636               845.5010
 Red. masses --     12.1268                12.0172                12.3951
 Frc consts  --      1.4700                 4.6381                 5.2207
 IR Inten    --      0.5056                 6.6217                 4.0155

                     10                     11                     12
                      A                      A                      A
 Frequencies --   1528.7064              1743.4793              2087.2634
 Red. masses --     12.0066                12.1211                12.6127
 Frc consts  --     16.5317                21.7082                32.3753
 IR Inten    --    371.4952               154.9645                36.6389

 - Thermochemistry -
 -------------------
 Temperature   298.150 Kelvin.  Pressure   1.00000 Atm.
 Atom     1 has atomic number  7 and mass  14.00307

 Molecular mass:    74.00307 amu.
 Principal axes and moments of inertia in atomic units:
                           1         2         3
     Eigenvalues --   248.24861 423.05978 671.29354
           X            1.00000  -0.00010   0.00000
           Y            0.00010   1.00000   0.00000
           Z           -0.00000  -0.00000   1.00000
 This molecule is an asymmetric top.
 Rotational symmetry number  1.
 Rotational temperatures (Kelvin)      0.34890     0.20473     0.12903
 Rotational constants (GHZ):           7.26989     4.26592     2.68845
 Zero-point vibrational energy      53291.8 (Joules/Mol)
                                   12.73704 (Kcal/Mol)
 Warning -- explicit consideration of   7 degrees of freedom as
           vibrations may cause significant error
 Vibrational temperatures:    153.64   231.02   258.27   389.19   395.90
          (Kelvin)            646.40   652.60  1164.49  1216.49  2199.46
                             2508.47  3003.10

 Zero-point correction=                           0.020298 (Hartree/Particle)
 Thermal correction to Energy=                    0.026655
 Thermal correction to Enthalpy=                  0.027599
 Thermal correction to Gibbs Free Energy=        -0.009419
 Sum of electronic and zero-point Energies=           -244.509179
 Sum of electronic and thermal Energies=              -244.502822
 Sum of electronic and thermal Enthalpies=            -244.501878
 Sum of electronic and thermal Free Energies=         -244.538896

                     E (Thermal)             CV                S
                      KCal/Mol        Cal/Mol-Kelvin    Cal/Mol-Kelvin
 Total                   16.726             19.147             77.910
 Electronic               0.000              0.000              0.000
 Translational            0.889              2.981             38.821
 Rotational               0.889              2.981             25.758
 Vibrational             14.949             13.186             13.331
 Vibration     1          0.606              1.944              3.327
 Vibration     2          0.622              1.891              2.543
 Vibration     3          0.629              1.867              2.334
 Vibration     4          0.674              1.728              1.593
 Vibration     5          0.677              1.719              1.564
 Vibration     6          0.808              1.363              0.798
 Vibration     7          0.812              1.353              0.785

 Normal termination of Gaussian 09 at Tue Aug 16 18:33:27 2016.
