 Gaussian 09, Revision E.01,
 Gaussian 09:  EM64L-G09RevE.01 30-Nov-2015

 ---------------------------------------------
 #p b3lyp/6-311++G(3df,2p) freq symmetry=Loose
 ---------------------------------------------

 ---------
 b3lyp opt
 ---------
 Symbolic Z-matrix:
 Charge =  0 Multiplicity = 4

                         Standard orientation:
 ---------------------------------------------------------------------
 Center     Atomic      Atomic             Coordinates (Angstroms)
 Number     Number       Type             X           Y           Z
 ---------------------------------------------------------------------
      1          6           0       -2.120934   -0.954385   -0.000000
      2          6           0        2.433417    1.231035    0.000000
      3          6           0       -0.815351   -0.382593   -0.000000
      4          6           0       -0.000000    0.757264   -0.000000
      5          6           0       -0.988057   -1.718616    0.000000
      6          7           0        1.277936    0.914824    0.000000
 ---------------------------------------------------------------------

 SCF Done:  E(UB3LYP) =  -244.961339877     A.U. after   19 cycles

 The electronic state is 4-A".
 Alpha  occ. eigenvalues --  -14.43229 -10.33142 -10.30219 -10.28689 -10.26497
 Alpha  occ. eigenvalues --  -10.24853  -1.05072  -0.98122  -0.85735  -0.71114
 Alpha  occ. eigenvalues --   -0.55676  -0.50547  -0.48734  -0.48019  -0.43386
 Alpha  occ. eigenvalues --   -0.37806  -0.34209  -0.32459  -0.29448  -0.26770
 Alpha virt. eigenvalues --   -0.07221  -0.05052  -0.04619   0.00514   0.01325
 Alpha virt. eigenvalues --    0.03408   0.03760   0.05072   0.05342   0.06198
 Alpha virt. eigenvalues --    0.06890   0.07308   0.08461   0.09329   0.10383

  Beta  occ. eigenvalues --  -14.43437 -10.30868 -10.29774 -10.27852 -10.25085
  Beta  occ. eigenvalues --  -10.24161  -1.03797  -0.96537  -0.82098  -0.68783
  Beta  occ. eigenvalues --   -0.51606  -0.47685  -0.46065  -0.43205  -0.41532
  Beta  occ. eigenvalues --   -0.36034  -0.28637
  Beta virt. eigenvalues --   -0.20474  -0.18140  -0.13923  -0.04698  -0.02383
  Beta virt. eigenvalues --   -0.02319   0.01197   0.02293   0.04080   0.04662
  Beta virt. eigenvalues --    0.05284   0.06595   0.07117   0.07353   0.08705

 Mulliken charges and spin densities:
               1          2
     1  C   -0.423951   0.339370
     2  C    0.031056   0.495340
     3  C    0.690235   0.043528
     4  C    0.312456   1.483458
     5  C   -0.136451   0.787738
     6  N   -0.473344  -0.149434
 Sum of Mulliken charges =  -0.00000   3.00000

 Dipole moment (field-independent basis, Debye):
    X=              0.5051    Y=              0.4988    Z=              0.0000  Tot=              0.7099
 Quadrupole moment (field-independent basis, Debye-Ang):
   XX=            -46.2103   YY=            -35.2096   ZZ=            -32.3868
   XY=             -3.3430   XZ=             -0.0000   YZ=              0.0000

  Exact polarizability: 100.447  20.904  76.277  -0.000  -0.000  38.600
 Approx polarizability: 157.252  30.731 120.147   0.000  -0.000  57.011

                      1                      2                      3
                     A'                     A"                     A'
 Frequencies --    133.4179               151.6180               333.1628
 Red. masses --     12.0846                12.0742                12.8950
 Frc consts  --      0.1267                 0.1635                 0.8433
 IR Inten    --      9.5936                11.0630                 2.3163

                      4                      5                      6
                     A"                     A"                     A'
 Frequencies --    372.6615               483.1580               496.1288
 Red. masses --     12.9678                12.1694                12.4240
 Frc consts  --      1.0611                 1.6738                 1.8018
 IR Inten    --      0.5343                 2.0898                 6.5712

                      7                      8                      9
                     A'                     A'                     A'
 Frequencies --    696.5138               774.3993              1210.5758
 Red. masses --     12.0335                12.1522                12.0529
 Frc consts  --      3.4396                 4.2937                10.4070
 IR Inten    --    262.2619                20.7623                67.8844

                     10                     11                     12
                     A'                     A'                     A'
 Frequencies --   1395.7714              1677.4085              1883.4997
 Red. masses --     12.0238                12.0014                13.0439
 Frc consts  --     13.8014                19.8956                27.2640
 IR Inten    --     28.6050                17.1491               104.9338

 - Thermochemistry -
 -------------------
 Temperature   298.150 Kelvin.  Pressure   1.00000 Atm.
 Atom     1 has atomic number  6 and mass  12.00000

 Molecular mass:    74.00307 amu.
 Principal axes and moments of inertia in atomic units:
                           1         2         3
     Eigenvalues --    62.04842 839.70360 901.75202
           X            0.83057  -0.55692   0.00000
           Y            0.55692   0.83057   0.00000
           Z           -0.00000   0.00000   1.00000
 This molecule is an asymmetric top.
 Rotational symmetry number  1.
 Rotational temperatures (Kelvin)      1.39591     0.10315     0.09605
 Rotational constants (GHZ):          29.08601     2.14926     2.00137
 Zero-point vibrational energy      57470.5 (Joules/Mol)
                                   13.73578 (Kcal/Mol)
 Warning -- explicit consideration of   6 degrees of freedom as
           vibrations may cause significant error
 Vibrational temperatures:    191.96   218.14   479.35   536.18   695.16
          (Kelvin)            713.82  1002.13  1114.19  1741.75  2008.20
                             2413.41  2709.93

 Zero-point correction=                           0.021889 (Hartree/Particle)
 Thermal correction to Energy=                    0.027443
 Thermal correction to Enthalpy=                  0.028387
 Thermal correction to Gibbs Free Energy=        -0.008087
 Sum of electronic and zero-point Energies=           -244.939451
 Sum of electronic and thermal Energies=              -244.933897
 Sum of electronic and thermal Enthalpies=            -244.932952
 Sum of electronic and thermal Free Energies=         -244.969427

                     E (Thermal)             CV                S
                      KCal/Mol        Cal/Mol-Kelvin    Cal/Mol-Kelvin
 Total                   17.221             17.360             76.767
 Electronic               0.000              0.000              2.755
 Translational            0.889              2.981             38.821
 Rotational               0.889              2.981             25.355
 Vibrational             15.443             11.398              9.836
 Vibration     1          0.613              1.920              2.896
 Vibration     2          0.619              1.901              2.652
 Vibration     3          0.715              1.609              1.245
 Vibration     4          0.744              1.528              1.069
 Vibration     5          0.839              1.287              0.702
 Vibration     6          0.852              1.259              0.668

 Optimization completed.
    -- Stationary point found.
 Normal termination of Gaussian 09 at Tue Aug 16 18:34:56 2016.
