 Gaussian 09, Revision E.01,
 Gaussian 09:  EM64L-G09RevE.01 30-Nov-2015

 ---------------------------------------------
 #p b3lyp/6-311++G(3df,2p) freq symmetry=Loose
 ---------------------------------------------

 ---------
 b3lyp opt
 ---------
 Symbolic Z-matrix:
 Charge =  1 Multiplicity = 1

                         Standard orientation:
 ---------------------------------------------------------------------
 Center     Atomic      Atomic             Coordinates (Angstroms)
 Number     Number       Type             X           Y           Z
 ---------------------------------------------------------------------
      1          6           0        0.698769   -0.534483   -0.000000
      2          6           0       -0.005841    1.990546    0.000000
      3          6           0        1.993483   -0.898037   -0.000000
      4          6           0       -1.989672   -0.905442    0.000000
      5          6           0       -0.696739   -0.536491    0.000000
      6          7           0       -0.000000    0.757636    0.000000
 ---------------------------------------------------------------------

 SCF Done:  E(RB3LYP) =  -244.490537488     A.U. after   13 cycles

 The electronic state is 1-A'.
 Alpha  occ. eigenvalues --  -14.72209 -10.58596 -10.54699 -10.54647 -10.54391
 Alpha  occ. eigenvalues --  -10.54382  -1.34944  -1.15302  -1.04236  -0.99905
 Alpha  occ. eigenvalues --   -0.78242  -0.78076  -0.76001  -0.62023  -0.59367
 Alpha  occ. eigenvalues --   -0.57403  -0.56841  -0.53472
 Alpha virt. eigenvalues --   -0.45053  -0.39251  -0.35501  -0.35077  -0.25069
 Alpha virt. eigenvalues --   -0.18345  -0.17195  -0.11495  -0.11037  -0.10749
 Alpha virt. eigenvalues --   -0.10593  -0.08121  -0.07311  -0.06060  -0.05831

 Mulliken charges:
               1
     1  C    0.640966
     2  C    0.253826
     3  C   -0.023646
     4  C   -0.024335
     5  C    0.643621
     6  N   -0.490432
 Sum of Mulliken charges =   1.00000

 Dipole moment (field-independent basis, Debye):
    X=              0.0026    Y=              0.3231    Z=              0.0000  Tot=              0.3231
 Quadrupole moment (field-independent basis, Debye-Ang):
   XX=            -28.6203   YY=            -24.5685   ZZ=            -31.6743
   XY=             -0.0087   XZ=              0.0000   YZ=             -0.0000

  Exact polarizability:  79.969   0.005  62.804   0.000   0.000  33.652
 Approx polarizability: 166.178  -0.002 120.394  -0.000   0.000  50.961

                      1                      2                      3
                     A'                     A'                     A"
 Frequencies --    118.1846               164.9044               179.0718
 Red. masses --     12.1807                12.1228                12.2544
 Frc consts  --      0.1002                 0.1942                 0.2315
 IR Inten    --      8.0836                25.0374                 0.7775

                      4                      5                      6
                     A"                     A'                     A"
 Frequencies --    288.1070               327.4985               377.8871
 Red. masses --     13.0604                12.7717                12.0000
 Frc consts  --      0.6387                 0.8071                 1.0096
 IR Inten    --      1.1588                 0.9808                 0.0000

                      7                      8                      9
                     A'                     A'                     A'
 Frequencies --    519.2043               729.7928               812.3209
 Red. masses --     12.4295                12.3914                12.0184
 Frc consts  --      1.9741                 3.8884                 4.6725
 IR Inten    --      0.7264                37.8436                 1.1155

                     10                     11                     12
                     A'                     A'                     A'
 Frequencies --   1503.4046              1651.5295              1885.5826
 Red. masses --     12.0010                12.5318                12.3749
 Frc consts  --     15.9816                20.1389                25.9229
 IR Inten    --    291.0152               483.1984                11.6047

 - Thermochemistry -
 -------------------
 Temperature   298.150 Kelvin.  Pressure   1.00000 Atm.
 Atom     1 has atomic number  6 and mass  12.00000

 Molecular mass:    74.00307 amu.
 Principal axes and moments of inertia in atomic units:
                           1         2         3
     Eigenvalues --   292.76565 381.66932 674.43497
           X            1.00000   0.00000   0.00000
           Y           -0.00000   1.00000   0.00000
           Z            0.00000  -0.00000   1.00000
 This molecule is an asymmetric top.
 Rotational symmetry number  1.
 Rotational temperatures (Kelvin)      0.29585     0.22693     0.12842
 Rotational constants (GHZ):           6.16446     4.72855     2.67593
 Zero-point vibrational energy      51185.1 (Joules/Mol)
                                   12.23354 (Kcal/Mol)
 Warning -- explicit consideration of   7 degrees of freedom as
           vibrations may cause significant error
 Vibrational temperatures:    170.04   237.26   257.64   414.52   471.20
          (Kelvin)            543.69   747.02  1050.01  1168.75  2163.06
                             2376.18  2712.93

 Zero-point correction=                           0.019495 (Hartree/Particle)
 Thermal correction to Energy=                    0.025789
 Thermal correction to Enthalpy=                  0.026733
 Thermal correction to Gibbs Free Energy=        -0.010096
 Sum of electronic and zero-point Energies=           -244.471042
 Sum of electronic and thermal Energies=              -244.464749
 Sum of electronic and thermal Enthalpies=            -244.463804
 Sum of electronic and thermal Free Energies=         -244.500633

                     E (Thermal)             CV                S
                      KCal/Mol        Cal/Mol-Kelvin    Cal/Mol-Kelvin
 Total                   16.183             19.231             77.513
 Electronic               0.000              0.000              0.000
 Translational            0.889              2.981             38.821
 Rotational               0.889              2.981             25.825
 Vibrational             14.405             13.269             12.868
 Vibration     1          0.608              1.934              3.130
 Vibration     2          0.623              1.886              2.493
 Vibration     3          0.629              1.868              2.338
 Vibration     4          0.685              1.696              1.485
 Vibration     5          0.711              1.621              1.272
 Vibration     6          0.748              1.517              1.048
 Vibration     7          0.874              1.207              0.612

 Normal termination of Gaussian 09 at Tue Aug 16 18:24:23 2016.
