 Gaussian 09, Revision E.01,
 Gaussian 09:  EM64L-G09RevE.01 30-Nov-2015

 ---------------------------------------------
 #p b3lyp/6-311++G(3df,2p) freq symmetry=Loose
 ---------------------------------------------

 ---------
 b3lyp opt
 ---------
 Symbolic Z-matrix:
 Charge =  1 Multiplicity = 1

                         Standard orientation:
 ---------------------------------------------------------------------
 Center     Atomic      Atomic             Coordinates (Angstroms)
 Number     Number       Type             X           Y           Z
 ---------------------------------------------------------------------
      1          6           0        0.000000    1.262642   -0.742904
      2          6           0       -0.000000   -1.262642   -0.742904
      3          6           0        0.000000    0.000000   -1.118649
      4          6           0       -0.000000    0.962689    0.507542
      5          6           0       -0.000000   -0.962689    0.507542
      6          7           0       -0.000000   -0.000000    1.362320
 ---------------------------------------------------------------------

 SCF Done:  E(RB3LYP) =  -244.677730391     A.U. after   13 cycles

 The electronic state is 1-A1.
 Alpha  occ. eigenvalues --  -14.67029 -10.58681 -10.58680 -10.56703 -10.50513
 Alpha  occ. eigenvalues --  -10.50508  -1.34461  -1.17479  -1.10628  -0.92586
 Alpha  occ. eigenvalues --   -0.88275  -0.79084  -0.75960  -0.75028  -0.61106
 Alpha  occ. eigenvalues --   -0.60913  -0.58636  -0.56169
 Alpha virt. eigenvalues --   -0.42637  -0.32552  -0.30732  -0.30572  -0.27094
 Alpha virt. eigenvalues --   -0.16589  -0.13687  -0.10980  -0.10364  -0.10206
 Alpha virt. eigenvalues --   -0.09221  -0.07712  -0.06925  -0.06353  -0.05884

 Mulliken charges:
               1
     1  C    0.343099
     2  C    0.343099
     3  C    0.371627
     4  C    0.302853
     5  C    0.302853
     6  N   -0.663532
 Sum of Mulliken charges =   1.00000

 Dipole moment (field-independent basis, Debye):
    X=             -0.0000    Y=             -0.0000    Z=             -0.0936  Tot=              0.0936
 Quadrupole moment (field-independent basis, Debye-Ang):
   XX=            -29.8283   YY=            -23.7788   ZZ=            -25.5643
   XY=             -0.0000   XZ=              0.0000   YZ=             -0.0000

  Exact polarizability:  25.939   0.000  56.332  -0.000   0.000  50.581
 Approx polarizability:  38.437   0.000 136.191   0.000   0.000 124.746

                      1                      2                      3
                     B1                     A2                     B2
 Frequencies --    468.8384               505.7462               528.1669
 Red. masses --     12.2109                12.0000                12.0113
 Frc consts  --      1.5814                 1.8084                 1.9742
 IR Inten    --      7.1969                 0.0000                25.9716

                      4                      5                      6
                     B1                     A1                     A1
 Frequencies --    580.6992               605.9831               753.7638
 Red. masses --     12.4636                12.0496                12.7292
 Frc consts  --      2.4763                 2.6070                 4.2611
 IR Inten    --      1.1362                 1.2334                10.2851

                      7                      8                      9
                     B2                     A1                     A1
 Frequencies --   1205.8923              1226.1650              1251.5369
 Red. masses --     13.0048                12.5394                12.0313
 Frc consts  --     11.1422                11.1078                11.1032
 IR Inten    --      2.1055                 9.3937                 0.3879

                     10                     11                     12
                     B2                     B2                     A1
 Frequencies --   1514.1174              1819.9077              1845.0564
 Red. masses --     12.0012                12.0838                12.1084
 Frc consts  --     16.2104                23.5804                24.2861
 IR Inten    --     45.1215               274.2485               294.5594

 - Thermochemistry -
 -------------------
 Temperature   298.150 Kelvin.  Pressure   1.00000 Atm.
 Atom     1 has atomic number  6 and mass  12.00000

 Molecular mass:    74.00307 amu.
 Principal axes and moments of inertia in atomic units:
                           1         2         3
     Eigenvalues --   215.81085 216.06679 431.87764
           X            0.00000   0.00000   1.00000
           Y            1.00000   0.00000  -0.00000
           Z           -0.00000   1.00000  -0.00000
 This molecule is an asymmetric top.
 Rotational symmetry number  2.
 Rotational temperatures (Kelvin)      0.40134     0.40087     0.20055
 Rotational constants (GHZ):           8.36261     8.35270     4.17883
 Zero-point vibrational energy      73605.5 (Joules/Mol)
                                   17.59213 (Kcal/Mol)
 Warning -- explicit consideration of   5 degrees of freedom as
           vibrations may cause significant error
 Vibrational temperatures:    674.55   727.66   759.91   835.50   871.87
          (Kelvin)           1084.50  1735.01  1764.18  1800.68  2178.47
                             2618.44  2654.62

 Zero-point correction=                           0.028035 (Hartree/Particle)
 Thermal correction to Energy=                    0.032012
 Thermal correction to Enthalpy=                  0.032956
 Thermal correction to Gibbs Free Energy=         0.001962
 Sum of electronic and zero-point Energies=           -244.649696
 Sum of electronic and thermal Energies=              -244.645718
 Sum of electronic and thermal Enthalpies=            -244.644774
 Sum of electronic and thermal Free Energies=         -244.675768

                     E (Thermal)             CV                S
                      KCal/Mol        Cal/Mol-Kelvin    Cal/Mol-Kelvin
 Total                   20.088             13.207             65.232
 Electronic               0.000              0.000              0.000
 Translational            0.889              2.981             38.821
 Rotational               0.889              2.981             23.136
 Vibrational             18.310              7.245              3.276
 Vibration     1          0.826              1.319              0.741
 Vibration     2          0.861              1.237              0.644
 Vibration     3          0.883              1.188              0.591
 Vibration     4          0.937              1.073              0.484
 Vibration     5          0.965              1.019              0.439

 Optimization completed.
    -- Stationary point found.
 Normal termination of Gaussian 09 at Tue Aug 16 18:12:22 2016.
