 Gaussian 09, Revision E.01,
 Gaussian 09:  EM64L-G09RevE.01 30-Nov-2015

 ---------------------------------------------
 #p b3lyp/6-311++G(3df,2p) freq symmetry=Loose
 ---------------------------------------------

 ---------
 b3lyp opt
 ---------
 Symbolic Z-matrix:
 Charge =  1 Multiplicity = 1

                         Standard orientation:
 ---------------------------------------------------------------------
 Center     Atomic      Atomic             Coordinates (Angstroms)
 Number     Number       Type             X           Y           Z
 ---------------------------------------------------------------------
      1          6           0        0.000000    0.000000    1.882452
      2          6           0        0.000000    0.000000    0.557725
      3          6           0        0.000000    0.000000   -0.703111
      4          6           0        0.000000    0.000000   -1.984491
      5          6           0        0.000000    0.000000   -3.318541
      6          7           0        0.000000    0.000000    3.056542
 ---------------------------------------------------------------------

 SCF Done:  E(RB3LYP) =  -244.695433514     A.U. after   14 cycles

 Unable to determine electronic state:  partially filled degenerate orbitals.
 Alpha  occ. eigenvalues --  -14.62872 -10.55294 -10.53198 -10.53179 -10.50145
 Alpha  occ. eigenvalues --  -10.50120  -1.19519  -1.12129  -1.05385  -0.97471
 Alpha  occ. eigenvalues --   -0.90629  -0.68037  -0.67883  -0.64035  -0.61856
 Alpha  occ. eigenvalues --   -0.61393  -0.55753  -0.52690
 Alpha virt. eigenvalues --   -0.48192  -0.35161  -0.34803  -0.20322  -0.20281
 Alpha virt. eigenvalues --   -0.17047  -0.12942  -0.10874  -0.10526  -0.08446
 Alpha virt. eigenvalues --   -0.07417  -0.07210  -0.06976  -0.05978  -0.05744

 Mulliken charges:
               1
     1  C   -0.125298
     2  C    0.995843
     3  C   -0.217265
     4  C    1.522357
     5  C   -0.454935
     6  N   -0.720702
 Sum of Mulliken charges =   1.00000

 Dipole moment (field-independent basis, Debye):
    X=              0.0000    Y=              0.0000    Z=             -1.4239  Tot=              1.4239
 Quadrupole moment (field-independent basis, Debye-Ang):
   XX=            -30.7547   YY=            -27.7036   ZZ=            -17.9244
   XY=              0.0000   XZ=              0.0000   YZ=              0.0000

  Exact polarizability:  31.148  -0.000  31.411   0.000   0.000 163.276
 Approx polarizability:  43.845  -0.000  46.711  -0.000  -0.000 490.733

                      1                      2                      3
                     ?A                     ?A                     ?A
 Frequencies --     73.9598               100.1100               166.4558
 Red. masses --     12.2885                12.4586                12.3604
 Frc consts  --      0.0396                 0.0736                 0.2018
 IR Inten    --     16.4188                 4.7692                 0.7325

                      4                      5                      6
                     ?A                     ?A                     ?A
 Frequencies --    218.3006               347.4079               471.6456
 Red. masses --     12.1329                12.1297                12.1875
 Frc consts  --      0.3407                 0.8625                 1.5973
 IR Inten    --      0.0569                14.5266                 2.7732

                      7                      8                      9
                     ?A                     SG                     ?A
 Frequencies --    546.1621               645.4279               647.2522
 Red. masses --     12.0144                12.5361                12.0123
 Frc consts  --      2.1115                 3.0769                 2.9650
 IR Inten    --      2.9956                16.2883                 4.9080

                     10                     11                     12
                     SG                     SG                     SG
 Frequencies --   1196.2461              1771.7180              2119.7576
 Red. masses --     12.2532                12.1178                12.0055
 Frc consts  --     10.3310                22.4112                31.7835
 IR Inten    --    156.2763               432.4427                95.0085

                     13
                     SG
 Frequencies --   2171.7183
 Red. masses --     12.5309
 Frc consts  --     34.8209
 IR Inten    --    442.0957

 - Thermochemistry -
 -------------------
 Temperature   298.150 Kelvin.  Pressure   1.00000 Atm.
 Atom     1 has atomic number  6 and mass  12.00000

 Molecular mass:    74.00307 amu.
 Principal axes and moments of inertia in atomic units:
                           1         2         3
     Eigenvalues --     0.000001294.234621294.23462
           X            0.00000  -0.00000   1.00000
           Y            0.00000   1.00000   0.00000
           Z            1.00000   0.00000   0.00000
 This molecule is a prolate symmetric top.
 Rotational symmetry number  1.
 Warning -- assumption of classical behavior for rotation
           may cause significant error
 Rotational temperature (Kelvin)      0.06692
 Rotational constant (GHZ):           1.394447
 Zero-point vibrational energy      62661.4 (Joules/Mol)
                                   14.97643 (Kcal/Mol)
 Warning -- explicit consideration of   7 degrees of freedom as
           vibrations may cause significant error
 Vibrational temperatures:    106.41   144.04   239.49   314.09   499.84
          (Kelvin)            678.59   785.80   928.63   931.25  1721.13
                             2549.10  3049.85  3124.61

 Zero-point correction=                           0.023866 (Hartree/Particle)
 Thermal correction to Energy=                    0.029989
 Thermal correction to Enthalpy=                  0.030933
 Thermal correction to Gibbs Free Energy=        -0.003615
 Sum of electronic and zero-point Energies=           -244.671567
 Sum of electronic and thermal Energies=              -244.665445
 Sum of electronic and thermal Enthalpies=            -244.664501
 Sum of electronic and thermal Free Energies=         -244.699049

                     E (Thermal)             CV                S
                      KCal/Mol        Cal/Mol-Kelvin    Cal/Mol-Kelvin
 Total                   18.818             18.742             72.713
 Electronic               0.000              0.000              0.000
 Translational            0.889              2.981             38.821
 Rotational               0.592              1.987             18.683
 Vibrational             17.337             13.774             15.209
 Vibration     1          0.599              1.966              4.045
 Vibration     2          0.604              1.949              3.452
 Vibration     3          0.624              1.884              2.475
 Vibration     4          0.646              1.813              1.973
 Vibration     5          0.725              1.581              1.178
 Vibration     6          0.829              1.313              0.733
 Vibration     7          0.901              1.148              0.552

 Optimization completed.
    -- Stationary point found.
 Normal termination of Gaussian 09 at Tue Aug 16 18:13:49 2016.
