 Gaussian 09, Revision E.01,
 Gaussian 09:  EM64L-G09RevE.01 30-Nov-2015

 ---------------------------------------------
 #p b3lyp/6-311++G(3df,2p) freq symmetry=Loose
 ---------------------------------------------

 ---------
 b3lyp opt
 ---------
 Symbolic Z-matrix:
 Charge =  0 Multiplicity = 4

                         Standard orientation:
 ---------------------------------------------------------------------
 Center     Atomic      Atomic             Coordinates (Angstroms)
 Number     Number       Type             X           Y           Z
 ---------------------------------------------------------------------
      1          7           0       -1.213803    0.665104   -0.000000
      2          6           0        0.000000    1.206146   -0.000000
      3          6           0        0.190410   -1.484789    0.000000
      4          6           0        0.719488    2.392732   -0.000000
      5          6           0       -0.167707   -0.219002    0.000000
      6          6           0        0.673912   -2.671042    0.000000
 ---------------------------------------------------------------------

 SCF Done:  E(UB3LYP) =  -244.896415889     A.U. after   23 cycles

 The electronic state is 4-A".
 Alpha  occ. eigenvalues --  -14.44888 -10.35062 -10.33571 -10.28346 -10.26176
 Alpha  occ. eigenvalues --  -10.23747  -1.12904  -0.84989  -0.80831  -0.73043
 Alpha  occ. eigenvalues --   -0.62139  -0.54875  -0.52870  -0.42356  -0.40075
 Alpha  occ. eigenvalues --   -0.36859  -0.33864  -0.33254  -0.31110  -0.26630
 Alpha virt. eigenvalues --   -0.15255  -0.05261  -0.05194  -0.00082   0.03038
 Alpha virt. eigenvalues --    0.03691   0.03721   0.05551   0.06062   0.06327
 Alpha virt. eigenvalues --    0.07904   0.08371   0.09266   0.10065   0.11614

  Beta  occ. eigenvalues --  -14.43958 -10.34822 -10.33363 -10.25702 -10.25428
  Beta  occ. eigenvalues --  -10.23515  -1.11288  -0.83809  -0.74713  -0.71537
  Beta  occ. eigenvalues --   -0.59655  -0.52381  -0.50500  -0.39464  -0.35175
  Beta  occ. eigenvalues --   -0.32360  -0.30564
  Beta virt. eigenvalues --   -0.24465  -0.19053  -0.13514  -0.11282  -0.02727
  Beta virt. eigenvalues --   -0.00524   0.00414   0.03608   0.04090   0.04401
  Beta virt. eigenvalues --    0.05816   0.06604   0.07054   0.08701   0.08718

 Mulliken charges and spin densities:
               1          2
     1  N   -0.561418   0.397511
     2  C    0.562088   0.128453
     3  C    1.021536   0.153297
     4  C   -0.355339   1.821837
     5  C    0.018088   0.238747
     6  C   -0.684955   0.260156
 Sum of Mulliken charges =  -0.00000   3.00000

 Dipole moment (field-independent basis, Debye):
    X=             -0.6603    Y=              1.2640    Z=             -0.0000  Tot=              1.4261
 Quadrupole moment (field-independent basis, Debye-Ang):
   XX=            -36.8139   YY=            -47.3204   ZZ=            -32.5226
   XY=              2.1503   XZ=              0.0000   YZ=              0.0000

  Exact polarizability:  60.294  22.368 249.181  -0.000   0.000  39.634
 Approx polarizability: 108.875  48.250 632.916  -0.000  -0.000  57.403

                      1                      2                      3
                     A'                     A"                     A'
 Frequencies --    120.6560               157.3294               310.2930
 Red. masses --     12.1047                12.1976                12.2017
 Frc consts  --      0.1038                 0.1779                 0.6922
 IR Inten    --     19.2293                14.3391                 7.3472

                      4                      5                      6
                     A"                     A'                     A"
 Frequencies --    323.9306               520.9063               577.6510
 Red. masses --     12.1243                12.4428                12.0020
 Frc consts  --      0.7496                 1.9892                 2.3596
 IR Inten    --     11.9667                17.5502                 0.4543

                      7                      8                      9
                     A'                     A'                     A'
 Frequencies --    653.2142               820.4955              1039.0011
 Red. masses --     12.0106                12.7488                12.8037
 Frc consts  --      3.0194                 5.0567                 8.1436
 IR Inten    --    171.8993                66.2887                 2.7924

                     10                     11                     12
                     A'                     A'                     A'
 Frequencies --   1247.0753              1616.6371              1970.2915
 Red. masses --     12.0625                12.3215                12.0170
 Frc consts  --     11.0528                18.9731                27.4857
 IR Inten    --      9.9055               100.0105              1436.1892

 - Thermochemistry -
 -------------------
 Temperature   298.150 Kelvin.  Pressure   1.00000 Atm.
 Atom     1 has atomic number  7 and mass  14.00307

 Molecular mass:    74.00307 amu.
 Principal axes and moments of inertia in atomic units:
                           1         2         3
     Eigenvalues --   113.31772 736.82304 850.14077
           X           -0.08738   0.99617   0.00000
           Y            0.99617   0.08738   0.00000
           Z            0.00000   0.00000   1.00000
 This molecule is an asymmetric top.
 Rotational symmetry number  1.
 Rotational temperatures (Kelvin)      0.76434     0.11755     0.10188
 Rotational constants (GHZ):          15.92638     2.44936     2.12287
 Zero-point vibrational energy      55970.2 (Joules/Mol)
                                   13.37719 (Kcal/Mol)
 Warning -- explicit consideration of   6 degrees of freedom as
           vibrations may cause significant error
 Vibrational temperatures:    173.60   226.36   446.44   466.06   749.47
          (Kelvin)            831.11   939.83  1180.51  1494.89  1794.26
                             2325.98  2834.81

 Zero-point correction=                           0.021318 (Hartree/Particle)
 Thermal correction to Energy=                    0.026912
 Thermal correction to Enthalpy=                  0.027856
 Thermal correction to Gibbs Free Energy=        -0.008939
 Sum of electronic and zero-point Energies=           -244.875098
 Sum of electronic and thermal Energies=              -244.869504
 Sum of electronic and thermal Enthalpies=            -244.868560
 Sum of electronic and thermal Free Energies=         -244.905354

                     E (Thermal)             CV                S
                      KCal/Mol        Cal/Mol-Kelvin    Cal/Mol-Kelvin
 Total                   16.888             17.467             77.441
 Electronic               0.000              0.000              2.755
 Translational            0.889              2.981             38.821
 Rotational               0.889              2.981             25.765
 Vibrational             15.110             11.506             10.101
 Vibration     1          0.609              1.932              3.090
 Vibration     2          0.621              1.894              2.582
 Vibration     3          0.699              1.654              1.361
 Vibration     4          0.708              1.628              1.290
 Vibration     5          0.876              1.204              0.608
 Vibration     6          0.934              1.080              0.490

 Optimization completed.
    -- Stationary point found.
 Normal termination of Gaussian 09 at Tue Aug 16 18:46:51 2016.
