 Gaussian 09, Revision E.01,
 Gaussian 09:  EM64L-G09RevE.01 30-Nov-2015

 ---------------------------------------------
 #p b3lyp/6-311++G(3df,2p) freq symmetry=Loose
 ---------------------------------------------

 ---------
 b3lyp opt
 ---------
 Symbolic Z-matrix:
 Charge =  0 Multiplicity = 4

                         Standard orientation:
 ---------------------------------------------------------------------
 Center     Atomic      Atomic             Coordinates (Angstroms)
 Number     Number       Type             X           Y           Z
 ---------------------------------------------------------------------
      1          6           0        2.478809    1.152690   -0.000000
      2          6           0       -1.690529   -2.362941    0.000000
      3          6           0       -1.271415   -1.117049    0.000000
      4          6           0        0.000000    1.032950   -0.000000
      5          6           0       -1.028704    0.147975    0.000000
      6          7           0        1.295862    0.982607   -0.000000
 ---------------------------------------------------------------------

 SCF Done:  E(UB3LYP) =  -244.978021155     A.U. after   19 cycles

 The electronic state is 4-A".
 Alpha  occ. eigenvalues --  -14.43570 -10.34272 -10.29467 -10.27318 -10.25789
 Alpha  occ. eigenvalues --  -10.24777  -1.05423  -0.89217  -0.83116  -0.75517
 Alpha  occ. eigenvalues --   -0.64972  -0.50914  -0.50390  -0.41070  -0.40465
 Alpha  occ. eigenvalues --   -0.38229  -0.33844  -0.32269  -0.30820  -0.25132
 Alpha virt. eigenvalues --   -0.13802  -0.04840  -0.02200  -0.01527   0.01060
 Alpha virt. eigenvalues --    0.03122   0.03667   0.03881   0.05612   0.05760
 Alpha virt. eigenvalues --    0.06500   0.07509   0.09241   0.09350   0.09380

  Beta  occ. eigenvalues --  -14.43669 -10.32217 -10.28779 -10.26442 -10.24567
  Beta  occ. eigenvalues --  -10.24424  -1.04243  -0.86284  -0.80251  -0.72208
  Beta  occ. eigenvalues --   -0.62583  -0.48068  -0.47419  -0.37638  -0.37053
  Beta  occ. eigenvalues --   -0.36094  -0.31136
  Beta virt. eigenvalues --   -0.21013  -0.19798  -0.11675  -0.09647  -0.02683
  Beta virt. eigenvalues --   -0.00030   0.00402   0.02562   0.04168   0.04898
  Beta virt. eigenvalues --    0.05161   0.06076   0.06332   0.07216   0.08020

 Mulliken charges and spin densities:
               1          2
     1  C    0.048967   0.400021
     2  C   -0.825065   0.835371
     3  C    0.801787   0.392303
     4  C    0.409787   1.178548
     5  C    0.103701   0.316667
     6  N   -0.539178  -0.122909
 Sum of Mulliken charges =  -0.00000   3.00000

 Dipole moment (field-independent basis, Debye):
    X=              0.3622    Y=              2.3897    Z=             -0.0000  Tot=              2.4170
 Quadrupole moment (field-independent basis, Debye-Ang):
   XX=            -42.7469   YY=            -41.5682   ZZ=            -32.5154
   XY=             -5.9430   XZ=              0.0000   YZ=              0.0000

  Exact polarizability:  99.579  40.823  98.383   0.000  -0.000  41.785
 Approx polarizability: 163.667  76.105 192.805  -0.000  -0.000  59.535

                      1                      2                      3
                     A'                     A"                     A'
 Frequencies --     81.6729               188.8534               241.4043
 Red. masses --     12.0783                12.1206                12.5279
 Frc consts  --      0.0475                 0.2547                 0.4301
 IR Inten    --      3.3865                 5.8673                 5.2704

                      4                      5                      6
                     A"                     A'                     A"
 Frequencies --    269.9578               385.6625               532.9305
 Red. masses --     12.8620                12.3926                12.2228
 Frc consts  --      0.5523                 1.0860                 2.0453
 IR Inten    --     14.0148                 7.5206                 4.2106

                      7                      8                      9
                     A'                     A'                     A'
 Frequencies --    554.7967               820.5303              1177.3074
 Red. masses --     12.3858                12.2107                12.0598
 Frc consts  --      2.2462                 4.8437                 9.8485
 IR Inten    --     14.3304                 1.3666                17.9286

                     10                     11                     12
                     A'                     A'                     A'
 Frequencies --   1485.1323              1912.9792              1926.2128
 Red. masses --     12.0090                12.0572                12.9648
 Frc consts  --     15.6059                25.9966                28.3415
 IR Inten    --    255.6529               125.8139               258.1106

 - Thermochemistry -
 -------------------
 Temperature   298.150 Kelvin.  Pressure   1.00000 Atm.
 Atom     1 has atomic number  6 and mass  12.00000

 Molecular mass:    74.00307 amu.
 Principal axes and moments of inertia in atomic units:
                           1         2         3
     Eigenvalues --    96.97177 932.018661028.99043
           X            0.76399  -0.64523   0.00000
           Y            0.64523   0.76399   0.00000
           Z           -0.00000  -0.00000   1.00000
 This molecule is an asymmetric top.
 Rotational symmetry number  1.
 Rotational temperatures (Kelvin)      0.89319     0.09293     0.08417
 Rotational constants (GHZ):          18.61100     1.93638     1.75390
 Zero-point vibrational energy      57285.8 (Joules/Mol)
                                   13.69164 (Kcal/Mol)
 Warning -- explicit consideration of   7 degrees of freedom as
           vibrations may cause significant error
 Vibrational temperatures:    117.51   271.72   347.33   388.41   554.88
          (Kelvin)            766.77   798.23  1180.56  1693.88  2136.77
                             2752.35  2771.39

 Zero-point correction=                           0.021819 (Hartree/Particle)
 Thermal correction to Energy=                    0.027767
 Thermal correction to Enthalpy=                  0.028711
 Thermal correction to Gibbs Free Energy=        -0.009049
 Sum of electronic and zero-point Energies=           -244.956202
 Sum of electronic and thermal Energies=              -244.950254
 Sum of electronic and thermal Enthalpies=            -244.949310
 Sum of electronic and thermal Free Energies=         -244.987070

                     E (Thermal)             CV                S
                      KCal/Mol        Cal/Mol-Kelvin    Cal/Mol-Kelvin
 Total                   17.424             18.040             79.472
 Electronic               0.000              0.000              2.755
 Translational            0.889              2.981             38.821
 Rotational               0.889              2.981             26.034
 Vibrational             15.647             12.078             11.863
 Vibration     1          0.600              1.962              3.850
 Vibration     2          0.633              1.855              2.239
 Vibration     3          0.658              1.777              1.793
 Vibration     4          0.674              1.728              1.596
 Vibration     5          0.754              1.501              1.017
 Vibration     6          0.888              1.177              0.581
 Vibration     7          0.910              1.129              0.534

 Optimization completed.
    -- Stationary point found.
 Normal termination of Gaussian 09 at Tue Aug 16 18:33:27 2016.
