 Gaussian 09, Revision E.01,
 Gaussian 09:  EM64L-G09RevE.01 30-Nov-2015

 ---------------------------------------------
 #p b3lyp/6-311++G(3df,2p) freq symmetry=Loose
 ---------------------------------------------

 ---------
 b3lyp opt
 ---------
 Symbolic Z-matrix:
 Charge =  0 Multiplicity = 2

                         Standard orientation:
 ---------------------------------------------------------------------
 Center     Atomic      Atomic             Coordinates (Angstroms)
 Number     Number       Type             X           Y           Z
 ---------------------------------------------------------------------
      1          6           0        0.427357    0.912121    0.084904
      2          7           0        0.986989   -0.353204    0.730328
      3          6           0       -0.919798    0.673468    0.015393
      4          6           0        1.127891   -0.096584   -0.754177
      5          6           0       -0.111198   -0.677107   -0.220219
      6          6           0       -1.675739   -0.399827    0.022049
 ---------------------------------------------------------------------

 SCF Done:  E(UB3LYP) =  -244.855893593     A.U. after   20 cycles

 The electronic state is 2-A.
 Alpha  occ. eigenvalues --  -14.42663 -10.34692 -10.32224 -10.30677 -10.29357
 Alpha  occ. eigenvalues --  -10.26793  -1.15920  -0.92616  -0.74855  -0.68704
 Alpha  occ. eigenvalues --   -0.62239  -0.53366  -0.47489  -0.42353  -0.39175
 Alpha  occ. eigenvalues --   -0.37666  -0.37221  -0.30531  -0.28993
 Alpha virt. eigenvalues --   -0.15972  -0.06452  -0.03811   0.00677   0.01877
 Alpha virt. eigenvalues --    0.03454   0.04055   0.05709   0.06132   0.06263
 Alpha virt. eigenvalues --    0.06904   0.07861   0.08136   0.08917   0.11180

  Beta  occ. eigenvalues --  -14.42267 -10.34575 -10.32067 -10.29606 -10.29286
  Beta  occ. eigenvalues --  -10.26538  -1.15241  -0.92071  -0.74372  -0.67400
  Beta  occ. eigenvalues --   -0.61245  -0.52610  -0.46005  -0.41008  -0.37406
  Beta  occ. eigenvalues --   -0.36814  -0.34181  -0.29952
  Beta virt. eigenvalues --   -0.18712  -0.15439  -0.05395  -0.03454   0.00902
  Beta virt. eigenvalues --    0.02333   0.03714   0.04194   0.05973   0.06392
  Beta virt. eigenvalues --    0.06926   0.07013   0.08102   0.08611   0.09345

 Mulliken charges and spin densities:
               1          2
     1  C    0.241603   0.046330
     2  N   -0.535485   0.159830
     3  C    0.342972   0.067490
     4  C   -0.222922   0.567851
     5  C    0.562322  -0.001602
     6  C   -0.388490   0.160101
 Sum of Mulliken charges =  -0.00000   1.00000

 Dipole moment (field-independent basis, Debye):
    X=              0.5673    Y=              1.4811    Z=             -0.3834  Tot=              1.6317
 Quadrupole moment (field-independent basis, Debye-Ang):
   XX=            -38.8223   YY=            -32.2939   ZZ=            -35.2900
   XY=             -2.5044   XZ=             -0.2504   YZ=              0.8616

  Exact polarizability:  73.829   4.290  48.741  -4.706   0.855  44.900
 Approx polarizability: 150.122  18.882 115.616  -9.731   5.489  80.172

                      1                      2                      3
                      A                      A                      A
 Frequencies --    296.8463               382.3087               500.8003
 Red. masses --     12.2889                12.0685                12.0545
 Frc consts  --      0.6380                 1.0393                 1.7813
 IR Inten    --      6.6065                19.1770                 1.1746

                      4                      5                      6
                      A                      A                      A
 Frequencies --    639.5014               674.8572               683.9637
 Red. masses --     12.1920                12.8484                12.4412
 Frc consts  --      2.9377                 3.4476                 3.4291
 IR Inten    --     28.0977                 1.4111                16.9968

                      7                      8                      9
                      A                      A                      A
 Frequencies --    721.8989               861.3864               950.2983
 Red. masses --     12.2273                12.7013                12.0013
 Frc consts  --      3.7543                 5.5526                 6.3855
 IR Inten    --     26.2167                38.3916                20.9483

                     10                     11                     12
                      A                      A                      A
 Frequencies --   1197.1765              1253.2132              1533.7458
 Red. masses --     12.3064                12.1103                12.0033
 Frc consts  --     10.3919                11.2061                16.6363
 IR Inten    --     25.2153                 8.4305                20.7978

 - Thermochemistry -
 -------------------
 Temperature   298.150 Kelvin.  Pressure   1.00000 Atm.
 Atom     1 has atomic number  6 and mass  12.00000

 Molecular mass:    74.00307 amu.
 Principal axes and moments of inertia in atomic units:
                           1         2         3
     Eigenvalues --   141.68791 321.63773 356.39740
           X            1.00000   0.00002  -0.00004
           Y           -0.00002   1.00000   0.00008
           Z            0.00004  -0.00008   1.00000
 This molecule is an asymmetric top.
 Rotational symmetry number  1.
 Rotational temperatures (Kelvin)      0.61130     0.26929     0.24303
 Rotational constants (GHZ):          12.73744     5.61110     5.06384
 Zero-point vibrational energy      57994.9 (Joules/Mol)
                                   13.86112 (Kcal/Mol)
 Warning -- explicit consideration of   3 degrees of freedom as
           vibrations may cause significant error
 Vibrational temperatures:    427.10   550.06   720.54   920.10   970.97
          (Kelvin)            984.07  1038.65  1239.34  1367.27  1722.47
                             1803.09  2206.72

 Zero-point correction=                           0.022089 (Hartree/Particle)
 Thermal correction to Energy=                    0.026524
 Thermal correction to Enthalpy=                  0.027468
 Thermal correction to Gibbs Free Energy=        -0.005464
 Sum of electronic and zero-point Energies=           -244.833804
 Sum of electronic and thermal Energies=              -244.829369
 Sum of electronic and thermal Enthalpies=            -244.828425
 Sum of electronic and thermal Free Energies=         -244.861357

                     E (Thermal)             CV                S
                      KCal/Mol        Cal/Mol-Kelvin    Cal/Mol-Kelvin
 Total                   16.644             15.309             69.311
 Electronic               0.000              0.000              1.377
 Translational            0.889              2.981             38.821
 Rotational               0.889              2.981             24.300
 Vibrational             14.867              9.347              4.814
 Vibration     1          0.690              1.680              1.435
 Vibration     2          0.752              1.508              1.030
 Vibration     3          0.856              1.248              0.656

 Normal termination of Gaussian 09 at Tue Aug 16 18:38:13 2016.
