 Gaussian 09, Revision E.01,
 Gaussian 09:  EM64L-G09RevE.01 30-Nov-2015

 ---------------------------------------------
 #p b3lyp/6-311++G(3df,2p) freq symmetry=Loose
 ---------------------------------------------

 ---------
 b3lyp opt
 ---------
 Symbolic Z-matrix:
 Charge =  0 Multiplicity = 4

                         Standard orientation:
 ---------------------------------------------------------------------
 Center     Atomic      Atomic             Coordinates (Angstroms)
 Number     Number       Type             X           Y           Z
 ---------------------------------------------------------------------
      1          6           0       -0.415607   -0.796378    0.332281
      2          6           0        1.703202    0.290185   -0.319447
      3          6           0        0.487655    0.679157    0.379223
      4          6           0        0.949857   -0.788211   -0.039607
      5          6           0       -0.930548    0.886435   -0.011955
      6          7           0       -1.538194   -0.232447   -0.291853
 ---------------------------------------------------------------------

 SCF Done:  E(UB3LYP) =  -244.868244495     A.U. after   20 cycles

 The electronic state is 4-A.
 Alpha  occ. eigenvalues --  -14.40418 -10.35100 -10.32792 -10.31901 -10.29468
 Alpha  occ. eigenvalues --  -10.25271  -1.10249  -0.96876  -0.74720  -0.73207
 Alpha  occ. eigenvalues --   -0.60111  -0.53386  -0.50775  -0.49126  -0.40208
 Alpha  occ. eigenvalues --   -0.38922  -0.33687  -0.31831  -0.28322  -0.25176
 Alpha virt. eigenvalues --   -0.09556  -0.08247  -0.03397  -0.00613   0.01833
 Alpha virt. eigenvalues --    0.03711   0.04070   0.05515   0.06194   0.06832
 Alpha virt. eigenvalues --    0.07091   0.07780   0.08746   0.11705   0.12143

  Beta  occ. eigenvalues --  -14.39982 -10.33750 -10.31403 -10.30491 -10.28287
  Beta  occ. eigenvalues --  -10.24860  -1.08482  -0.95384  -0.72037  -0.70101
  Beta  occ. eigenvalues --   -0.57048  -0.48856  -0.48483  -0.44538  -0.38778
  Beta  occ. eigenvalues --   -0.34939  -0.28570
  Beta virt. eigenvalues --   -0.19348  -0.16804  -0.13088  -0.06064  -0.04141
  Beta virt. eigenvalues --   -0.00738   0.01636   0.02747   0.04210   0.04585
  Beta virt. eigenvalues --    0.06228   0.06785   0.06968   0.07847   0.08183

 Mulliken charges and spin densities:
               1          2
     1  C    0.097855   0.746057
     2  C   -0.327276   0.164796
     3  C    0.237425   0.574162
     4  C    0.421211   0.607913
     5  C    0.211686   0.843760
     6  N   -0.640900   0.063311
 Sum of Mulliken charges =  -0.00000   3.00000

 Dipole moment (field-independent basis, Debye):
    X=             -0.7761    Y=             -0.4803    Z=              0.7194  Tot=              1.1622
 Quadrupole moment (field-independent basis, Debye-Ang):
   XX=            -41.7126   YY=            -32.7386   ZZ=            -34.0669
   XY=             -2.0098   XZ=              0.5311   YZ=              0.1650

  Exact polarizability:  84.036  -4.590  54.534  -3.132  -0.179  39.151
 Approx polarizability: 171.110 -12.952 121.280  -5.500   0.773  64.205

                      1                      2                      3
                      A                      A                      A
 Frequencies --    133.3360               236.3763               442.6835
 Red. masses --     12.0170                12.3524                12.4216
 Frc consts  --      0.1259                 0.4066                 1.4342
 IR Inten    --      0.5272                 6.0822                 1.5688

                      4                      5                      6
                      A                      A                      A
 Frequencies --    513.8186               565.9201               680.0390
 Red. masses --     12.1784                12.1177                12.3328
 Frc consts  --      1.8943                 2.2865                 3.3603
 IR Inten    --      7.0651                 5.7688                11.1843

                      7                      8                      9
                      A                      A                      A
 Frequencies --    715.1740               919.7058               974.2364
 Red. masses --     12.2581                12.5021                12.0713
 Frc consts  --      3.6940                 6.2306                 6.7505
 IR Inten    --      7.3697                19.0515                 5.9485

                     10                     11                     12
                      A                      A                      A
 Frequencies --   1105.1553              1333.8532              1471.7512
 Red. masses --     12.0432                12.3060                12.5241
 Frc consts  --      8.6664                12.8998                15.9833
 IR Inten    --     19.3913               221.2699                18.2230

 - Thermochemistry -
 -------------------
 Temperature   298.150 Kelvin.  Pressure   1.00000 Atm.
 Atom     1 has atomic number  6 and mass  12.00000

 Molecular mass:    74.00307 amu.
 Principal axes and moments of inertia in atomic units:
                           1         2         3
     Eigenvalues --   133.14993 355.58989 449.54022
           X            1.00000  -0.00002  -0.00002
           Y            0.00002   1.00000  -0.00001
           Z            0.00002   0.00001   1.00000
 This molecule is an asymmetric top.
 Rotational symmetry number  1.
 Rotational temperatures (Kelvin)      0.65050     0.24358     0.19267
 Rotational constants (GHZ):          13.55420     5.07534     4.01464
 Zero-point vibrational energy      54382.5 (Joules/Mol)
                                   12.99774 (Kcal/Mol)
 Warning -- explicit consideration of   5 degrees of freedom as
           vibrations may cause significant error
 Vibrational temperatures:    191.84   340.09   636.92   739.27   814.23
          (Kelvin)            978.42  1028.97  1323.25  1401.71  1590.07
                             1919.11  2117.52

 Zero-point correction=                           0.020713 (Hartree/Particle)
 Thermal correction to Energy=                    0.025747
 Thermal correction to Enthalpy=                  0.026691
 Thermal correction to Gibbs Free Energy=        -0.008363
 Sum of electronic and zero-point Energies=           -244.847531
 Sum of electronic and thermal Energies=              -244.842498
 Sum of electronic and thermal Enthalpies=            -244.841554
 Sum of electronic and thermal Free Energies=         -244.876607

                     E (Thermal)             CV                S
                      KCal/Mol        Cal/Mol-Kelvin    Cal/Mol-Kelvin
 Total                   16.156             16.407             73.776
 Electronic               0.000              0.000              2.755
 Translational            0.889              2.981             38.821
 Rotational               0.889              2.981             24.568
 Vibrational             14.379             10.445              7.632
 Vibration     1          0.613              1.920              2.897
 Vibration     2          0.655              1.785              1.830
 Vibration     3          0.802              1.377              0.818
 Vibration     4          0.869              1.219              0.624
 Vibration     5          0.922              1.105              0.512

 Optimization completed.
    -- Stationary point found.
 Normal termination of Gaussian 09 at Tue Aug 16 18:51:59 2016.
