 Gaussian 09, Revision E.01,
 Gaussian 09:  EM64L-G09RevE.01 30-Nov-2015

 ---------------------------------------------
 #p b3lyp/6-311++G(3df,2p) freq symmetry=Loose
 ---------------------------------------------

 ---------
 b3lyp opt
 ---------
 Symbolic Z-matrix:
 Charge =  0 Multiplicity = 4

                         Standard orientation:
 ---------------------------------------------------------------------
 Center     Atomic      Atomic             Coordinates (Angstroms)
 Number     Number       Type             X           Y           Z
 ---------------------------------------------------------------------
      1          6           0        0.019182    1.154466    0.681003
      2          6           0        0.019182   -0.345231    0.803859
      3          6           0       -1.240952   -0.440410    0.000000
      4          6           0        0.019182    1.154466   -0.681003
      5          6           0        0.019182   -0.345231   -0.803859
      6          7           0        0.997905   -1.009764   -0.000000
 ---------------------------------------------------------------------

 SCF Done:  E(UB3LYP) =  -244.831284579     A.U. after   17 cycles

 The electronic state is 4-A".
 Alpha  occ. eigenvalues --  -14.41827 -10.31861 -10.31846 -10.29493 -10.29425
 Alpha  occ. eigenvalues --  -10.29253  -1.11796  -0.89870  -0.76527  -0.71031
 Alpha  occ. eigenvalues --   -0.56299  -0.52120  -0.49168  -0.43779  -0.43618
 Alpha  occ. eigenvalues --   -0.37862  -0.35087  -0.31716  -0.30620  -0.27079
 Alpha virt. eigenvalues --   -0.10586  -0.10471  -0.05859   0.01637   0.02673
 Alpha virt. eigenvalues --    0.03717   0.03944   0.06191   0.06374   0.07769
 Alpha virt. eigenvalues --    0.07917   0.08247   0.10578   0.10810   0.12537

  Beta  occ. eigenvalues --  -14.40201 -10.31243 -10.31229 -10.29076 -10.27844
  Beta  occ. eigenvalues --  -10.27784  -1.09737  -0.86363  -0.74113  -0.68314
  Beta  occ. eigenvalues --   -0.52112  -0.49340  -0.46507  -0.41142  -0.38172
  Beta  occ. eigenvalues --   -0.33525  -0.31435
  Beta virt. eigenvalues --   -0.18690  -0.15333  -0.14382  -0.09574  -0.07744
  Beta virt. eigenvalues --   -0.03021   0.02022   0.03338   0.03990   0.04522
  Beta virt. eigenvalues --    0.06634   0.06728   0.07896   0.08012   0.08496

 Mulliken charges and spin densities:
               1          2
     1  C   -0.016170   0.937210
     2  C    0.506076   0.102960
     3  C   -0.353313   0.136293
     4  C   -0.016170   0.937210
     5  C    0.506076   0.102960
     6  N   -0.626498   0.783365
 Sum of Mulliken charges =  -0.00000   3.00000

 Dipole moment (field-independent basis, Debye):
    X=              0.5528    Y=              0.6048    Z=              0.0000  Tot=              0.8194
 Quadrupole moment (field-independent basis, Debye-Ang):
   XX=            -38.6450   YY=            -34.7799   ZZ=            -32.5361
   XY=              1.4651   XZ=              0.0000   YZ=             -0.0000

  Exact polarizability:  54.811  -1.722  61.059  -0.000  -0.000  52.566
 Approx polarizability: 101.326  -0.033 118.917   0.000   0.000 120.355

                      1                      2                      3
                     A"                     A'                     A'
 Frequencies --     60.7616               323.4237               414.2868
 Red. masses --     12.2889                12.1762                12.7761
 Frc consts  --      0.0267                 0.7504                 1.2920
 IR Inten    --     10.9518                 2.2970                 1.6079

                      4                      5                      6
                     A"                     A"                     A"
 Frequencies --    453.4972               669.7561               739.3503
 Red. masses --     12.1650                12.0001                12.2972
 Frc consts  --      1.4740                 3.1715                 3.9606
 IR Inten    --     10.0741                15.2280                 4.8144

                      7                      8                      9
                     A'                     A"                     A'
 Frequencies --    879.5956               965.8116               982.0943
 Red. masses --     12.7013                12.0060                12.0001
 Frc consts  --      5.7898                 6.5983                 6.8193
 IR Inten    --      0.0215                 0.1480                 5.3020

                     10                     11                     12
                     A'                     A'                     A'
 Frequencies --   1131.6645              1172.8356              1464.1714
 Red. masses --     12.0424                12.6289                12.0009
 Frc consts  --      9.0866                10.2350                15.1582
 IR Inten    --     11.3193                 5.6405                10.2918

 - Thermochemistry -
 -------------------
 Temperature   298.150 Kelvin.  Pressure   1.00000 Atm.
 Atom     1 has atomic number  6 and mass  12.00000

 Molecular mass:    74.00307 amu.
 Principal axes and moments of inertia in atomic units:
                           1         2         3
     Eigenvalues --   202.38665 287.46450 299.59263
           X           -0.31782   0.94815   0.00000
           Y            0.94815   0.31782   0.00000
           Z           -0.00000  -0.00000   1.00000
 This molecule is an asymmetric top.
 Rotational symmetry number  1.
 Rotational temperatures (Kelvin)      0.42796     0.30130     0.28911
 Rotational constants (GHZ):           8.91729     6.27814     6.02398
 Zero-point vibrational energy      55370.6 (Joules/Mol)
                                   13.23390 (Kcal/Mol)
 Warning -- explicit consideration of   4 degrees of freedom as
           vibrations may cause significant error
 Vibrational temperatures:     87.42   465.33   596.07   652.48   963.63
          (Kelvin)           1063.76  1265.54  1389.59  1413.01  1628.21
                             1687.45  2106.61

 Zero-point correction=                           0.021090 (Hartree/Particle)
 Thermal correction to Energy=                    0.026092
 Thermal correction to Enthalpy=                  0.027037
 Thermal correction to Gibbs Free Energy=        -0.008336
 Sum of electronic and zero-point Energies=           -244.810195
 Sum of electronic and thermal Energies=              -244.805192
 Sum of electronic and thermal Enthalpies=            -244.804248
 Sum of electronic and thermal Free Energies=         -244.839621

                     E (Thermal)             CV                S
                      KCal/Mol        Cal/Mol-Kelvin    Cal/Mol-Kelvin
 Total                   16.373             15.904             74.448
 Electronic               0.000              0.000              2.755
 Translational            0.889              2.981             38.821
 Rotational               0.889              2.981             24.370
 Vibrational             14.596              9.942              8.503
 Vibration     1          0.597              1.973              4.432
 Vibration     2          0.708              1.629              1.293
 Vibration     3          0.778              1.439              0.912
 Vibration     4          0.812              1.353              0.785

 Optimization completed.
    -- Stationary point found.
 Normal termination of Gaussian 09 at Tue Aug 16 18:43:52 2016.
