 Gaussian 09, Revision E.01,
 Gaussian 09:  EM64L-G09RevE.01 30-Nov-2015

 ---------------------------------------------
 #p b3lyp/6-311++G(3df,2p) freq symmetry=Loose
 ---------------------------------------------

 ---------
 b3lyp opt
 ---------
 Symbolic Z-matrix:
 Charge =  1 Multiplicity = 3

                         Standard orientation:
 ---------------------------------------------------------------------
 Center     Atomic      Atomic             Coordinates (Angstroms)
 Number     Number       Type             X           Y           Z
 ---------------------------------------------------------------------
      1          6           0        1.280488   -0.023696    0.003787
      2          6           0       -0.173920    0.428967   -0.007139
      3          6           0       -2.469331   -0.517767    0.017813
      4          6           0        0.836476    1.278317    0.008543
      5          6           0        2.116493   -1.101277   -0.000174
      6          7           0       -1.363034   -0.055323   -0.019569
 ---------------------------------------------------------------------

 SCF Done:  E(UB3LYP) =  -244.620970991     A.U. after   20 cycles

 The electronic state is 3-A.
 Alpha  occ. eigenvalues --  -14.64133 -10.60809 -10.55730 -10.53991 -10.53494
 Alpha  occ. eigenvalues --  -10.52009  -1.28297  -1.22399  -1.04415  -1.02452
 Alpha  occ. eigenvalues --   -0.79047  -0.75980  -0.74419  -0.65689  -0.64669
 Alpha  occ. eigenvalues --   -0.58017  -0.56989  -0.56599  -0.53019
 Alpha virt. eigenvalues --   -0.38424  -0.34660  -0.25294  -0.24545  -0.18246
 Alpha virt. eigenvalues --   -0.17332  -0.11989  -0.11286  -0.11103  -0.08622
 Alpha virt. eigenvalues --   -0.08234  -0.07368  -0.06564  -0.05989  -0.04941

  Beta  occ. eigenvalues --  -14.64151 -10.60482 -10.54166 -10.53109 -10.52811
  Beta  occ. eigenvalues --  -10.51884  -1.27732  -1.21422  -1.03319  -0.98886
  Beta  occ. eigenvalues --   -0.77179  -0.72941  -0.72699  -0.63240  -0.62399
  Beta  occ. eigenvalues --   -0.56744  -0.55391
  Beta virt. eigenvalues --   -0.44025  -0.42105  -0.35038  -0.31806  -0.24351
  Beta virt. eigenvalues --   -0.19708  -0.17070  -0.16766  -0.11702  -0.10860
  Beta virt. eigenvalues --   -0.10634  -0.08127  -0.07354  -0.06754  -0.05887

 Mulliken charges and spin densities:
               1          2
     1  C    0.696461   0.280271
     2  C    0.879621   0.030090
     3  C    0.255005   0.062972
     4  C   -0.038064   0.920945
     5  C   -0.210621   0.720712
     6  N   -0.582402  -0.014991
 Sum of Mulliken charges =   1.00000   2.00000

 Dipole moment (field-independent basis, Debye):
    X=              1.1353    Y=              1.2234    Z=             -0.0073  Tot=              1.6690
 Quadrupole moment (field-independent basis, Debye-Ang):
   XX=            -23.6093   YY=            -28.0102   ZZ=            -29.4564
   XY=              0.9445   XZ=              0.0767   YZ=              0.0215

  Exact polarizability:  91.905  -4.288  61.940  -0.044   0.083  33.443
 Approx polarizability: 167.697  -5.565 114.517  -0.107   0.128  48.577

                      1                      2                      3
                      A                      A                      A
 Frequencies --    121.3130               170.1634               222.4553
 Red. masses --     12.1502                12.8245                12.7201
 Frc consts  --      0.1054                 0.2188                 0.3709
 IR Inten    --      4.3609                 0.7115                 6.5278

                      4                      5                      6
                      A                      A                      A
 Frequencies --    318.9535               431.1731               501.7504
 Red. masses --     12.0352                12.1062                12.3457
 Frc consts  --      0.7214                 1.3261                 1.8312
 IR Inten    --      8.2917                83.2848                 1.3089

                      7                      8                      9
                      A                      A                      A
 Frequencies --    524.6321               897.1314               975.6652
 Red. masses --     12.3903                12.2275                12.0253
 Frc consts  --      2.0093                 5.7983                 6.7445
 IR Inten    --     56.1795                12.9107               114.5169

                     10                     11                     12
                      A                      A                      A
 Frequencies --   1515.6437              1787.0298              2092.0795
 Red. masses --     12.0002                12.0558                13.0515
 Frc consts  --     16.2417                22.6835                33.6563
 IR Inten    --     54.6876                11.2679              1324.2384

 - Thermochemistry -
 -------------------
 Temperature   298.150 Kelvin.  Pressure   1.00000 Atm.
 Atom     1 has atomic number  6 and mass  12.00000

 Molecular mass:    74.00307 amu.
 Principal axes and moments of inertia in atomic units:
                           1         2         3
     Eigenvalues --   141.58708 647.74572 789.25545
           X            1.00000  -0.00000  -0.00000
           Y            0.00000   1.00000  -0.00000
           Z            0.00000   0.00000   1.00000
 This molecule is an asymmetric top.
 Rotational symmetry number  1.
 Rotational temperatures (Kelvin)      0.61174     0.13372     0.10974
 Rotational constants (GHZ):          12.74651     2.78619     2.28664
 Zero-point vibrational energy      57169.5 (Joules/Mol)
                                   13.66383 (Kcal/Mol)
 Warning -- explicit consideration of   7 degrees of freedom as
           vibrations may cause significant error
 Vibrational temperatures:    174.54   244.83   320.06   458.90   620.36
          (Kelvin)            721.91   754.83  1290.77  1403.76  2180.67
                             2571.13  3010.03

 Zero-point correction=                           0.021775 (Hartree/Particle)
 Thermal correction to Energy=                    0.027645
 Thermal correction to Enthalpy=                  0.028590
 Thermal correction to Gibbs Free Energy=        -0.008435
 Sum of electronic and zero-point Energies=           -244.599196
 Sum of electronic and thermal Energies=              -244.593326
 Sum of electronic and thermal Enthalpies=            -244.592381
 Sum of electronic and thermal Free Energies=         -244.629406

                     E (Thermal)             CV                S
                      KCal/Mol        Cal/Mol-Kelvin    Cal/Mol-Kelvin
 Total                   17.348             18.075             77.924
 Electronic               0.000              0.000              2.183
 Translational            0.889              2.981             38.821
 Rotational               0.889              2.981             25.785
 Vibrational             15.570             12.113             11.135
 Vibration     1          0.609              1.931              3.079
 Vibration     2          0.625              1.879              2.434
 Vibration     3          0.648              1.807              1.939
 Vibration     4          0.705              1.637              1.315
 Vibration     5          0.792              1.402              0.855
 Vibration     6          0.857              1.246              0.654
 Vibration     7          0.880              1.195              0.599

 Normal termination of Gaussian 09 at Tue Aug 16 18:18:19 2016.
