 Gaussian 09, Revision E.01,
 Gaussian 09:  EM64L-G09RevE.01 30-Nov-2015

 ---------------------------------------------
 #p b3lyp/6-311++G(3df,2p) freq symmetry=Loose
 ---------------------------------------------

 ---------
 b3lyp opt
 ---------
 Symbolic Z-matrix:
 Charge =  0 Multiplicity = 2

                         Standard orientation:
 ---------------------------------------------------------------------
 Center     Atomic      Atomic             Coordinates (Angstroms)
 Number     Number       Type             X           Y           Z
 ---------------------------------------------------------------------
      1          6           0        0.000000    0.420912   -0.000000
      2          6           0       -0.004967    2.987171   -0.000000
      3          6           0        0.688889   -2.089308    0.000000
      4          6           0       -0.684059   -2.090656    0.000000
      5          6           0       -0.002468    1.701770   -0.000000
      6          7           0        0.002232   -0.797048    0.000000
 ---------------------------------------------------------------------

 SCF Done:  E(UB3LYP) =  -244.937270584     A.U. after   18 cycles

 The electronic state is 2-A".
 Alpha  occ. eigenvalues --  -14.49765 -10.34608 -10.28513 -10.28448 -10.27454
 Alpha  occ. eigenvalues --  -10.24410  -1.10918  -0.92794  -0.84239  -0.72410
 Alpha  occ. eigenvalues --   -0.59306  -0.53890  -0.53501  -0.41228  -0.40022
 Alpha  occ. eigenvalues --   -0.34189  -0.32367  -0.31928  -0.30015
 Alpha virt. eigenvalues --   -0.16474  -0.12129  -0.06290  -0.00814   0.02229
 Alpha virt. eigenvalues --    0.02323   0.02770   0.03213   0.04304   0.06635
 Alpha virt. eigenvalues --    0.06800   0.07318   0.07539   0.07995   0.10313

  Beta  occ. eigenvalues --  -14.49749 -10.34397 -10.28133 -10.28072 -10.26962
  Beta  occ. eigenvalues --  -10.24343  -1.10299  -0.91739  -0.83332  -0.71452
  Beta  occ. eigenvalues --   -0.58983  -0.52586  -0.52204  -0.40801  -0.37206
  Beta  occ. eigenvalues --   -0.33275  -0.31729  -0.31439
  Beta virt. eigenvalues --   -0.21880  -0.16013  -0.09212  -0.03526  -0.00759
  Beta virt. eigenvalues --    0.02421   0.02502   0.02959   0.03346   0.04488
  Beta virt. eigenvalues --    0.06673   0.07220   0.07392   0.07636   0.09184

 Mulliken charges and spin densities:
               1          2
     1  C    0.113503   0.116916
     2  C   -0.657869   0.276189
     3  C   -0.022106   0.269403
     4  C   -0.021899   0.269721
     5  C    1.397556   0.084992
     6  N   -0.809185  -0.017221
 Sum of Mulliken charges =  -0.00000   1.00000

 Dipole moment (field-independent basis, Debye):
    X=              0.0038    Y=             -0.6870    Z=              0.0000  Tot=              0.6870
 Quadrupole moment (field-independent basis, Debye-Ang):
   XX=            -37.3563   YY=            -47.5103   ZZ=            -32.6806
   XY=              0.0198   XZ=              0.0000   YZ=              0.0000

  Exact polarizability:  48.378  -0.186 161.645  -0.000   0.000  42.020
 Approx polarizability:  74.176  -0.616 419.402  -0.000  -0.000  60.352

                      1                      2                      3
                     A'                     A"                     A'
 Frequencies --    102.4978               132.8633               225.0709
 Red. masses --     12.3661                12.1433                12.5701
 Frc consts  --      0.0765                 0.1263                 0.3752
 IR Inten    --     12.1542                14.3298                 0.0848

                      4                      5                      6
                     A"                     A'                     A"
 Frequencies --    301.9594               443.4108               488.9106
 Red. masses --     12.6632                12.0394                12.5900
 Frc consts  --      0.6803                 1.3947                 1.7731
 IR Inten    --      0.0660                 0.0080                 0.1185

                      7                      8                      9
                     A'                     A'                     A'
 Frequencies --    557.5421               573.4269              1007.3734
 Red. masses --     12.4094                12.0319                12.8791
 Frc consts  --      2.2728                 2.3310                 7.7005
 IR Inten    --      1.3306                 6.0147                36.2199

                     10                     11                     12
                     A'                     A'                     A'
 Frequencies --   1364.7662              1804.3819              2116.3568
 Red. masses --     12.0265                12.4788                12.0544
 Frc consts  --     13.1980                23.9375                31.8107
 IR Inten    --     23.2099                24.2178              1012.1945

 - Thermochemistry -
 -------------------
 Temperature   298.150 Kelvin.  Pressure   1.00000 Atm.
 Atom     1 has atomic number  6 and mass  12.00000

 Molecular mass:    74.00307 amu.
 Principal axes and moments of inertia in atomic units:
                           1         2         3
     Eigenvalues --    40.38861 920.21198 960.60059
           X           -0.00148   1.00000   0.00000
           Y            1.00000   0.00148   0.00000
           Z           -0.00000  -0.00000   1.00000
 This molecule is an asymmetric top.
 Rotational symmetry number  1.
 Rotational temperatures (Kelvin)      2.14451     0.09412     0.09017
 Rotational constants (GHZ):          44.68441     1.96122     1.87876
 Zero-point vibrational energy      54541.1 (Joules/Mol)
                                   13.03564 (Kcal/Mol)
 Warning -- explicit consideration of   8 degrees of freedom as
           vibrations may cause significant error
 Vibrational temperatures:    147.47   191.16   323.83   434.45   637.97
          (Kelvin)            703.43   802.18   825.03  1449.38  1963.59
                             2596.10  3044.96

 Zero-point correction=                           0.020774 (Hartree/Particle)
 Thermal correction to Energy=                    0.026858
 Thermal correction to Enthalpy=                  0.027802
 Thermal correction to Gibbs Free Energy=        -0.009049
 Sum of electronic and zero-point Energies=           -244.916497
 Sum of electronic and thermal Energies=              -244.910413
 Sum of electronic and thermal Enthalpies=            -244.909468
 Sum of electronic and thermal Free Energies=         -244.946319

                     E (Thermal)             CV                S
                      KCal/Mol        Cal/Mol-Kelvin    Cal/Mol-Kelvin
 Total                   16.854             18.685             77.559
 Electronic               0.000              0.000              1.377
 Translational            0.889              2.981             38.821
 Rotational               0.889              2.981             25.082
 Vibrational             15.076             12.724             12.279
 Vibration     1          0.605              1.947              3.406
 Vibration     2          0.613              1.921              2.904
 Vibration     3          0.650              1.803              1.918
 Vibration     4          0.694              1.670              1.406
 Vibration     5          0.803              1.375              0.816
 Vibration     6          0.845              1.275              0.686
 Vibration     7          0.913              1.123              0.529
 Vibration     8          0.930              1.089              0.498

 Optimization completed.
    -- Stationary point found.
 Normal termination of Gaussian 09 at Tue Aug 16 18:39:58 2016.
