 Gaussian 09, Revision E.01,
 Gaussian 09:  EM64L-G09RevE.01 30-Nov-2015

 ---------------------------------------------
 #p b3lyp/6-311++G(3df,2p) freq symmetry=Loose
 ---------------------------------------------

 ---------
 b3lyp opt
 ---------
 Symbolic Z-matrix:
 Charge =  0 Multiplicity = 4

                         Standard orientation:
 ---------------------------------------------------------------------
 Center     Atomic      Atomic             Coordinates (Angstroms)
 Number     Number       Type             X           Y           Z
 ---------------------------------------------------------------------
      1          6           0        0.000000    1.055568    0.721023
      2          6           0       -0.000000   -1.055568    0.721023
      3          6           0       -0.000000   -0.702633   -0.673879
      4          6           0       -0.000000    0.000000   -1.890941
      5          6           0        0.000000    0.702633   -0.673879
      6          7           0        0.000000   -0.000000    1.539987
 ---------------------------------------------------------------------

 SCF Done:  E(UB3LYP) =  -244.935330534     A.U. after   16 cycles

 The electronic state is 4-B1.
 Alpha  occ. eigenvalues --  -14.38642 -10.31284 -10.31280 -10.28708 -10.28654
 Alpha  occ. eigenvalues --  -10.27497  -1.06235  -0.95974  -0.77343  -0.72040
 Alpha  occ. eigenvalues --   -0.61128  -0.50752  -0.50652  -0.46118  -0.40381
 Alpha  occ. eigenvalues --   -0.38550  -0.32444  -0.31521  -0.30910  -0.26958
 Alpha virt. eigenvalues --   -0.10475  -0.04057   0.00270   0.00949   0.01067
 Alpha virt. eigenvalues --    0.03445   0.04308   0.04917   0.05587   0.05983
 Alpha virt. eigenvalues --    0.07171   0.08281   0.08782   0.10180   0.10767

  Beta  occ. eigenvalues --  -14.38646 -10.29139 -10.29138 -10.27922 -10.27871
  Beta  occ. eigenvalues --  -10.27446  -1.04340  -0.95267  -0.72065  -0.70380
  Beta  occ. eigenvalues --   -0.58336  -0.47369  -0.45246  -0.44798  -0.38575
  Beta  occ. eigenvalues --   -0.37628  -0.26632
  Beta virt. eigenvalues --   -0.19310  -0.16142  -0.14325  -0.09131   0.00694
  Beta virt. eigenvalues --    0.00942   0.02505   0.03061   0.03710   0.05727
  Beta virt. eigenvalues --    0.05855   0.06432   0.07380   0.07830   0.08842

 Mulliken charges and spin densities:
               1          2
     1  C    0.098552   1.347638
     2  C    0.098552   1.347638
     3  C    0.309289   0.296046
     4  C   -0.131072  -0.055708
     5  C    0.309289   0.296046
     6  N   -0.684610  -0.231658
 Sum of Mulliken charges =  -0.00000   3.00000

 Dipole moment (field-independent basis, Debye):
    X=              0.0000    Y=              0.0000    Z=              0.3993  Tot=              0.3993
 Quadrupole moment (field-independent basis, Debye-Ang):
   XX=            -32.0874   YY=            -33.2551   ZZ=            -43.7941
   XY=             -0.0000   XZ=             -0.0000   YZ=             -0.0000

  Exact polarizability:  35.123   0.000  62.263   0.000  -0.000  90.484
 Approx polarizability:  55.071   0.000 127.777  -0.000  -0.000 169.930

                      1                      2                      3
                     B1                     B2                     A2
 Frequencies --    222.3087               428.4204               636.6596
 Red. masses --     12.2899                12.1098                12.0000
 Frc consts  --      0.3579                 1.3096                 2.8658
 IR Inten    --     20.8529                 4.2227                 0.0000

                      4                      5                      6
                     B1                     A1                     B2
 Frequencies --    638.3486               774.1919               807.8577
 Red. masses --     12.5608                12.2729                12.0917
 Frc consts  --      3.0157                 4.3340                 4.6495
 IR Inten    --      4.7080                34.2844                12.2606

                      7                      8                      9
                     A1                     B2                     A1
 Frequencies --    886.1905               943.4937              1111.7018
 Red. masses --     12.4750                12.7930                12.1226
 Frc consts  --      5.7723                 6.7097                 8.8272
 IR Inten    --      3.4750                 7.4065                57.7837

                     10                     11                     12
                     B2                     A1                     A1
 Frequencies --   1192.7734              1258.6844              1518.6524
 Red. masses --     12.0354                12.5727                12.0000
 Frc consts  --     10.0885                11.7358                16.3061
 IR Inten    --     59.7987               157.6818                 6.9417

 - Thermochemistry -
 -------------------
 Temperature   298.150 Kelvin.  Pressure   1.00000 Atm.
 Atom     1 has atomic number  6 and mass  12.00000

 Molecular mass:    74.00307 amu.
 Principal axes and moments of inertia in atomic units:
                           1         2         3
     Eigenvalues --   137.80731 355.29504 493.10235
           X            0.00000  -0.00000   1.00000
           Y            0.00000   1.00000   0.00000
           Z            1.00000  -0.00000  -0.00000
 This molecule is an asymmetric top.
 Rotational symmetry number  2.
 Rotational temperatures (Kelvin)      0.62851     0.24378     0.17565
 Rotational constants (GHZ):          13.09612     5.07956     3.65997
 Zero-point vibrational energy      62321.2 (Joules/Mol)
                                   14.89511 (Kcal/Mol)
 Warning -- explicit consideration of   2 degrees of freedom as
           vibrations may cause significant error
 Vibrational temperatures:    319.85   616.40   916.01   918.44  1113.89
          (Kelvin)           1162.33  1275.03  1357.48  1599.49  1716.13
                             1810.96  2185.00

 Zero-point correction=                           0.023737 (Hartree/Particle)
 Thermal correction to Energy=                    0.027984
 Thermal correction to Enthalpy=                  0.028928
 Thermal correction to Gibbs Free Energy=        -0.004006
 Sum of electronic and zero-point Energies=           -244.911594
 Sum of electronic and thermal Energies=              -244.907347
 Sum of electronic and thermal Enthalpies=            -244.906403
 Sum of electronic and thermal Free Energies=         -244.939337

                     E (Thermal)             CV                S
                      KCal/Mol        Cal/Mol-Kelvin    Cal/Mol-Kelvin
 Total                   17.560             14.098             69.315
 Electronic               0.000              0.000              2.755
 Translational            0.889              2.981             38.821
 Rotational               0.889              2.981             23.316
 Vibrational             15.782              8.136              4.424
 Vibration     1          0.648              1.807              1.940
 Vibration     2          0.790              1.408              0.864

 Optimization completed.
    -- Stationary point found.
 Normal termination of Gaussian 09 at Tue Aug 16 18:25:13 2016.
