 Gaussian 09, Revision E.01,
 Gaussian 09:  EM64L-G09RevE.01 30-Nov-2015

 ---------------------------------------------
 #p b3lyp/6-311++G(3df,2p) freq symmetry=Loose
 ---------------------------------------------

 ---------
 b3lyp opt
 ---------
 Symbolic Z-matrix:
 Charge =  1 Multiplicity = 3

                         Standard orientation:
 ---------------------------------------------------------------------
 Center     Atomic      Atomic             Coordinates (Angstroms)
 Number     Number       Type             X           Y           Z
 ---------------------------------------------------------------------
      1          7           0        1.048961    0.563051    0.172679
      2          6           0        0.110967   -0.496974    0.831121
      3          6           0       -0.173100    1.029225   -0.333619
      4          6           0        0.708298   -0.887180   -0.400788
      5          6           0       -0.651082   -0.344168   -0.776442
      6          6           0       -1.218871    0.042204    0.478270
 ---------------------------------------------------------------------

 SCF Done:  E(UB3LYP) =  -244.469686140     A.U. after   20 cycles

 The electronic state is 3-A.
 Alpha  occ. eigenvalues --  -14.69099 -10.60013 -10.59366 -10.58827 -10.58062
 Alpha  occ. eigenvalues --  -10.57721  -1.42009  -1.15116  -1.05685  -0.96156
 Alpha  occ. eigenvalues --   -0.81519  -0.77811  -0.73494  -0.71440  -0.67899
 Alpha  occ. eigenvalues --   -0.65117  -0.60765  -0.58478  -0.53664
 Alpha virt. eigenvalues --   -0.40849  -0.38543  -0.27602  -0.24719  -0.19400
 Alpha virt. eigenvalues --   -0.13604  -0.13025  -0.11950  -0.09856  -0.09128
 Alpha virt. eigenvalues --   -0.08774  -0.07339  -0.07058  -0.06863  -0.06536

  Beta  occ. eigenvalues --  -14.68926 -10.59852 -10.58025 -10.57828 -10.57457
  Beta  occ. eigenvalues --  -10.56660  -1.40986  -1.14266  -1.03655  -0.95022
  Beta  occ. eigenvalues --   -0.80267  -0.76171  -0.69436  -0.67552  -0.67156
  Beta  occ. eigenvalues --   -0.62359  -0.57670
  Beta virt. eigenvalues --   -0.44948  -0.40764  -0.38077  -0.36822  -0.25936
  Beta virt. eigenvalues --   -0.23508  -0.18105  -0.13102  -0.12621  -0.10524
  Beta virt. eigenvalues --   -0.08869  -0.08567  -0.08336  -0.06873  -0.06859

 Mulliken charges and spin densities:
               1          2
     1  N   -0.431884  -0.027421
     2  C    0.670501   0.084067
     3  C    0.186283   0.761709
     4  C   -0.023894   0.697117
     5  C    0.669614   0.017015
     6  C   -0.070619   0.467514
 Sum of Mulliken charges =   1.00000   2.00000

 Dipole moment (field-independent basis, Debye):
    X=             -0.8559    Y=             -0.9432    Z=             -0.3727  Tot=              1.3271
 Quadrupole moment (field-independent basis, Debye-Ang):
   XX=            -28.6116   YY=            -27.0339   ZZ=            -27.0439
   XY=             -0.7290   XZ=             -0.0046   YZ=             -0.7443

  Exact polarizability:  53.854  -4.357  44.814  -3.496   0.627  41.781
 Approx polarizability: 122.152 -13.864 100.959  -4.433  -0.550 104.707

                      1                      2                      3
                      A                      A                      A
 Frequencies --    334.3519               453.4956               514.9694
 Red. masses --     12.6004                12.1694                12.0573
 Frc consts  --      0.8299                 1.4746                 1.8839
 IR Inten    --      7.5990                 7.9159                 7.8804

                      4                      5                      6
                      A                      A                      A
 Frequencies --    555.4961               684.1196               739.4994
 Red. masses --     12.5621                12.0672                12.1302
 Frc consts  --      2.2839                 3.3275                 3.9084
 IR Inten    --      4.6397                19.0458                13.4703

                      7                      8                      9
                      A                      A                      A
 Frequencies --    780.2600               879.1918               924.1525
 Red. masses --     12.6685                12.0939                12.0101
 Frc consts  --      4.5442                 5.5079                 6.0434
 IR Inten    --      7.5417                 0.7014                 3.6163

                     10                     11                     12
                      A                      A                      A
 Frequencies --   1058.0844              1187.0354              1231.4839
 Red. masses --     12.8047                12.0090                12.1356
 Frc consts  --      8.4462                 9.9697                10.8435
 IR Inten    --     14.9900                 5.2182                 1.9808

 - Thermochemistry -
 -------------------
 Temperature   298.150 Kelvin.  Pressure   1.00000 Atm.
 Atom     1 has atomic number  7 and mass  14.00307

 Molecular mass:    74.00307 amu.
 Principal axes and moments of inertia in atomic units:
                           1         2         3
     Eigenvalues --   189.09427 238.54427 270.87499
           X            1.00000  -0.00013  -0.00002
           Y            0.00013   1.00000  -0.00003
           Z            0.00002   0.00003   1.00000
 This molecule is an asymmetric top.
 Rotational symmetry number  1.
 Rotational temperatures (Kelvin)      0.45805     0.36309     0.31976
 Rotational constants (GHZ):           9.54413     7.56564     6.66264
 Zero-point vibrational energy      55878.4 (Joules/Mol)
                                   13.35526 (Kcal/Mol)
 Warning -- explicit consideration of   4 degrees of freedom as
           vibrations may cause significant error
 Vibrational temperatures:    481.06   652.48   740.93   799.23   984.29
          (Kelvin)           1063.97  1122.62  1264.96  1329.65  1522.35
                             1707.88  1771.83

 Zero-point correction=                           0.021283 (Hartree/Particle)
 Thermal correction to Energy=                    0.025626
 Thermal correction to Enthalpy=                  0.026570
 Thermal correction to Gibbs Free Energy=        -0.006425
 Sum of electronic and zero-point Energies=           -244.448403
 Sum of electronic and thermal Energies=              -244.444061
 Sum of electronic and thermal Enthalpies=            -244.443116
 Sum of electronic and thermal Free Energies=         -244.476112

                     E (Thermal)             CV                S
                      KCal/Mol        Cal/Mol-Kelvin    Cal/Mol-Kelvin
 Total                   16.080             15.279             69.444
 Electronic               0.000              0.000              2.183
 Translational            0.889              2.981             38.821
 Rotational               0.889              2.981             24.017
 Vibrational             14.303              9.317              4.423
 Vibration     1          0.716              1.607              1.239
 Vibration     2          0.812              1.353              0.785
 Vibration     3          0.870              1.217              0.622
 Vibration     4          0.911              1.128              0.533

 Normal termination of Gaussian 09 at Tue Aug 16 18:53:06 2016.
