 Gaussian 09, Revision E.01,
 Gaussian 09:  EM64L-G09RevE.01 30-Nov-2015

 ---------------------------------------------
 #p b3lyp/6-311++G(3df,2p) freq symmetry=Loose
 ---------------------------------------------

 ---------
 b3lyp opt
 ---------
 Symbolic Z-matrix:
 Charge =  1 Multiplicity = 1

                         Standard orientation:
 ---------------------------------------------------------------------
 Center     Atomic      Atomic             Coordinates (Angstroms)
 Number     Number       Type             X           Y           Z
 ---------------------------------------------------------------------
      1          6           0        0.000000    0.421046    0.000000
      2          6           0       -0.001752    2.992154    0.000000
      3          6           0        0.734757   -2.044157   -0.000000
      4          6           0       -0.733683   -2.043890   -0.000000
      5          6           0       -0.000833    1.666257    0.000000
      6          7           0        0.001296   -0.849779   -0.000000
 ---------------------------------------------------------------------

 SCF Done:  E(RB3LYP) =  -244.566302297     A.U. after   14 cycles

 The electronic state is 1-A'.
 Alpha  occ. eigenvalues --  -14.72983 -10.59076 -10.55283 -10.53063 -10.53028
 Alpha  occ. eigenvalues --  -10.48438  -1.35046  -1.14861  -1.07067  -0.96097
 Alpha  occ. eigenvalues --   -0.84529  -0.75818  -0.72084  -0.63836  -0.61541
 Alpha  occ. eigenvalues --   -0.57080  -0.53806  -0.52886
 Alpha virt. eigenvalues --   -0.44393  -0.40175  -0.32577  -0.27923  -0.19134
 Alpha virt. eigenvalues --   -0.17724  -0.14213  -0.13583  -0.12397  -0.10682
 Alpha virt. eigenvalues --   -0.10636  -0.06858  -0.06343  -0.06180  -0.05550

 Mulliken charges:
               1
     1  C   -0.094395
     2  C   -0.231252
     3  C    0.143264
     4  C    0.143799
     5  C    1.639801
     6  N   -0.601216
 Sum of Mulliken charges =   1.00000

 Dipole moment (field-independent basis, Debye):
    X=              0.0006    Y=              1.0090    Z=              0.0000  Tot=              1.0090
 Quadrupole moment (field-independent basis, Debye-Ang):
   XX=            -32.8154   YY=            -18.2327   ZZ=            -28.3580
   XY=             -0.0061   XZ=              0.0000   YZ=             -0.0000

  Exact polarizability:  41.085  -0.074 140.096  -0.000  -0.000  34.742
 Approx polarizability:  64.992  -0.298 414.945  -0.000   0.000  54.583

                      1                      2                      3
                     A"                     A'                     A'
 Frequencies --    103.0330               104.4130               232.5608
 Red. masses --     12.0630                12.1516                12.4953
 Frc consts  --      0.0754                 0.0781                 0.3982
 IR Inten    --      7.0998                 4.6532                 0.2703

                      4                      5                      6
                     A"                     A'                     A"
 Frequencies --    254.7400               532.7077               583.9467
 Red. masses --     12.6784                12.1418                12.6521
 Frc consts  --      0.4847                 2.0301                 2.5419
 IR Inten    --      0.0211                 0.3342                 0.0193

                      7                      8                      9
                     A'                     A'                     A'
 Frequencies --    635.2805               748.2830               966.7502
 Red. masses --     12.0029                12.5885                12.4475
 Frc consts  --      2.8541                 4.1530                 6.8543
 IR Inten    --      3.0346                 8.3046               146.9274

                     10                     11                     12
                     A'                     A'                     A'
 Frequencies --   1229.7984              1615.3437              2196.2143
 Red. masses --     12.3723                12.6093                12.0165
 Frc consts  --     11.0247                19.3852                34.1489
 IR Inten    --    345.8573                 2.4192              1642.9321

 - Thermochemistry -
 -------------------
 Temperature   298.150 Kelvin.  Pressure   1.00000 Atm.
 Atom     1 has atomic number  6 and mass  12.00000

 Molecular mass:    74.00307 amu.
 Principal axes and moments of inertia in atomic units:
                           1         2         3
     Eigenvalues --    46.20211 904.42541 950.62752
           X           -0.00051   1.00000   0.00000
           Y            1.00000   0.00051  -0.00000
           Z            0.00000  -0.00000   1.00000
 This molecule is an asymmetric top.
 Rotational symmetry number  1.
 Rotational temperatures (Kelvin)      1.87467     0.09577     0.09111
 Rotational constants (GHZ):          39.06188     1.99546     1.89847
 Zero-point vibrational energy      55046.6 (Joules/Mol)
                                   13.15645 (Kcal/Mol)
 Warning -- explicit consideration of   6 degrees of freedom as
           vibrations may cause significant error
 Vibrational temperatures:    148.24   150.23   334.60   366.51   766.45
          (Kelvin)            840.17   914.03  1076.61  1390.94  1769.40
                             2324.12  3159.86

 Zero-point correction=                           0.020966 (Hartree/Particle)
 Thermal correction to Energy=                    0.026911
 Thermal correction to Enthalpy=                  0.027856
 Thermal correction to Gibbs Free Energy=        -0.008344
 Sum of electronic and zero-point Energies=           -244.545336
 Sum of electronic and thermal Energies=              -244.539391
 Sum of electronic and thermal Enthalpies=            -244.538447
 Sum of electronic and thermal Free Energies=         -244.574647

                     E (Thermal)             CV                S
                      KCal/Mol        Cal/Mol-Kelvin    Cal/Mol-Kelvin
 Total                   16.887             17.998             76.189
 Electronic               0.000              0.000              0.000
 Translational            0.889              2.981             38.821
 Rotational               0.889              2.981             25.188
 Vibrational             15.110             12.036             12.180
 Vibration     1          0.605              1.947              3.396
 Vibration     2          0.605              1.946              3.370
 Vibration     3          0.653              1.791              1.859
 Vibration     4          0.665              1.755              1.698
 Vibration     5          0.888              1.178              0.581
 Vibration     6          0.941              1.066              0.478

 Optimization completed.
    -- Stationary point found.
 Normal termination of Gaussian 09 at Tue Aug 16 18:20:40 2016.
