 Gaussian 09, Revision E.01,
 Gaussian 09:  EM64L-G09RevE.01 30-Nov-2015

 ---------------------------------------------
 #p b3lyp/6-311++G(3df,2p) freq symmetry=Loose
 ---------------------------------------------

 ---------
 b3lyp opt
 ---------
 Symbolic Z-matrix:
 Charge =  0 Multiplicity = 2

                         Standard orientation:
 ---------------------------------------------------------------------
 Center     Atomic      Atomic             Coordinates (Angstroms)
 Number     Number       Type             X           Y           Z
 ---------------------------------------------------------------------
      1          6           0       -0.000000   -1.293133   -0.774904
      2          6           0        0.000000    1.293133   -0.774904
      3          6           0       -0.000000   -0.000000   -1.103937
      4          6           0        0.000000   -0.996498    0.521024
      5          6           0        0.000000    0.996498    0.521024
      6          7           0        0.000000    0.000000    1.381455
 ---------------------------------------------------------------------

 SCF Done:  E(UB3LYP) =  -245.020402849     A.U. after   16 cycles

 The electronic state is 2-A1.
 Alpha  occ. eigenvalues --  -14.41490 -10.31932 -10.31932 -10.30493 -10.24508
 Alpha  occ. eigenvalues --  -10.24503  -1.07240  -0.91091  -0.84890  -0.67037
 Alpha  occ. eigenvalues --   -0.62556  -0.52460  -0.50317  -0.50165  -0.37236
 Alpha  occ. eigenvalues --   -0.36221  -0.33562  -0.33283  -0.26030
 Alpha virt. eigenvalues --   -0.12131  -0.07245  -0.07045  -0.04551   0.00345
 Alpha virt. eigenvalues --    0.03934   0.03990   0.04108   0.05916   0.06710
 Alpha virt. eigenvalues --    0.07313   0.07457   0.08366   0.09787   0.10995

  Beta  occ. eigenvalues --  -14.41289 -10.31302 -10.31301 -10.30220 -10.24017
  Beta  occ. eigenvalues --  -10.24012  -1.06980  -0.90901  -0.84390  -0.65626
  Beta  occ. eigenvalues --   -0.61498  -0.52198  -0.49702  -0.48491  -0.35843
  Beta  occ. eigenvalues --   -0.35542  -0.32716  -0.30240
  Beta virt. eigenvalues --   -0.16886  -0.07703  -0.06295  -0.05310  -0.03297
  Beta virt. eigenvalues --    0.00509   0.04176   0.04178   0.04231   0.06057
  Beta virt. eigenvalues --    0.07140   0.07663   0.07667   0.08390   0.10386

 Mulliken charges and spin densities:
               1          2
     1  C   -0.019694   0.150400
     2  C   -0.019694   0.150400
     3  C    0.319146   0.101213
     4  C    0.225082   0.314536
     5  C    0.225082   0.314536
     6  N   -0.729921  -0.031085
 Sum of Mulliken charges =  -0.00000   1.00000

 Dipole moment (field-independent basis, Debye):
    X=              0.0000    Y=              0.0000    Z=              0.4395  Tot=              0.4395
 Quadrupole moment (field-independent basis, Debye-Ang):
   XX=            -33.3135   YY=            -36.5222   ZZ=            -35.5857
   XY=             -0.0000   XZ=              0.0000   YZ=              0.0000

  Exact polarizability:  33.481  -0.000  83.907  -0.000  -0.000  62.979
 Approx polarizability:  50.552   0.000 204.870  -0.000  -0.000 146.811

                      1                      2                      3
                     B2                     B1                     A2
 Frequencies --    347.6667               451.7543               526.4674
 Red. masses --     12.0658                12.1530                12.0000
 Frc consts  --      0.8593                 1.4613                 1.9596
 IR Inten    --     81.6146                 5.1995                 0.0000

                      4                      5                      6
                     A1                     B1                     A1
 Frequencies --    538.5504               600.3744               724.0645
 Red. masses --     12.0632                12.5262                12.4756
 Frc consts  --      2.0614                 2.6602                 3.8536
 IR Inten    --     23.1274                 0.4585                 1.7718

                      7                      8                      9
                     B2                     A1                     A1
 Frequencies --    820.3439              1046.7170              1149.5394
 Red. masses --     12.8411                12.3792                12.3401
 Frc consts  --      5.0915                 7.9910                 9.6077
 IR Inten    --    164.0117                22.1498                 1.3218

                     10                     11                     12
                     B2                     A1                     B2
 Frequencies --   1241.4957              1672.4670              1698.9170
 Red. masses --     12.1427                12.1756                12.0360
 Frc consts  --     11.0270                20.0658                20.4681
 IR Inten    --     20.2839               226.5905               318.1761

 - Thermochemistry -
 -------------------
 Temperature   298.150 Kelvin.  Pressure   1.00000 Atm.
 Atom     1 has atomic number  6 and mass  12.00000

 Molecular mass:    74.00307 amu.
 Principal axes and moments of inertia in atomic units:
                           1         2         3
     Eigenvalues --   222.38617 228.42262 450.80879
           X            0.00000   0.00000   1.00000
           Y            1.00000   0.00000  -0.00000
           Z           -0.00000   1.00000   0.00000
 This molecule is an asymmetric top.
 Rotational symmetry number  2.
 Rotational temperatures (Kelvin)      0.38947     0.37918     0.19213
 Rotational constants (GHZ):           8.11535     7.90089     4.00334
 Zero-point vibrational energy      64708.1 (Joules/Mol)
                                   15.46562 (Kcal/Mol)
 Warning -- explicit consideration of   5 degrees of freedom as
           vibrations may cause significant error
 Vibrational temperatures:    500.21   649.97   757.47   774.85   863.80
          (Kelvin)           1041.77  1180.29  1505.99  1653.93  1786.23
                             2406.30  2444.36

 Zero-point correction=                           0.024646 (Hartree/Particle)
 Thermal correction to Energy=                    0.028913
 Thermal correction to Enthalpy=                  0.029857
 Thermal correction to Gibbs Free Energy=        -0.002303
 Sum of electronic and zero-point Energies=           -244.995757
 Sum of electronic and thermal Energies=              -244.991490
 Sum of electronic and thermal Enthalpies=            -244.990546
 Sum of electronic and thermal Free Energies=         -245.022705

                     E (Thermal)             CV                S
                      KCal/Mol        Cal/Mol-Kelvin    Cal/Mol-Kelvin
 Total                   18.143             14.513             67.686
 Electronic               0.000              0.000              1.377
 Translational            0.889              2.981             38.821
 Rotational               0.889              2.981             23.264
 Vibrational             16.366              8.551              4.224
 Vibration     1          0.725              1.580              1.177
 Vibration     2          0.810              1.357              0.790
 Vibration     3          0.881              1.191              0.595
 Vibration     4          0.894              1.165              0.568
 Vibration     5          0.959              1.031              0.449

 Optimization completed.
    -- Stationary point found.
 Normal termination of Gaussian 09 at Tue Aug 16 18:17:28 2016.
