 Gaussian 09, Revision E.01,
 Gaussian 09:  EM64L-G09RevE.01 30-Nov-2015

 ---------------------------------------------
 #p b3lyp/6-311++G(3df,2p) freq symmetry=Loose
 ---------------------------------------------

 ---------
 b3lyp opt
 ---------
 Symbolic Z-matrix:
 Charge =  0 Multiplicity = 4

                         Standard orientation:
 ---------------------------------------------------------------------
 Center     Atomic      Atomic             Coordinates (Angstroms)
 Number     Number       Type             X           Y           Z
 ---------------------------------------------------------------------
      1          6           0       -1.377349    0.122620   -0.000000
      2          6           0        1.099027   -0.225300    0.887050
      3          6           0        2.133564   -0.009814    0.000000
      4          6           0       -0.000000    0.072373   -0.000000
      5          6           0        1.099027   -0.225300   -0.887050
      6          7           0       -2.532269    0.227503   -0.000000
 ---------------------------------------------------------------------

 SCF Done:  E(UB3LYP) =  -244.985773110     A.U. after   17 cycles

 The electronic state is 4-A".
 Alpha  occ. eigenvalues --  -14.36254 -10.30527 -10.29775 -10.29772 -10.29174
 Alpha  occ. eigenvalues --  -10.25250  -1.02155  -0.95402  -0.79098  -0.64765
 Alpha  occ. eigenvalues --   -0.63542  -0.49883  -0.49356  -0.41846  -0.41026
 Alpha  occ. eigenvalues --   -0.40104  -0.38168  -0.34862  -0.27444  -0.26397
 Alpha virt. eigenvalues --   -0.10546  -0.05783  -0.02596   0.00452   0.02486
 Alpha virt. eigenvalues --    0.03231   0.04563   0.05171   0.06300   0.06585
 Alpha virt. eigenvalues --    0.07385   0.08662   0.08944   0.09537   0.11685

  Beta  occ. eigenvalues --  -14.35635 -10.29262 -10.28744 -10.28740 -10.26948
  Beta  occ. eigenvalues --  -10.25475  -0.99630  -0.94354  -0.76380  -0.61274
  Beta  occ. eigenvalues --   -0.60370  -0.47247  -0.44440  -0.40365  -0.37785
  Beta  occ. eigenvalues --   -0.37415  -0.33901
  Beta virt. eigenvalues --   -0.19706  -0.15175  -0.13715  -0.08590  -0.01985
  Beta virt. eigenvalues --   -0.00973   0.01032   0.03187   0.03760   0.05181
  Beta virt. eigenvalues --    0.05826   0.06333   0.07158   0.07814   0.09004

 Mulliken charges and spin densities:
               1          2
     1  C    0.118736  -0.146564
     2  C   -0.200784   0.481515
     3  C    0.104350   1.222872
     4  C    1.097708   0.658013
     5  C   -0.200784   0.481515
     6  N   -0.919226   0.302649
 Sum of Mulliken charges =  -0.00000   3.00000

 Dipole moment (field-independent basis, Debye):
    X=              2.4547    Y=              0.2928    Z=              0.0000  Tot=              2.4721
 Quadrupole moment (field-independent basis, Debye-Ang):
   XX=            -40.9121   YY=            -33.1624   ZZ=            -34.5089
   XY=              1.3635   XZ=              0.0000   YZ=             -0.0000

  Exact polarizability:  93.662  -3.578  35.564   0.000  -0.000  53.559
 Approx polarizability: 168.654  -5.042  52.352  -0.000   0.000 107.157

                      1                      2                      3
                     A'                     A"                     A'
 Frequencies --    165.7894               198.6446               459.3106
 Red. masses --     12.4021                12.6090                12.2241
 Frc consts  --      0.2008                 0.2931                 1.5194
 IR Inten    --      4.5624                 6.3670                 3.9559

                      4                      5                      6
                     A'                     A"                     A'
 Frequencies --    516.5848               555.0863               616.4860
 Red. masses --     12.2164                12.0902                12.1442
 Frc consts  --      1.9208                 2.1949                 2.7194
 IR Inten    --     14.9449                 2.6462                 0.3341

                      7                      8                      9
                     A'                     A"                     A"
 Frequencies --    798.7505               934.5298              1184.8459
 Red. masses --     12.2760                12.0044                12.0000
 Frc consts  --      4.6146                 6.1770                 9.9256
 IR Inten    --     12.0096                20.8328                 0.0002

                     10                     11                     12
                     A'                     A'                     A'
 Frequencies --   1308.9022              1485.7682              2217.7879
 Red. masses --     12.0440                12.0893                12.6691
 Frc consts  --     12.1573                15.7237                36.7143
 IR Inten    --     15.9818                 3.8235                 0.0069

 - Thermochemistry -
 -------------------
 Temperature   298.150 Kelvin.  Pressure   1.00000 Atm.
 Atom     1 has atomic number  6 and mass  12.00000

 Molecular mass:    74.00307 amu.
 Principal axes and moments of inertia in atomic units:
                           1         2         3
     Eigenvalues --    70.39971 708.35457 772.83087
           X            0.99654   0.00000   0.08309
           Y           -0.08309   0.00000   0.99654
           Z           -0.00000   1.00000  -0.00000
 This molecule is an asymmetric top.
 Rotational symmetry number  1.
 Rotational temperatures (Kelvin)      1.23031     0.12227     0.11207
 Rotational constants (GHZ):          25.63563     2.54779     2.33523
 Zero-point vibrational energy      62459.9 (Joules/Mol)
                                   14.92828 (Kcal/Mol)
 Warning -- explicit consideration of   6 degrees of freedom as
           vibrations may cause significant error
 Vibrational temperatures:    238.53   285.80   660.84   743.25   798.64
          (Kelvin)            886.98  1149.22  1344.58  1704.73  1883.22
                             2137.69  3190.90

 Zero-point correction=                           0.023790 (Hartree/Particle)
 Thermal correction to Energy=                    0.028767
 Thermal correction to Enthalpy=                  0.029711
 Thermal correction to Gibbs Free Energy=        -0.005504
 Sum of electronic and zero-point Energies=           -244.961983
 Sum of electronic and thermal Energies=              -244.957006
 Sum of electronic and thermal Enthalpies=            -244.956062
 Sum of electronic and thermal Free Energies=         -244.991277

                     E (Thermal)             CV                S
                      KCal/Mol        Cal/Mol-Kelvin    Cal/Mol-Kelvin
 Total                   18.052             15.917             74.117
 Electronic               0.000              0.000              2.755
 Translational            0.889              2.981             38.821
 Rotational               0.889              2.981             25.158
 Vibrational             16.274              9.955              7.384
 Vibration     1          0.624              1.885              2.483
 Vibration     2          0.637              1.842              2.146
 Vibration     3          0.817              1.340              0.768
 Vibration     4          0.872              1.213              0.618
 Vibration     5          0.911              1.129              0.534
 Vibration     6          0.976              0.997              0.422

 Optimization completed.
    -- Stationary point found.
 Normal termination of Gaussian 09 at Tue Aug 16 18:39:09 2016.
