 Gaussian 09, Revision E.01,
 Gaussian 09:  EM64L-G09RevE.01 30-Nov-2015

 ---------------------------------------------
 #p b3lyp/6-311++G(3df,2p) freq symmetry=Loose
 ---------------------------------------------

 ---------
 b3lyp opt
 ---------
 Symbolic Z-matrix:
 Charge =  1 Multiplicity = 3

                         Standard orientation:
 ---------------------------------------------------------------------
 Center     Atomic      Atomic             Coordinates (Angstroms)
 Number     Number       Type             X           Y           Z
 ---------------------------------------------------------------------
      1          6           0       -0.650237   -0.344222   -0.775191
      2          6           0        0.111729   -0.493521    0.829877
      3          7           0        1.048257    0.563321    0.173930
      4          6           0        0.707991   -0.889675   -0.399744
      5          6           0       -0.172554    1.029099   -0.337120
      6          6           0       -1.219896    0.041111    0.479259
 ---------------------------------------------------------------------

 SCF Done:  E(UB3LYP) =  -244.469687919     A.U. after   20 cycles

 The electronic state is 3-A.
 Alpha  occ. eigenvalues --  -14.69093 -10.59996 -10.59350 -10.58833 -10.58069
 Alpha  occ. eigenvalues --  -10.57725  -1.42042  -1.15117  -1.05700  -0.96179
 Alpha  occ. eigenvalues --   -0.81512  -0.77801  -0.73490  -0.71402  -0.67951
 Alpha  occ. eigenvalues --   -0.65124  -0.60771  -0.58483  -0.53683
 Alpha virt. eigenvalues --   -0.40832  -0.38477  -0.27622  -0.24730  -0.19380
 Alpha virt. eigenvalues --   -0.13596  -0.13028  -0.11923  -0.09858  -0.09126
 Alpha virt. eigenvalues --   -0.08778  -0.07345  -0.07056  -0.06864  -0.06537

  Beta  occ. eigenvalues --  -14.68918 -10.59837 -10.58011 -10.57833 -10.57461
  Beta  occ. eigenvalues --  -10.56667  -1.41020  -1.14266  -1.03670  -0.95041
  Beta  occ. eigenvalues --   -0.80265  -0.76160  -0.69375  -0.67605  -0.67183
  Beta  occ. eigenvalues --   -0.62319  -0.57674
  Beta virt. eigenvalues --   -0.44979  -0.40762  -0.38077  -0.36779  -0.25923
  Beta virt. eigenvalues --   -0.23519  -0.18091  -0.13093  -0.12625  -0.10505
  Beta virt. eigenvalues --   -0.08898  -0.08569  -0.08330  -0.06868  -0.06851

 Mulliken charges and spin densities:
               1          2
     1  C    0.677087   0.015837
     2  C    0.684318   0.081740
     3  N   -0.432908  -0.026162
     4  C   -0.034164   0.697907
     5  C    0.186383   0.762437
     6  C   -0.080716   0.468240
 Sum of Mulliken charges =   1.00000   2.00000

 Dipole moment (field-independent basis, Debye):
    X=             -0.8583    Y=             -0.9424    Z=             -0.3728  Tot=              1.3281
 Quadrupole moment (field-independent basis, Debye-Ang):
   XX=            -28.6123   YY=            -27.0338   ZZ=            -27.0366
   XY=             -0.7252   XZ=              0.0025   YZ=             -0.7450

  Exact polarizability:  53.928  -4.403  44.847  -3.556   0.651  41.749
 Approx polarizability: 122.317 -14.004 100.998  -4.698  -0.359 104.416

                      1                      2                      3
                      A                      A                      A
 Frequencies --    330.6234               451.9270               515.8554
 Red. masses --     12.5958                12.1757                12.0572
 Frc consts  --      0.8112                 1.4651                 1.8904
 IR Inten    --      7.7130                 8.3263                 7.4314

                      4                      5                      6
                      A                      A                      A
 Frequencies --    560.7854               685.5544               741.4368
 Red. masses --     12.5588                12.0707                12.1422
 Frc consts  --      2.3270                 3.3425                 3.9327
 IR Inten    --      4.4310                18.8769                13.6175

                      7                      8                      9
                      A                      A                      A
 Frequencies --    780.8952               881.1398               926.6724
 Red. masses --     12.6539                12.0963                12.0096
 Frc consts  --      4.5463                 5.5334                 6.0762
 IR Inten    --      7.7906                 0.7529                 3.4626

                     10                     11                     12
                      A                      A                      A
 Frequencies --   1058.3348              1188.1285              1232.7218
 Red. masses --     12.8052                12.0082                12.1332
 Frc consts  --      8.4505                 9.9875                10.8631
 IR Inten    --     15.1072                 5.3556                 1.8413

 - Thermochemistry -
 -------------------
 Temperature   298.150 Kelvin.  Pressure   1.00000 Atm.
 Atom     1 has atomic number  6 and mass  12.00000

 Molecular mass:    74.00307 amu.
 Principal axes and moments of inertia in atomic units:
                           1         2         3
     Eigenvalues --   189.09469 238.46632 270.88679
           X            1.00000  -0.00013  -0.00002
           Y            0.00013   1.00000  -0.00003
           Z            0.00002   0.00003   1.00000
 This molecule is an asymmetric top.
 Rotational symmetry number  1.
 Rotational temperatures (Kelvin)      0.45804     0.36321     0.31974
 Rotational constants (GHZ):           9.54411     7.56812     6.66234
 Zero-point vibrational energy      55949.8 (Joules/Mol)
                                   13.37232 (Kcal/Mol)
 Warning -- explicit consideration of   4 degrees of freedom as
           vibrations may cause significant error
 Vibrational temperatures:    475.69   650.22   742.20   806.84   986.36
          (Kelvin)           1066.76  1123.53  1267.76  1333.27  1522.71
                             1709.45  1773.61

 Zero-point correction=                           0.021310 (Hartree/Particle)
 Thermal correction to Energy=                    0.025652
 Thermal correction to Enthalpy=                  0.026596
 Thermal correction to Gibbs Free Energy=        -0.006400
 Sum of electronic and zero-point Energies=           -244.448378
 Sum of electronic and thermal Energies=              -244.444036
 Sum of electronic and thermal Enthalpies=            -244.443092
 Sum of electronic and thermal Free Energies=         -244.476088

                     E (Thermal)             CV                S
                      KCal/Mol        Cal/Mol-Kelvin    Cal/Mol-Kelvin
 Total                   16.097             15.261             69.447
 Electronic               0.000              0.000              2.183
 Translational            0.889              2.981             38.821
 Rotational               0.889              2.981             24.017
 Vibrational             14.319              9.300              4.426
 Vibration     1          0.713              1.614              1.257
 Vibration     2          0.811              1.357              0.790
 Vibration     3          0.871              1.215              0.620
 Vibration     4          0.916              1.116              0.522

 Normal termination of Gaussian 09 at Tue Aug 16 18:25:41 2016.
