 Gaussian 09, Revision E.01,
 Gaussian 09:  EM64L-G09RevE.01 30-Nov-2015

 ---------------------------------------------
 #p b3lyp/6-311++G(3df,2p) freq symmetry=Loose
 ---------------------------------------------

 ---------
 b3lyp opt
 ---------
 Symbolic Z-matrix:
 Charge =  0 Multiplicity = 4

                         Standard orientation:
 ---------------------------------------------------------------------
 Center     Atomic      Atomic             Coordinates (Angstroms)
 Number     Number       Type             X           Y           Z
 ---------------------------------------------------------------------
      1          6           0        0.000000    0.000000    1.880522
      2          6           0        0.000000    0.000000    0.585344
      3          6           0        0.000000    0.000000   -0.729613
      4          6           0        0.000000    0.000000   -1.983934
      5          6           0        0.000000    0.000000   -3.343528
      6          7           0        0.000000    0.000000    3.078178
 ---------------------------------------------------------------------

 SCF Done:  E(UB3LYP) =  -245.012376377     A.U. after   17 cycles

 Unable to determine electronic state:  an orbital has unidentified symmetry.
 Alpha  occ. eigenvalues --  -14.40034 -10.31187 -10.27725 -10.27454 -10.26936
 Alpha  occ. eigenvalues --  -10.26718  -0.98026  -0.89320  -0.83371  -0.74831
 Alpha  occ. eigenvalues --   -0.67013  -0.47594  -0.46899  -0.44486  -0.41823
 Alpha  occ. eigenvalues --   -0.40879  -0.34566  -0.33592  -0.32282  -0.21352
 Alpha virt. eigenvalues --   -0.15110  -0.01300  -0.01156  -0.00121   0.02072
 Alpha virt. eigenvalues --    0.03530   0.03612   0.05231   0.06810   0.06819
 Alpha virt. eigenvalues --    0.07115   0.10310   0.10439   0.11584   0.12423

  Beta  occ. eigenvalues --  -14.38298 -10.29686 -10.27909 -10.27546 -10.26208
  Beta  occ. eigenvalues --  -10.25498  -0.95058  -0.86553  -0.79685  -0.71969
  Beta  occ. eigenvalues --   -0.65163  -0.43891  -0.42972  -0.41957  -0.37927
  Beta  occ. eigenvalues --   -0.36907  -0.31759
  Beta virt. eigenvalues --   -0.22320  -0.21215  -0.11171  -0.09500  -0.01095
  Beta virt. eigenvalues --    0.02208   0.02360   0.02861   0.04041   0.04523
  Beta virt. eigenvalues --    0.05523   0.07103   0.07160   0.07417   0.10772

 Mulliken charges and spin densities:
               1          2
     1  C   -0.263400  -0.548446
     2  C    0.849746   0.869197
     3  C   -0.463221   0.625972
     4  C    1.511600   0.318868
     5  C   -0.774780   0.846256
     6  N   -0.859945   0.888154
 Sum of Mulliken charges =  -0.00000   3.00000

 Dipole moment (field-independent basis, Debye):
    X=              0.0000    Y=              0.0000    Z=              0.8087  Tot=              0.8087
 Quadrupole moment (field-independent basis, Debye-Ang):
   XX=            -33.6089   YY=            -31.9659   ZZ=            -54.3839
   XY=              0.0000   XZ=              0.0000   YZ=              0.0000

  Exact polarizability:  39.093   0.000  38.540  -0.000   0.000 181.559
 Approx polarizability:  52.575  -0.000  54.144  -0.000  -0.000 401.183

                      1                      2                      3
                     ?A                     ?A                     ?A
 Frequencies --     61.1589                92.5700               194.6034
 Red. masses --     12.3731                12.3632                12.2311
 Frc consts  --      0.0273                 0.0624                 0.2729
 IR Inten    --      4.8793                17.6670                 1.8498

                      4                      5                      6
                     ?A                     ?A                     ?A
 Frequencies --    233.4507               342.9457               376.9878
 Red. masses --     12.0681                12.0778                12.2703
 Frc consts  --      0.3875                 0.8369                 1.0274
 IR Inten    --      0.0697                22.8719                 0.2780

                      7                      8                      9
                     ?A                     ?A                     SG
 Frequencies --    436.0325               554.2830               629.7970
 Red. masses --     12.1447                12.0492                12.4953
 Frc consts  --      1.3604                 2.1811                 2.9201
 IR Inten    --     10.6602                 0.0490                 7.0626

                     10                     11                     12
                     SG                     SG                     SG
 Frequencies --   1105.0034              1572.3662              1796.5561
 Red. masses --     12.2284                12.2738                12.4390
 Frc consts  --      8.7973                17.8787                23.6547
 IR Inten    --    106.1901               104.4507                42.7085

                     13
                     SG
 Frequencies --   2063.5761
 Red. masses --     12.0007
 Frc consts  --     30.1092
 IR Inten    --      9.1838

 - Thermochemistry -
 -------------------
 Temperature   298.150 Kelvin.  Pressure   1.00000 Atm.
 Atom     1 has atomic number  6 and mass  12.00000

 Molecular mass:    74.00307 amu.
 Principal axes and moments of inertia in atomic units:
                           1         2         3
     Eigenvalues --     0.000001310.579501310.57950
           X            0.00000  -0.00000   1.00000
           Y            0.00000   1.00000   0.00000
           Z            1.00000   0.00000   0.00000
 This molecule is a prolate symmetric top.
 Rotational symmetry number  1.
 Warning -- assumption of classical behavior for rotation
           may cause significant error
 Rotational temperature (Kelvin)      0.06609
 Rotational constant (GHZ):           1.377056
 Zero-point vibrational energy      56579.4 (Joules/Mol)
                                   13.52279 (Kcal/Mol)
 Warning -- explicit consideration of   8 degrees of freedom as
           vibrations may cause significant error
 Vibrational temperatures:     87.99   133.19   279.99   335.88   493.42
          (Kelvin)            542.40   627.35   797.49   906.14  1589.85
                             2262.28  2584.84  2969.02

 Zero-point correction=                           0.021550 (Hartree/Particle)
 Thermal correction to Energy=                    0.027889
 Thermal correction to Enthalpy=                  0.028833
 Thermal correction to Gibbs Free Energy=        -0.007487
 Sum of electronic and zero-point Energies=           -244.990826
 Sum of electronic and thermal Energies=              -244.984487
 Sum of electronic and thermal Enthalpies=            -244.983543
 Sum of electronic and thermal Free Energies=         -245.019864

                     E (Thermal)             CV                S
                      KCal/Mol        Cal/Mol-Kelvin    Cal/Mol-Kelvin
 Total                   17.501             19.501             76.443
 Electronic               0.000              0.000              2.755
 Translational            0.889              2.981             38.821
 Rotational               0.592              1.987             18.708
 Vibrational             16.019             14.533             16.160
 Vibration     1          0.597              1.973              4.419
 Vibration     2          0.602              1.954              3.605
 Vibration     3          0.635              1.847              2.184
 Vibration     4          0.654              1.790              1.852
 Vibration     5          0.722              1.590              1.198
 Vibration     6          0.748              1.519              1.051
 Vibration     7          0.796              1.392              0.839
 Vibration     8          0.910              1.130              0.535

 Optimization completed.
    -- Stationary point found.
 Normal termination of Gaussian 09 at Tue Aug 16 18:25:15 2016.
