 Gaussian 09, Revision E.01,
 Gaussian 09:  EM64L-G09RevE.01 30-Nov-2015

 ---------------------------------------------
 #p b3lyp/6-311++G(3df,2p) freq symmetry=Loose
 ---------------------------------------------

 ---------
 b3lyp opt
 ---------
 Symbolic Z-matrix:
 Charge =  1 Multiplicity = 3

                         Standard orientation:
 ---------------------------------------------------------------------
 Center     Atomic      Atomic             Coordinates (Angstroms)
 Number     Number       Type             X           Y           Z
 ---------------------------------------------------------------------
      1          6           0        0.000000    0.000000   -1.523034
      2          6           0       -0.000000    0.784981    1.002730
      3          6           0        0.000000    0.000000   -0.187738
      4          6           0       -0.000000   -0.784981    1.002730
      5          6           0        0.000000    0.000000   -2.748148
      6          7           0       -0.000000   -0.000000    2.102965
 ---------------------------------------------------------------------

 SCF Done:  E(UB3LYP) =  -244.611311231     A.U. after   18 cycles

 The electronic state is 3-B1.
 Alpha  occ. eigenvalues --  -14.66429 -10.57845 -10.57825 -10.54997 -10.53654
 Alpha  occ. eigenvalues --  -10.47431  -1.36927  -1.11194  -1.04615  -0.91653
 Alpha  occ. eigenvalues --   -0.86097  -0.75068  -0.74651  -0.67242  -0.65865
 Alpha  occ. eigenvalues --   -0.62307  -0.57693  -0.56657  -0.52354
 Alpha virt. eigenvalues --   -0.35237  -0.34650  -0.29389  -0.22876  -0.14972
 Alpha virt. eigenvalues --   -0.13583  -0.11724  -0.10748  -0.09927  -0.09166
 Alpha virt. eigenvalues --   -0.07221  -0.06650  -0.06118  -0.05083  -0.04201

  Beta  occ. eigenvalues --  -14.65608 -10.57987 -10.57966 -10.54337 -10.50585
  Beta  occ. eigenvalues --  -10.47509  -1.36040  -1.09734  -1.01695  -0.89820
  Beta  occ. eigenvalues --   -0.86040  -0.74290  -0.72599  -0.65776  -0.58217
  Beta  occ. eigenvalues --   -0.56612  -0.55911
  Beta virt. eigenvalues --   -0.42827  -0.40911  -0.35725  -0.33470  -0.24539
  Beta virt. eigenvalues --   -0.20764  -0.14770  -0.11453  -0.10893  -0.09974
  Beta virt. eigenvalues --   -0.09737  -0.08365  -0.06664  -0.06456  -0.05137

 Mulliken charges and spin densities:
               1          2
     1  C    0.131410  -0.131720
     2  C    0.140140  -0.096861
     3  C    0.428901   0.371372
     4  C    0.140140  -0.096861
     5  C    0.552857   1.581266
     6  N   -0.393448   0.372803
 Sum of Mulliken charges =   1.00000   2.00000

 Dipole moment (field-independent basis, Debye):
    X=              0.0000    Y=              0.0000    Z=             -2.6707  Tot=              2.6707
 Quadrupole moment (field-independent basis, Debye-Ang):
   XX=            -29.0960   YY=            -29.2145   ZZ=            -13.7616
   XY=             -0.0000   XZ=             -0.0000   YZ=              0.0000

  Exact polarizability:  28.460  -0.000  42.846   0.000   0.000  95.927
 Approx polarizability:  42.747   0.000  96.741  -0.000  -0.000 197.330

                      1                      2                      3
                     B2                     B1                     B1
 Frequencies --    168.3512               170.1451               426.4388
 Red. masses --     12.2064                12.4628                12.1178
 Frc consts  --      0.2038                 0.2126                 1.2983
 IR Inten    --      0.1118                 0.1334                 5.1156

                      4                      5                      6
                     B2                     B2                     B1
 Frequencies --    450.6578               530.2833               598.2953
 Red. masses --     12.3596                12.0221                12.3191
 Frc consts  --      1.4789                 1.9918                 2.5981
 IR Inten    --      1.8945                 0.7188                 8.9207

                      7                      8                      9
                     B2                     A1                     A1
 Frequencies --    687.7947               689.8371               969.4074
 Red. masses --     12.3435                12.4336                12.1212
 Frc consts  --      3.4404                 3.4861                 6.7113
 IR Inten    --     45.1305                 0.5651                 4.8116

                     10                     11                     12
                     A1                     A1                     A1
 Frequencies --   1421.3661              1539.9036              2082.1918
 Red. masses --     12.8509                12.0495                12.0094
 Frc consts  --     15.2966                16.8348                30.6770
 IR Inten    --      6.0680                10.3927               241.6035

 - Thermochemistry -
 -------------------
 Temperature   298.150 Kelvin.  Pressure   1.00000 Atm.
 Atom     1 has atomic number  6 and mass  12.00000

 Molecular mass:    74.00307 amu.
 Principal axes and moments of inertia in atomic units:
                           1         2         3
     Eigenvalues --    52.81139 731.87404 784.68542
           X            0.00000  -0.00000   1.00000
           Y            0.00000   1.00000   0.00000
           Z            1.00000  -0.00000  -0.00000
 This molecule is an asymmetric top.
 Rotational symmetry number  2.
 Rotational temperatures (Kelvin)      1.64006     0.11835     0.11038
 Rotational constants (GHZ):          34.17334     2.46592     2.29996
 Zero-point vibrational energy      58226.3 (Joules/Mol)
                                   13.91641 (Kcal/Mol)
 Warning -- explicit consideration of   6 degrees of freedom as
           vibrations may cause significant error
 Vibrational temperatures:    242.22   244.80   613.55   648.40   762.96
          (Kelvin)            860.81   989.58   992.52  1394.76  2045.03
                             2215.58  2995.81

 Zero-point correction=                           0.022177 (Hartree/Particle)
 Thermal correction to Energy=                    0.027429
 Thermal correction to Enthalpy=                  0.028374
 Thermal correction to Gibbs Free Energy=        -0.006268
 Sum of electronic and zero-point Energies=           -244.589134
 Sum of electronic and thermal Energies=              -244.583882
 Sum of electronic and thermal Enthalpies=            -244.582938
 Sum of electronic and thermal Free Energies=         -244.617580

                     E (Thermal)             CV                S
                      KCal/Mol        Cal/Mol-Kelvin    Cal/Mol-Kelvin
 Total                   17.212             16.999             72.910
 Electronic               0.000              0.000              2.183
 Translational            0.889              2.981             38.821
 Rotational               0.889              2.981             23.543
 Vibrational             15.435             11.037              8.363
 Vibration     1          0.625              1.881              2.454
 Vibration     2          0.625              1.879              2.434
 Vibration     3          0.788              1.413              0.870
 Vibration     4          0.809              1.359              0.794
 Vibration     5          0.885              1.183              0.587
 Vibration     6          0.956              1.035              0.453

 Normal termination of Gaussian 09 at Tue Aug 16 18:01:21 2016.
