 Gaussian 09, Revision E.01,
 Gaussian 09:  EM64L-G09RevE.01 30-Nov-2015

 ---------------------------------------------
 #p b3lyp/6-311++G(3df,2p) freq symmetry=Loose
 ---------------------------------------------

 ---------
 b3lyp opt
 ---------
 Symbolic Z-matrix:
 Charge =  0 Multiplicity = 4

                         Standard orientation:
 ---------------------------------------------------------------------
 Center     Atomic      Atomic             Coordinates (Angstroms)
 Number     Number       Type             X           Y           Z
 ---------------------------------------------------------------------
      1          7           0        0.955149    1.350232   -0.000000
      2          6           0       -0.312149   -0.183044    1.237280
      3          6           0       -0.312149   -0.183044   -1.237280
      4          6           0       -0.312149   -0.773992    2.345453
      5          6           0        0.134254    0.338802   -0.000000
      6          6           0       -0.312149   -0.773992   -2.345453
 ---------------------------------------------------------------------

 SCF Done:  E(UB3LYP) =  -244.900472762     A.U. after   23 cycles

 The electronic state is 4-A'.
 Alpha  occ. eigenvalues --  -14.43870 -10.32675 -10.27237 -10.27236 -10.25943
 Alpha  occ. eigenvalues --  -10.25941  -1.00948  -0.84432  -0.83082  -0.72691
 Alpha  occ. eigenvalues --   -0.63758  -0.47944  -0.47426  -0.39414  -0.38582
 Alpha  occ. eigenvalues --   -0.37216  -0.35318  -0.35123  -0.34874  -0.32819
 Alpha virt. eigenvalues --   -0.14358  -0.04647  -0.04064  -0.00998   0.00041
 Alpha virt. eigenvalues --    0.03558   0.03728   0.04218   0.05288   0.06306
 Alpha virt. eigenvalues --    0.06624   0.07577   0.08439   0.08869   0.10170

  Beta  occ. eigenvalues --  -14.40933 -10.33063 -10.26248 -10.26247 -10.25279
  Beta  occ. eigenvalues --  -10.25278  -0.96812  -0.80627  -0.80092  -0.70064
  Beta  occ. eigenvalues --   -0.61541  -0.44731  -0.43849  -0.34304  -0.33879
  Beta  occ. eigenvalues --   -0.32944  -0.32643
  Beta virt. eigenvalues --   -0.24016  -0.22885  -0.16242  -0.10076  -0.02838
  Beta virt. eigenvalues --   -0.00713  -0.00455   0.01537   0.04128   0.04216
  Beta virt. eigenvalues --    0.04498   0.05814   0.06791   0.06933   0.08497

 Mulliken charges and spin densities:
               1          2
     1  N   -0.543357   1.466719
     2  C    0.714187   0.347468
     3  C    0.714187   0.347468
     4  C   -0.330498   0.580945
     5  C   -0.224021  -0.323546
     6  C   -0.330498   0.580945
 Sum of Mulliken charges =  -0.00000   3.00000

 Dipole moment (field-independent basis, Debye):
    X=             -1.1595    Y=              0.6285    Z=              0.0000  Tot=              1.3189
 Quadrupole moment (field-independent basis, Debye-Ang):
   XX=            -33.2222   YY=            -37.2836   ZZ=            -40.1395
   XY=             -1.6292   XZ=             -0.0000   YZ=              0.0000

  Exact polarizability:  47.227  14.138  69.021   0.000  -0.000 170.613
 Approx polarizability:  72.390  22.378 114.288  -0.000  -0.000 247.442

                      1                      2                      3
                     A'                     A'                     A"
 Frequencies --    123.4818               196.9814               199.7608
 Red. masses --     12.1498                12.2454                12.6110
 Frc consts  --      0.1092                 0.2799                 0.2965
 IR Inten    --      1.7460                 7.6836                 0.1167

                      4                      5                      6
                     A"                     A"                     A'
 Frequencies --    309.8766               419.8768               476.6256
 Red. masses --     12.0187                12.5224                12.1129
 Frc consts  --      0.6800                 1.3007                 1.6213
 IR Inten    --     17.0483                62.3620                 2.3095

                      7                      8                      9
                     A'                     A'                     A"
 Frequencies --    622.6048               763.7117              1121.4668
 Red. masses --     12.1124                12.4179                12.0010
 Frc consts  --      2.7663                 4.2674                 8.8928
 IR Inten    --     10.7709                 5.3635               196.5658

                     10                     11                     12
                     A'                     A"                     A'
 Frequencies --   1284.4421              1523.9453              1676.2242
 Red. masses --     12.6496                12.0005                12.0517
 Frc consts  --     12.2958                16.4205                19.9509
 IR Inten    --     94.4084              2181.6859               186.0623

 - Thermochemistry -
 -------------------
 Temperature   298.150 Kelvin.  Pressure   1.00000 Atm.
 Atom     1 has atomic number  7 and mass  14.00307

 Molecular mass:    74.00307 amu.
 Principal axes and moments of inertia in atomic units:
                           1         2         3
     Eigenvalues --   213.39563 607.53107 811.22969
           X           -0.00000   0.53474   0.84502
           Y           -0.00000   0.84502  -0.53474
           Z            1.00000   0.00000  -0.00000
 This molecule is an asymmetric top.
 Rotational symmetry number  1.
 Rotational temperatures (Kelvin)      0.40588     0.14257     0.10677
 Rotational constants (GHZ):           8.45725     2.97062     2.22470
 Zero-point vibrational energy      52151.2 (Joules/Mol)
                                   12.46443 (Kcal/Mol)
 Warning -- explicit consideration of   6 degrees of freedom as
           vibrations may cause significant error
 Vibrational temperatures:    177.66   283.41   287.41   445.84   604.11
          (Kelvin)            685.76   895.79  1098.81  1613.54  1848.02
                             2192.61  2411.71

 Zero-point correction=                           0.019863 (Hartree/Particle)
 Thermal correction to Energy=                    0.025733
 Thermal correction to Enthalpy=                  0.026677
 Thermal correction to Gibbs Free Energy=        -0.010764
 Sum of electronic and zero-point Energies=           -244.880609
 Sum of electronic and thermal Energies=              -244.874740
 Sum of electronic and thermal Enthalpies=            -244.873796
 Sum of electronic and thermal Free Energies=         -244.911237

                     E (Thermal)             CV                S
                      KCal/Mol        Cal/Mol-Kelvin    Cal/Mol-Kelvin
 Total                   16.147             18.183             78.801
 Electronic               0.000              0.000              2.755
 Translational            0.889              2.981             38.821
 Rotational               0.889              2.981             26.156
 Vibrational             14.370             12.221             11.070
 Vibration     1          0.610              1.929              3.045
 Vibration     2          0.636              1.844              2.161
 Vibration     3          0.638              1.840              2.135
 Vibration     4          0.699              1.655              1.363
 Vibration     5          0.783              1.427              0.892
 Vibration     6          0.833              1.302              0.719

 Optimization completed.
    -- Stationary point found.
 Normal termination of Gaussian 09 at Tue Aug 16 18:34:41 2016.
