 Gaussian 09, Revision E.01,
 Gaussian 09:  EM64L-G09RevE.01 30-Nov-2015

 ---------------------------------------------
 #p b3lyp/6-311++G(3df,2p) freq symmetry=Loose
 ---------------------------------------------

 ---------
 b3lyp opt
 ---------
 Symbolic Z-matrix:
 Charge =  0 Multiplicity = 4

                         Standard orientation:
 ---------------------------------------------------------------------
 Center     Atomic      Atomic             Coordinates (Angstroms)
 Number     Number       Type             X           Y           Z
 ---------------------------------------------------------------------
      1          6           0       -0.000000   -0.000000   -1.288331
      2          6           0       -0.000000    1.124221    0.653653
      3          6           0        0.000000   -1.188316   -0.762271
      4          6           0       -0.000000    1.188316   -0.762271
      5          6           0        0.000000   -1.124221    0.653653
      6          7           0        0.000000    0.000000    1.290486
 ---------------------------------------------------------------------

 SCF Done:  E(UB3LYP) =  -244.975019482     A.U. after   16 cycles

 The electronic state is 4-A1.
 Alpha  occ. eigenvalues --  -14.38256 -10.29133 -10.29129 -10.26002 -10.26000
 Alpha  occ. eigenvalues --  -10.24615  -1.03066  -0.86859  -0.81288  -0.68223
 Alpha  occ. eigenvalues --   -0.63005  -0.54520  -0.48423  -0.47053  -0.36225
 Alpha  occ. eigenvalues --   -0.35679  -0.34326  -0.31471  -0.29233  -0.26141
 Alpha virt. eigenvalues --   -0.11766  -0.07076  -0.05204   0.01150   0.03970
 Alpha virt. eigenvalues --    0.03999   0.04729   0.06344   0.06384   0.07022
 Alpha virt. eigenvalues --    0.08119   0.08554   0.11022   0.11345   0.11784

  Beta  occ. eigenvalues --  -14.37720 -10.27502 -10.27500 -10.24810 -10.24504
  Beta  occ. eigenvalues --  -10.24482  -1.01397  -0.85662  -0.77822  -0.65230
  Beta  occ. eigenvalues --   -0.60992  -0.52613  -0.46037  -0.41806  -0.35192
  Beta  occ. eigenvalues --   -0.32325  -0.29203
  Beta virt. eigenvalues --   -0.18825  -0.14183  -0.09037  -0.08321  -0.04161
  Beta virt. eigenvalues --   -0.04104   0.01533   0.04256   0.04814   0.05044
  Beta virt. eigenvalues --    0.06715   0.07153   0.07372   0.08216   0.08654

 Mulliken charges and spin densities:
               1          2
     1  C    0.110343  -0.410316
     2  C    0.075329   0.964375
     3  C    0.248694   0.742366
     4  C    0.248694   0.742366
     5  C    0.075329   0.964375
     6  N   -0.758387  -0.003165
 Sum of Mulliken charges =  -0.00000   3.00000

 Dipole moment (field-independent basis, Debye):
    X=             -0.0000    Y=              0.0000    Z=             -0.8193  Tot=              0.8193
 Quadrupole moment (field-independent basis, Debye-Ang):
   XX=            -33.5566   YY=            -33.9178   ZZ=            -34.8081
   XY=              0.0000   XZ=             -0.0000   YZ=              0.0000

  Exact polarizability:  37.898   0.000  72.793  -0.000   0.000  67.345
 Approx polarizability:  53.381  -0.000 152.152   0.000  -0.000 144.804

                      1                      2                      3
                     A2                     B2                     B1
 Frequencies --    404.5216               416.1676               460.5461
 Red. masses --     12.0000                12.0389                12.1838
 Frc consts  --      1.1570                 1.2285                 1.5226
 IR Inten    --      0.0000                 8.0236                 8.5949

                      4                      5                      6
                     B1                     A1                     A1
 Frequencies --    564.4681               623.0107               776.5107
 Red. masses --     12.6507                12.0995                13.0031
 Frc consts  --      2.3749                 2.7670                 4.6195
 IR Inten    --      0.5842                 7.3947                47.8757

                      7                      8                      9
                     B2                     A1                     A1
 Frequencies --   1096.7915              1115.6957              1307.9666
 Red. masses --     12.0235                12.1264                12.1658
 Frc consts  --      8.5218                 8.8935                12.2627
 IR Inten    --     15.0273                 3.3327               111.3727

                     10                     11                     12
                     B2                     A1                     B2
 Frequencies --   1341.6610              1471.4044              1484.7424
 Red. masses --     13.1206                12.0792                12.0006
 Frc consts  --     13.9152                15.4082                15.5868
 IR Inten    --      9.2084                63.6950                10.6021

 - Thermochemistry -
 -------------------
 Temperature   298.150 Kelvin.  Pressure   1.00000 Atm.
 Atom     1 has atomic number  6 and mass  12.00000

 Molecular mass:    74.00307 amu.
 Principal axes and moments of inertia in atomic units:
                           1         2         3
     Eigenvalues --   229.34520 240.82299 470.16819
           X            0.00000  -0.00000   1.00000
           Y           -0.00000   1.00000   0.00000
           Z            1.00000   0.00000  -0.00000
 This molecule is an asymmetric top.
 Rotational symmetry number  2.
 Rotational temperatures (Kelvin)      0.37766     0.35966     0.18422
 Rotational constants (GHZ):           7.86910     7.49406     3.83850
 Zero-point vibrational energy      66174.3 (Joules/Mol)
                                   15.81605 (Kcal/Mol)
 Warning -- explicit consideration of   4 degrees of freedom as
           vibrations may cause significant error
 Vibrational temperatures:    582.02   598.77   662.62   812.14   896.37
          (Kelvin)           1117.22  1578.04  1605.24  1881.87  1930.35
                             2117.02  2136.21

 Zero-point correction=                           0.025204 (Hartree/Particle)
 Thermal correction to Energy=                    0.029384
 Thermal correction to Enthalpy=                  0.030329
 Thermal correction to Gibbs Free Energy=        -0.002423
 Sum of electronic and zero-point Energies=           -244.949815
 Sum of electronic and thermal Energies=              -244.945635
 Sum of electronic and thermal Enthalpies=            -244.944691
 Sum of electronic and thermal Free Energies=         -244.977442

                     E (Thermal)             CV                S
                      KCal/Mol        Cal/Mol-Kelvin    Cal/Mol-Kelvin
 Total                   18.439             13.961             68.931
 Electronic               0.000              0.000              2.755
 Translational            0.889              2.981             38.821
 Rotational               0.889              2.981             23.389
 Vibrational             16.662              7.999              3.967
 Vibration     1          0.770              1.460              0.946
 Vibration     2          0.779              1.435              0.905
 Vibration     3          0.818              1.338              0.765
 Vibration     4          0.920              1.108              0.515

 Optimization completed.
    -- Stationary point found.
 Normal termination of Gaussian 09 at Tue Aug 16 18:30:09 2016.
