 Gaussian 09, Revision E.01,
 Gaussian 09:  EM64L-G09RevE.01 30-Nov-2015

 ---------------------------------------------
 #p b3lyp/6-311++G(3df,2p) freq symmetry=Loose
 ---------------------------------------------

 ---------
 b3lyp opt
 ---------
 Symbolic Z-matrix:
 Charge =  1 Multiplicity = 1

                         Standard orientation:
 ---------------------------------------------------------------------
 Center     Atomic      Atomic             Coordinates (Angstroms)
 Number     Number       Type             X           Y           Z
 ---------------------------------------------------------------------
      1          6           0        1.334529    0.070919   -0.000000
      2          6           0       -1.098712    1.282006   -0.000000
      3          6           0       -1.284100   -0.149865    0.000000
      4          6           0        0.000000    0.401692   -0.000000
      5          6           0       -1.830972   -1.401542    0.000000
      6          7           0        2.467933   -0.174179    0.000000
 ---------------------------------------------------------------------

 SCF Done:  E(RB3LYP) =  -244.636796558     A.U. after   16 cycles

 The electronic state is 1-A'.
 Alpha  occ. eigenvalues --  -14.61618 -10.59951 -10.58986 -10.54838 -10.53952
 Alpha  occ. eigenvalues --  -10.49265  -1.25123  -1.18728  -1.04585  -0.99349
 Alpha  occ. eigenvalues --   -0.78118  -0.71699  -0.70926  -0.63201  -0.62178
 Alpha  occ. eigenvalues --   -0.61683  -0.59844  -0.54870
 Alpha virt. eigenvalues --   -0.47152  -0.40401  -0.35073  -0.24830  -0.24791
 Alpha virt. eigenvalues --   -0.17511  -0.14734  -0.13748  -0.11225  -0.10529
 Alpha virt. eigenvalues --   -0.09423  -0.08499  -0.06711  -0.06413  -0.05516

 Mulliken charges:
               1
     1  C    0.229265
     2  C    0.009414
     3  C    0.715901
     4  C    1.070571
     5  C   -0.287156
     6  N   -0.737994
 Sum of Mulliken charges =   1.00000

 Dipole moment (field-independent basis, Debye):
    X=             -2.6389    Y=             -0.4736    Z=             -0.0000  Tot=              2.6811
 Quadrupole moment (field-independent basis, Debye-Ang):
   XX=            -24.4551   YY=            -29.8796   ZZ=            -28.0795
   XY=              3.0269   XZ=             -0.0000   YZ=              0.0000

  Exact polarizability:  85.975   8.289  59.510   0.000   0.000  32.366
 Approx polarizability: 199.371  46.845 158.843  -0.000  -0.000  51.153

                      1                      2                      3
                     A'                     A"                     A"
 Frequencies --    128.4368               196.9520               233.2826
 Red. masses --     12.4680                12.3670                12.1353
 Frc consts  --      0.1212                 0.2826                 0.3891
 IR Inten    --      4.4331                23.9338                 3.0735

                      4                      5                      6
                     A'                     A'                     A"
 Frequencies --    244.8644               539.8788               551.5407
 Red. masses --     12.2902                12.0698                12.0366
 Frc consts  --      0.4342                 2.0727                 2.1573
 IR Inten    --      4.8141                 1.0560                 0.0115

                      7                      8                      9
                     A'                     A'                     A'
 Frequencies --    680.7391               854.6173               954.9237
 Red. masses --     12.4807                12.0992                12.0308
 Frc consts  --      3.4076                 5.2066                 6.4637
 IR Inten    --      0.6424                17.6371                63.7366

                     10                     11                     12
                     A'                     A'                     A'
 Frequencies --   1415.2208              1665.5143              2288.7936
 Red. masses --     12.1033                12.0416                12.6287
 Frc consts  --     14.2825                19.6803                38.9782
 IR Inten    --    163.4625               580.7805               341.0512

 - Thermochemistry -
 -------------------
 Temperature   298.150 Kelvin.  Pressure   1.00000 Atm.
 Atom     1 has atomic number  6 and mass  12.00000

 Molecular mass:    74.00307 amu.
 Principal axes and moments of inertia in atomic units:
                           1         2         3
     Eigenvalues --   160.85626 650.30308 811.15934
           X            0.99656  -0.08286   0.00000
           Y            0.08286   0.99656   0.00000
           Z           -0.00000  -0.00000   1.00000
 This molecule is an asymmetric top.
 Rotational symmetry number  1.
 Rotational temperatures (Kelvin)      0.53845     0.13319     0.10678
 Rotational constants (GHZ):          11.21959     2.77523     2.22489
 Zero-point vibrational energy      58346.4 (Joules/Mol)
                                   13.94514 (Kcal/Mol)
 Warning -- explicit consideration of   6 degrees of freedom as
           vibrations may cause significant error
 Vibrational temperatures:    184.79   283.37   335.64   352.30   776.76
          (Kelvin)            793.54   979.43  1229.60  1373.92  2036.18
                             2396.30  3293.06

 Zero-point correction=                           0.022223 (Hartree/Particle)
 Thermal correction to Energy=                    0.027930
 Thermal correction to Enthalpy=                  0.028874
 Thermal correction to Gibbs Free Energy=        -0.006881
 Sum of electronic and zero-point Energies=           -244.614574
 Sum of electronic and thermal Energies=              -244.608867
 Sum of electronic and thermal Enthalpies=            -244.607923
 Sum of electronic and thermal Free Energies=         -244.643678

                     E (Thermal)             CV                S
                      KCal/Mol        Cal/Mol-Kelvin    Cal/Mol-Kelvin
 Total                   17.526             17.597             75.253
 Electronic               0.000              0.000              0.000
 Translational            0.889              2.981             38.821
 Rotational               0.889              2.981             25.943
 Vibrational             15.749             11.635             10.490
 Vibration     1          0.611              1.925              2.969
 Vibration     2          0.636              1.844              2.161
 Vibration     3          0.654              1.790              1.854
 Vibration     4          0.660              1.771              1.767
 Vibration     5          0.895              1.162              0.566
 Vibration     6          0.907              1.136              0.541

 Optimization completed.
    -- Stationary point found.
 Normal termination of Gaussian 09 at Tue Aug 16 18:22:10 2016.
