 Gaussian 09, Revision E.01,
 Gaussian 09:  EM64L-G09RevE.01 30-Nov-2015

 ---------------------------------------------
 #p b3lyp/6-311++G(3df,2p) freq symmetry=Loose
 ---------------------------------------------

 ---------
 b3lyp opt
 ---------
 Symbolic Z-matrix:
 Charge =  1 Multiplicity = 3

                         Standard orientation:
 ---------------------------------------------------------------------
 Center     Atomic      Atomic             Coordinates (Angstroms)
 Number     Number       Type             X           Y           Z
 ---------------------------------------------------------------------
      1          6           0        1.116527   -0.527498   -0.000000
      2          6           0       -1.092725   -0.661157   -0.000000
      3          6           0        1.268828    0.760658    0.000000
      4          6           0        0.106580   -1.399673   -0.000000
      5          6           0       -0.000000    1.057397    0.000000
      6          7           0       -1.199323    0.660235    0.000000
 ---------------------------------------------------------------------

 SCF Done:  E(UB3LYP) =  -244.647945840     A.U. after   19 cycles

 The electronic state is 3-A'.
 Alpha  occ. eigenvalues --  -14.65017 -10.58363 -10.56326 -10.54484 -10.52961
 Alpha  occ. eigenvalues --  -10.52476  -1.31283  -1.16195  -1.07701  -0.92609
 Alpha  occ. eigenvalues --   -0.88658  -0.79902  -0.74158  -0.73660  -0.61698
 Alpha  occ. eigenvalues --   -0.60732  -0.59185  -0.57199  -0.53054
 Alpha virt. eigenvalues --   -0.38968  -0.33020  -0.30675  -0.29340  -0.15862
 Alpha virt. eigenvalues --   -0.13633  -0.10919  -0.10352  -0.10230  -0.08813
 Alpha virt. eigenvalues --   -0.07861  -0.07335  -0.06090  -0.05859  -0.03098

  Beta  occ. eigenvalues --  -14.64707 -10.58093 -10.54835 -10.54583 -10.51644
  Beta  occ. eigenvalues --  -10.51082  -1.30501  -1.15507  -1.05083  -0.90623
  Beta  occ. eigenvalues --   -0.87787  -0.78763  -0.73136  -0.70139  -0.60302
  Beta  occ. eigenvalues --   -0.58735  -0.55408
  Beta virt. eigenvalues --   -0.44367  -0.38696  -0.33042  -0.30514  -0.29651
  Beta virt. eigenvalues --   -0.27451  -0.15717  -0.11819  -0.10585  -0.10100
  Beta virt. eigenvalues --   -0.09713  -0.08384  -0.07290  -0.06544  -0.06012

 Mulliken charges and spin densities:
               1          2
     1  C    0.205758  -0.340760
     2  C    0.164953   0.846412
     3  C    0.542827   0.463896
     4  C    0.394292   0.948402
     5  C    0.334105   0.077625
     6  N   -0.641934   0.004426
 Sum of Mulliken charges =   1.00000   2.00000

 Dipole moment (field-independent basis, Debye):
    X=              1.3932    Y=             -0.2731    Z=             -0.0000  Tot=              1.4197
 Quadrupole moment (field-independent basis, Debye-Ang):
   XX=            -24.6305   YY=            -22.9042   ZZ=            -30.2169
   XY=              0.9167   XZ=              0.0000   YZ=             -0.0000

  Exact polarizability:  59.526   5.164  56.069  -0.000  -0.000  28.817
 Approx polarizability: 150.892  19.631 136.627  -0.000   0.000  40.994

                      1                      2                      3
                     A'                     A"                     A"
 Frequencies --    418.2487               418.9328               504.8274
 Red. masses --     12.1993                12.0247                12.0063
 Frc consts  --      1.2573                 1.2434                 1.8028
 IR Inten    --      4.4891                 3.2831                 1.0349

                      4                      5                      6
                     A"                     A'                     A'
 Frequencies --    545.3972               591.9903               680.6728
 Red. masses --     12.7176                12.2381                12.3144
 Frc consts  --      2.2288                 2.5269                 3.3615
 IR Inten    --      0.4299                30.3984                 2.9364

                      7                      8                      9
                     A'                     A'                     A'
 Frequencies --   1070.8401              1154.3848              1184.5082
 Red. masses --     12.7781                12.3200                12.3592
 Frc consts  --      8.6331                 9.6730                10.2168
 IR Inten    --     10.3692                14.8462                 7.8049

                     10                     11                     12
                     A'                     A'                     A'
 Frequencies --   1218.7812              1659.0691              1761.9525
 Red. masses --     12.0880                12.0337                12.1849
 Frc consts  --     10.5792                19.5154                22.2874
 IR Inten    --     11.3489                 5.9584               162.0966

 - Thermochemistry -
 -------------------
 Temperature   298.150 Kelvin.  Pressure   1.00000 Atm.
 Atom     1 has atomic number  6 and mass  12.00000

 Molecular mass:    74.00307 amu.
 Principal axes and moments of inertia in atomic units:
                           1         2         3
     Eigenvalues --   209.08215 246.02596 455.10811
           X            0.99956  -0.02954   0.00000
           Y            0.02954   0.99956   0.00000
           Z            0.00000  -0.00000   1.00000
 This molecule is an asymmetric top.
 Rotational symmetry number  1.
 Rotational temperatures (Kelvin)      0.41426     0.35205     0.19031
 Rotational constants (GHZ):           8.63173     7.33557     3.96552
 Zero-point vibrational energy      67048.3 (Joules/Mol)
                                   16.02493 (Kcal/Mol)
 Warning -- explicit consideration of   5 degrees of freedom as
           vibrations may cause significant error
 Vibrational temperatures:    601.77   602.75   726.33   784.70   851.74
          (Kelvin)            979.34  1540.70  1660.90  1704.24  1753.55
                             2387.03  2535.05

 Zero-point correction=                           0.025537 (Hartree/Particle)
 Thermal correction to Energy=                    0.029737
 Thermal correction to Enthalpy=                  0.030681
 Thermal correction to Gibbs Free Energy=        -0.002419
 Sum of electronic and zero-point Energies=           -244.622408
 Sum of electronic and thermal Energies=              -244.618209
 Sum of electronic and thermal Enthalpies=            -244.617264
 Sum of electronic and thermal Free Energies=         -244.650365

                     E (Thermal)             CV                S
                      KCal/Mol        Cal/Mol-Kelvin    Cal/Mol-Kelvin
 Total                   18.660             14.148             69.666
 Electronic               0.000              0.000              2.183
 Translational            0.889              2.981             38.821
 Rotational               0.889              2.981             24.663
 Vibrational             16.883              8.187              3.999
 Vibration     1          0.781              1.431              0.898
 Vibration     2          0.782              1.429              0.896
 Vibration     3          0.860              1.239              0.646
 Vibration     4          0.901              1.150              0.554
 Vibration     5          0.949              1.049              0.464

 Normal termination of Gaussian 09 at Tue Aug 16 18:45:00 2016.
