 Gaussian 09, Revision E.01,
 Gaussian 09:  EM64L-G09RevE.01 30-Nov-2015

 ---------------------------------------------
 #p b3lyp/6-311++G(3df,2p) freq symmetry=Loose
 ---------------------------------------------

 ---------
 b3lyp opt
 ---------
 Symbolic Z-matrix:
 Charge =  0 Multiplicity = 2

                         Standard orientation:
 ---------------------------------------------------------------------
 Center     Atomic      Atomic             Coordinates (Angstroms)
 Number     Number       Type             X           Y           Z
 ---------------------------------------------------------------------
      1          6           0       -0.199198   -1.133721    0.909522
      2          7           0        0.020614    2.481734    0.000000
      3          6           0        0.637666   -1.900140    0.000000
      4          6           0       -0.199198   -0.059548   -0.000000
      5          6           0       -0.199198   -1.133721   -0.909522
      6          6           0       -0.064122    1.331772   -0.000000
 ---------------------------------------------------------------------

 SCF Done:  E(UB3LYP) =  -245.012153485     A.U. after   19 cycles

 The electronic state is 2-A".
 Alpha  occ. eigenvalues --  -14.38302 -10.32675 -10.29523 -10.29521 -10.28994
 Alpha  occ. eigenvalues --  -10.27424  -1.02717  -0.97127  -0.78193  -0.65797
 Alpha  occ. eigenvalues --   -0.62160  -0.49143  -0.47503  -0.42867  -0.41230
 Alpha  occ. eigenvalues --   -0.39689  -0.37090  -0.30746  -0.29621
 Alpha virt. eigenvalues --   -0.16054  -0.08028  -0.07410  -0.03910   0.00250
 Alpha virt. eigenvalues --    0.02424   0.03388   0.04145   0.05641   0.06133
 Alpha virt. eigenvalues --    0.06216   0.07659   0.08214   0.08573   0.10213

  Beta  occ. eigenvalues --  -14.38294 -10.32620 -10.28888 -10.28664 -10.28662
  Beta  occ. eigenvalues --  -10.27430  -1.01814  -0.97079  -0.77972  -0.63721
  Beta  occ. eigenvalues --   -0.61689  -0.47170  -0.46570  -0.42847  -0.40137
  Beta  occ. eigenvalues --   -0.39257  -0.35018  -0.29594
  Beta virt. eigenvalues --   -0.17434  -0.15840  -0.06917  -0.06263  -0.03525
  Beta virt. eigenvalues --    0.00430   0.02563   0.03441   0.04389   0.05879
  Beta virt. eigenvalues --    0.06165   0.06305   0.07874   0.08365   0.08975

 Mulliken charges and spin densities:
               1          2
     1  C   -0.099134   0.493483
     2  N   -0.924257   0.006401
     3  C   -0.153413   0.039906
     4  C    1.013649  -0.013776
     5  C   -0.099134   0.493483
     6  C    0.262288  -0.019498
 Sum of Mulliken charges =  -0.00000   1.00000

 Dipole moment (field-independent basis, Debye):
    X=             -0.7759    Y=             -0.6224    Z=             -0.0000  Tot=              0.9947
 Quadrupole moment (field-independent basis, Debye-Ang):
   XX=            -34.1220   YY=            -42.4221   ZZ=            -35.3138
   XY=              1.9128   XZ=              0.0000   YZ=             -0.0000

  Exact polarizability:  39.759  -7.448  93.126   0.000  -0.000  61.053
 Approx polarizability:  65.099 -20.799 188.511   0.000  -0.000 126.952

                      1                      2                      3
                     A'                     A"                     A'
 Frequencies --    178.5690               204.3931               415.2610
 Red. masses --     12.4718                12.5728                12.2199
 Frc consts  --      0.2343                 0.3095                 1.2415
 IR Inten    --     11.5453                 6.2685                11.2439

                      4                      5                      6
                     A"                     A"                     A'
 Frequencies --    522.8917               563.7151               622.6026
 Red. masses --     12.0366                12.0533                12.2695
 Frc consts  --      1.9390                 2.2567                 2.8022
 IR Inten    --     42.8487                 0.0911                 2.7441

                      7                      8                      9
                     A'                     A'                     A"
 Frequencies --    657.4297               846.5304               942.4465
 Red. masses --     12.0906                12.2577                12.0043
 Frc consts  --      3.0789                 5.1754                 6.2820
 IR Inten    --      3.5321                27.8767                95.1615

                     10                     11                     12
                     A'                     A'                     A'
 Frequencies --   1170.3787              1528.5224              2327.6131
 Red. masses --     12.0024                12.0901                12.6638
 Frc consts  --      9.6866                16.6427                40.4235
 IR Inten    --      0.2154                 9.4888                 2.1740

 - Thermochemistry -
 -------------------
 Temperature   298.150 Kelvin.  Pressure   1.00000 Atm.
 Atom     1 has atomic number  6 and mass  12.00000

 Molecular mass:    74.00307 amu.
 Principal axes and moments of inertia in atomic units:
                           1         2         3
     Eigenvalues --    91.87065 671.74671 721.67237
           X           -0.05273   0.00000   0.99861
           Y            0.99861  -0.00000   0.05273
           Z            0.00000   1.00000  -0.00000
 This molecule is an asymmetric top.
 Rotational symmetry number  1.
 Rotational temperatures (Kelvin)      0.94278     0.12894     0.12002
 Rotational constants (GHZ):          19.64437     2.68664     2.50078
 Zero-point vibrational energy      59695.8 (Joules/Mol)
                                   14.26763 (Kcal/Mol)
 Warning -- explicit consideration of   5 degrees of freedom as
           vibrations may cause significant error
 Vibrational temperatures:    256.92   294.08   597.47   752.32   811.06
          (Kelvin)            895.79   945.89  1217.97  1355.97  1683.91
                             2199.20  3348.91

 Zero-point correction=                           0.022737 (Hartree/Particle)
 Thermal correction to Energy=                    0.027816
 Thermal correction to Enthalpy=                  0.028760
 Thermal correction to Gibbs Free Energy=        -0.005965
 Sum of electronic and zero-point Energies=           -244.989417
 Sum of electronic and thermal Energies=              -244.984337
 Sum of electronic and thermal Enthalpies=            -244.983393
 Sum of electronic and thermal Free Energies=         -245.018118

                     E (Thermal)             CV                S
                      KCal/Mol        Cal/Mol-Kelvin    Cal/Mol-Kelvin
 Total                   17.455             16.625             73.086
 Electronic               0.000              0.000              1.377
 Translational            0.889              2.981             38.821
 Rotational               0.889              2.981             25.302
 Vibrational             15.678             10.663              7.586
 Vibration     1          0.629              1.869              2.343
 Vibration     2          0.640              1.834              2.093
 Vibration     3          0.779              1.437              0.908
 Vibration     4          0.878              1.199              0.603
 Vibration     5          0.919              1.110              0.516

 Optimization completed.
    -- Stationary point found.
 Normal termination of Gaussian 09 at Tue Aug 16 18:22:24 2016.
