 Gaussian 09, Revision E.01,
 Gaussian 09:  EM64L-G09RevE.01 30-Nov-2015

 ---------------------------------------------
 #p b3lyp/6-311++G(3df,2p) freq symmetry=Loose
 ---------------------------------------------

 ---------
 b3lyp opt
 ---------
 Symbolic Z-matrix:
 Charge =  1 Multiplicity = 1

                         Standard orientation:
 ---------------------------------------------------------------------
 Center     Atomic      Atomic             Coordinates (Angstroms)
 Number     Number       Type             X           Y           Z
 ---------------------------------------------------------------------
      1          6           0       -0.000000   -0.000000   -1.489985
      2          6           0       -0.000000    0.812855    1.033116
      3          6           0       -0.000000   -0.000000   -0.209175
      4          6           0       -0.000000   -0.812855    1.033116
      5          6           0       -0.000000   -0.000000   -2.807405
      6          7           0        0.000000    0.000000    2.091714
 ---------------------------------------------------------------------

 SCF Done:  E(RB3LYP) =  -244.620054646     A.U. after   14 cycles

 The electronic state is 1-A1.
 Alpha  occ. eigenvalues --  -14.69358 -10.60585 -10.60570 -10.57378 -10.51686
 Alpha  occ. eigenvalues --  -10.46938  -1.38863  -1.11849  -1.02531  -0.92222
 Alpha  occ. eigenvalues --   -0.89719  -0.76525  -0.75767  -0.68605  -0.61085
 Alpha  occ. eigenvalues --   -0.58638  -0.55525  -0.54512
 Alpha virt. eigenvalues --   -0.43598  -0.38534  -0.36865  -0.28764  -0.23968
 Alpha virt. eigenvalues --   -0.15884  -0.13161  -0.12667  -0.11416  -0.10332
 Alpha virt. eigenvalues --   -0.09363  -0.07265  -0.07168  -0.06162  -0.05730

 Mulliken charges:
               1
     1  C    0.755704
     2  C    0.157888
     3  C    0.275519
     4  C    0.157888
     5  C    0.014419
     6  N   -0.361417
 Sum of Mulliken charges =   1.00000

 Dipole moment (field-independent basis, Debye):
    X=             -0.0000    Y=              0.0000    Z=              0.7506  Tot=              0.7506
 Quadrupole moment (field-independent basis, Debye-Ang):
   XX=            -28.1630   YY=            -29.4884   ZZ=            -24.9569
   XY=              0.0000   XZ=             -0.0000   YZ=              0.0000

  Exact polarizability:  30.912   0.000  44.130   0.000  -0.000  99.298
 Approx polarizability:  49.532   0.000 102.570  -0.000   0.000 240.901

                      1                      2                      3
                     B1                     B2                     B1
 Frequencies --    116.1441               140.2989               290.5578
 Red. masses --     12.2890                12.1439                12.3950
 Frc consts  --      0.0977                 0.1408                 0.6165
 IR Inten    --     13.0794                 2.5451                 0.0433

                      4                      5                      6
                     B2                     B2                     B1
 Frequencies --    431.2597               532.5632               660.4663
 Red. masses --     12.1805                12.0347                12.2273
 Frc consts  --      1.3347                 2.0111                 3.1425
 IR Inten    --      1.1528                 7.0412                 5.3084

                      7                      8                      9
                     A1                     B2                     A1
 Frequencies --    661.4965               874.3224               883.7545
 Red. masses --     12.3968                12.5970                12.1181
 Frc consts  --      3.1961                 5.6736                 5.5763
 IR Inten    --     15.7821                25.1015                 2.9028

                     10                     11                     12
                     A1                     A1                     A1
 Frequencies --   1353.8138              1525.9698              2053.8854
 Red. masses --     12.0357                12.9124                12.0071
 Frc consts  --     12.9969                17.7153                29.8429
 IR Inten    --     63.4906                13.3893               876.2759

 - Thermochemistry -
 -------------------
 Temperature   298.150 Kelvin.  Pressure   1.00000 Atm.
 Atom     1 has atomic number  6 and mass  12.00000

 Molecular mass:    74.00307 amu.
 Principal axes and moments of inertia in atomic units:
                           1         2         3
     Eigenvalues --    56.62854 745.02080 801.64934
           X            0.00000   0.00000   1.00000
           Y            0.00000   1.00000  -0.00000
           Z            1.00000  -0.00000  -0.00000
 This molecule is an asymmetric top.
 Rotational symmetry number  2.
 Rotational temperatures (Kelvin)      1.52951     0.11626     0.10804
 Rotational constants (GHZ):          31.86982     2.42240     2.25129
 Zero-point vibrational energy      56969.4 (Joules/Mol)
                                   13.61600 (Kcal/Mol)
 Warning -- explicit consideration of   5 degrees of freedom as
           vibrations may cause significant error
 Vibrational temperatures:    167.11   201.86   418.05   620.49   766.24
          (Kelvin)            950.26   951.74  1257.95  1271.52  1947.83
                             2195.53  2955.08

 Zero-point correction=                           0.021698 (Hartree/Particle)
 Thermal correction to Energy=                    0.027198
 Thermal correction to Enthalpy=                  0.028143
 Thermal correction to Gibbs Free Energy=        -0.006253
 Sum of electronic and zero-point Energies=           -244.598356
 Sum of electronic and thermal Energies=              -244.592856
 Sum of electronic and thermal Enthalpies=            -244.591912
 Sum of electronic and thermal Free Energies=         -244.626307

                     E (Thermal)             CV                S
                      KCal/Mol        Cal/Mol-Kelvin    Cal/Mol-Kelvin
 Total                   17.067             17.154             72.391
 Electronic               0.000              0.000              0.000
 Translational            0.889              2.981             38.821
 Rotational               0.889              2.981             23.651
 Vibrational             15.290             11.192              9.919
 Vibration     1          0.608              1.936              3.164
 Vibration     2          0.615              1.913              2.800
 Vibration     3          0.687              1.691              1.471
 Vibration     4          0.792              1.402              0.855
 Vibration     5          0.888              1.178              0.582

 Normal termination of Gaussian 09 at Tue Aug 16 18:12:28 2016.
