 Gaussian 09, Revision E.01,
 Gaussian 09:  EM64L-G09RevE.01 30-Nov-2015

 ---------------------------------------------
 #p b3lyp/6-311++G(3df,2p) freq symmetry=Loose
 ---------------------------------------------

 ---------
 b3lyp opt
 ---------
 Symbolic Z-matrix:
 Charge =  0 Multiplicity = 2

                         Standard orientation:
 ---------------------------------------------------------------------
 Center     Atomic      Atomic             Coordinates (Angstroms)
 Number     Number       Type             X           Y           Z
 ---------------------------------------------------------------------
      1          6           0        2.074234   -0.615588    0.000106
      2          6           0        0.855614   -0.171352   -0.000207
      3          6           0       -1.509610   -1.339155    0.000104
      4          6           0       -0.594124   -0.397543   -0.000101
      5          6           0        0.282095    1.268586    0.000119
      6          7           0       -0.949894    1.075759   -0.000018
 ---------------------------------------------------------------------

 SCF Done:  E(UB3LYP) =  -244.895275776     A.U. after   25 cycles

 The electronic state is 2-A.
 Alpha  occ. eigenvalues --  -14.41479 -10.33272 -10.29821 -10.29224 -10.28313
 Alpha  occ. eigenvalues --  -10.26594  -1.07568  -0.85144  -0.81360  -0.69055
 Alpha  occ. eigenvalues --   -0.59937  -0.52857  -0.49206  -0.42184  -0.36369
 Alpha  occ. eigenvalues --   -0.34592  -0.34280  -0.32010  -0.31254
 Alpha virt. eigenvalues --   -0.17146  -0.16112  -0.09902  -0.06903   0.01129
 Alpha virt. eigenvalues --    0.03402   0.03743   0.04148   0.05442   0.05602
 Alpha virt. eigenvalues --    0.06068   0.06778   0.08261   0.09334   0.10695

  Beta  occ. eigenvalues --  -14.41389 -10.32087 -10.29708 -10.29141 -10.28051
  Beta  occ. eigenvalues --  -10.26304  -1.07080  -0.84240  -0.80551  -0.68332
  Beta  occ. eigenvalues --   -0.57545  -0.51361  -0.48835  -0.40669  -0.35488
  Beta  occ. eigenvalues --   -0.34331  -0.33855  -0.31677
  Beta virt. eigenvalues --   -0.20330  -0.15831  -0.12987  -0.09203  -0.06180
  Beta virt. eigenvalues --    0.01462   0.03573   0.04028   0.04190   0.05718
  Beta virt. eigenvalues --    0.05863   0.06186   0.06932   0.08345   0.09612

 Mulliken charges and spin densities:
               1          2
     1  C   -0.597721   0.159967
     2  C    1.282799   0.015845
     3  C   -0.942767   0.082520
     4  C    0.689297   0.136983
     5  C    0.201590   0.659321
     6  N   -0.633197  -0.054635
 Sum of Mulliken charges =  -0.00000   1.00000

 Dipole moment (field-independent basis, Debye):
    X=              0.1937    Y=              0.9503    Z=             -0.0002  Tot=              0.9698
 Quadrupole moment (field-independent basis, Debye-Ang):
   XX=            -42.5662   YY=            -34.9435   ZZ=            -34.4963
   XY=              0.7155   XZ=             -0.0003   YZ=              0.0004

  Exact polarizability:  87.765   2.878  70.679   0.000  -0.000  38.097
 Approx polarizability: 166.357   2.843 141.116   0.005  -0.002  56.703

                      1                      2                      3
                      A                      A                      A
 Frequencies --    139.1457               182.2255               246.3846
 Red. masses --     12.0553                12.5652                12.2293
 Frc consts  --      0.1375                 0.2458                 0.4374
 IR Inten    --     13.8039                 4.9088                18.7688

                      4                      5                      6
                      A                      A                      A
 Frequencies --    250.2446               508.6183               572.4132
 Red. masses --     12.0005                12.2549                12.2142
 Frc consts  --      0.4428                 1.8679                 2.3579
 IR Inten    --      2.5353                56.3442                 0.9302

                      7                      8                      9
                      A                      A                      A
 Frequencies --    659.2575               731.7752               792.4264
 Red. masses --     12.5865                12.6098                12.0056
 Frc consts  --      3.2230                 3.9784                 4.4417
 IR Inten    --     37.4034                13.0375                 5.3651

                     10                     11                     12
                      A                      A                      A
 Frequencies --   1613.2449              1624.3953              1830.2648
 Red. masses --     12.6676                12.1392                12.0468
 Frc consts  --     19.4243                18.8722                23.7767
 IR Inten    --    338.7038                72.4087               105.0305

 - Thermochemistry -
 -------------------
 Temperature   298.150 Kelvin.  Pressure   1.00000 Atm.
 Atom     1 has atomic number  6 and mass  12.00000

 Molecular mass:    74.00307 amu.
 Principal axes and moments of inertia in atomic units:
                           1         2         3
     Eigenvalues --   227.95221 377.05811 605.01031
           X            1.00000   0.00008  -0.00000
           Y           -0.00008   1.00000   0.00000
           Z            0.00000  -0.00000   1.00000
 This molecule is an asymmetric top.
 Rotational symmetry number  1.
 Rotational temperatures (Kelvin)      0.37996     0.22971     0.14316
 Rotational constants (GHZ):           7.91719     4.78637     2.98299
 Zero-point vibrational energy      54731.5 (Joules/Mol)
                                   13.08115 (Kcal/Mol)
 Warning -- explicit consideration of   6 degrees of freedom as
           vibrations may cause significant error
 Vibrational temperatures:    200.20   262.18   354.49   360.05   731.79
          (Kelvin)            823.57   948.52  1052.86  1140.12  2321.10
                             2337.14  2633.34

 Zero-point correction=                           0.020846 (Hartree/Particle)
 Thermal correction to Energy=                    0.026620
 Thermal correction to Enthalpy=                  0.027564
 Thermal correction to Gibbs Free Energy=        -0.008668
 Sum of electronic and zero-point Energies=           -244.874430
 Sum of electronic and thermal Energies=              -244.868656
 Sum of electronic and thermal Enthalpies=            -244.867712
 Sum of electronic and thermal Free Energies=         -244.903943

                     E (Thermal)             CV                S
                      KCal/Mol        Cal/Mol-Kelvin    Cal/Mol-Kelvin
 Total                   16.704             18.056             76.256
 Electronic               0.000              0.000              1.377
 Translational            0.889              2.981             38.821
 Rotational               0.889              2.981             25.456
 Vibrational             14.927             12.094             10.602
 Vibration     1          0.615              1.914              2.816
 Vibration     2          0.630              1.864              2.305
 Vibration     3          0.661              1.769              1.756
 Vibration     4          0.663              1.762              1.729
 Vibration     5          0.864              1.231              0.637
 Vibration     6          0.929              1.091              0.500

 Normal termination of Gaussian 09 at Tue Aug 16 18:37:35 2016.
