 Gaussian 09, Revision E.01,
 Gaussian 09:  EM64L-G09RevE.01 30-Nov-2015

 ---------------------------------------------
 #p b3lyp/6-311++G(3df,2p) freq symmetry=Loose
 ---------------------------------------------

 ---------
 b3lyp opt
 ---------
 Symbolic Z-matrix:
 Charge =  1 Multiplicity = 1

                         Standard orientation:
 ---------------------------------------------------------------------
 Center     Atomic      Atomic             Coordinates (Angstroms)
 Number     Number       Type             X           Y           Z
 ---------------------------------------------------------------------
      1          6           0        0.098936    0.371596    0.000013
      2          6           0       -0.895950    1.371200    0.000550
      3          6           0       -1.922008   -1.206935    0.000619
      4          6           0       -1.257506   -0.020256   -0.001210
      5          6           0        2.456914   -0.417415    0.000105
      6          7           0        1.302526   -0.084163   -0.000066
 ---------------------------------------------------------------------

 SCF Done:  E(RB3LYP) =  -244.616535046     A.U. after   15 cycles

 The electronic state is 1-A.
 Alpha  occ. eigenvalues --  -14.64663 -10.60719 -10.58089 -10.53675 -10.52581
 Alpha  occ. eigenvalues --  -10.52427  -1.28324  -1.21730  -1.04066  -1.02592
 Alpha  occ. eigenvalues --   -0.78562  -0.73667  -0.71498  -0.64245  -0.63437
 Alpha  occ. eigenvalues --   -0.58748  -0.57324  -0.53617
 Alpha virt. eigenvalues --   -0.45576  -0.39019  -0.33600  -0.25729  -0.23569
 Alpha virt. eigenvalues --   -0.17803  -0.17770  -0.11856  -0.11265  -0.10660
 Alpha virt. eigenvalues --   -0.09000  -0.08147  -0.06813  -0.06122  -0.06046

 Mulliken charges:
               1
     1  C    0.927528
     2  C   -0.210858
     3  C   -0.154404
     4  C    0.757969
     5  C    0.256531
     6  N   -0.576767
 Sum of Mulliken charges =   1.00000

 Dipole moment (field-independent basis, Debye):
    X=             -1.2482    Y=             -0.3547    Z=             -0.0032  Tot=              1.2976
 Quadrupole moment (field-independent basis, Debye-Ang):
   XX=            -22.9174   YY=            -31.0879   ZZ=            -28.2345
   XY=              1.7102   XZ=              0.0064   YZ=              0.0027

  Exact polarizability:  85.484   6.587  59.126   0.009   0.004  34.091
 Approx polarizability: 180.869  47.122 151.125   0.034   0.025  54.368

                      1                      2                      3
                      A                      A                      A
 Frequencies --    130.5386               150.5139               215.0039
 Red. masses --     12.1287                12.8292                12.6391
 Frc consts  --      0.1218                 0.1712                 0.3442
 IR Inten    --      1.5160                 3.7879                 0.5564

                      4                      5                      6
                      A                      A                      A
 Frequencies --    218.6122               504.9188               515.9853
 Red. masses --     12.0435                12.5295                12.3373
 Frc consts  --      0.3391                 1.8820                 1.9353
 IR Inten    --     15.4910                 8.3059                 3.1146

                      7                      8                      9
                      A                      A                      A
 Frequencies --    720.6025               878.9193               943.8327
 Red. masses --     12.2292                12.0484                12.0476
 Frc consts  --      3.7414                 5.4837                 6.3232
 IR Inten    --     13.8564                 0.0269               125.8998

                     10                     11                     12
                      A                      A                      A
 Frequencies --   1473.0612              1656.7242              2068.8519
 Red. masses --     12.0016                12.0023                13.1215
 Frc consts  --     15.3437                19.4095                33.0897
 IR Inten    --    216.3858               501.4733              1197.5335

 - Thermochemistry -
 -------------------
 Temperature   298.150 Kelvin.  Pressure   1.00000 Atm.
 Atom     1 has atomic number  6 and mass  12.00000

 Molecular mass:    74.00307 amu.
 Principal axes and moments of inertia in atomic units:
                           1         2         3
     Eigenvalues --   156.75023 604.40193 761.15198
           X            1.00000   0.00000   0.00000
           Y           -0.00000   1.00000  -0.00000
           Z           -0.00000   0.00000   1.00000
 This molecule is an asymmetric top.
 Rotational symmetry number  1.
 Rotational temperatures (Kelvin)      0.55256     0.14330     0.11379
 Rotational constants (GHZ):          11.51348     2.98600     2.37107
 Zero-point vibrational energy      56688.4 (Joules/Mol)
                                   13.54886 (Kcal/Mol)
 Warning -- explicit consideration of   6 degrees of freedom as
           vibrations may cause significant error
 Vibrational temperatures:    187.82   216.56   309.34   314.53   726.46
          (Kelvin)            742.39  1036.78  1264.57  1357.96  2119.40
                             2383.65  2976.61

 Zero-point correction=                           0.021591 (Hartree/Particle)
 Thermal correction to Energy=                    0.027464
 Thermal correction to Enthalpy=                  0.028409
 Thermal correction to Gibbs Free Energy=        -0.007708
 Sum of electronic and zero-point Energies=           -244.594944
 Sum of electronic and thermal Energies=              -244.589071
 Sum of electronic and thermal Enthalpies=            -244.588127
 Sum of electronic and thermal Free Energies=         -244.624243

                     E (Thermal)             CV                S
                      KCal/Mol        Cal/Mol-Kelvin    Cal/Mol-Kelvin
 Total                   17.234             17.768             76.014
 Electronic               0.000              0.000              0.000
 Translational            0.889              2.981             38.821
 Rotational               0.889              2.981             25.781
 Vibrational             15.457             11.806             11.412
 Vibration     1          0.612              1.923              2.938
 Vibration     2          0.618              1.902              2.666
 Vibration     3          0.645              1.818              2.001
 Vibration     4          0.646              1.813              1.971
 Vibration     5          0.860              1.239              0.646
 Vibration     6          0.871              1.215              0.619

 Normal termination of Gaussian 09 at Tue Aug 16 18:30:49 2016.
