 Gaussian 09, Revision E.01,
 Gaussian 09:  EM64L-G09RevE.01 30-Nov-2015

 ---------------------------------------------
 #p b3lyp/6-311++G(3df,2p) freq symmetry=Loose
 ---------------------------------------------

 ---------
 b3lyp opt
 ---------
 Symbolic Z-matrix:
 Charge =  1 Multiplicity = 3

                         Standard orientation:
 ---------------------------------------------------------------------
 Center     Atomic      Atomic             Coordinates (Angstroms)
 Number     Number       Type             X           Y           Z
 ---------------------------------------------------------------------
      1          7           0        0.106169    3.055068    0.000000
      2          6           0       -0.032279   -3.313313   -0.000000
      3          6           0       -0.095276   -1.983456   -0.000000
      4          6           0       -0.000000    0.557431    0.000000
      5          6           0       -0.050455   -0.704298   -0.000000
      6          6           0        0.054146    1.879390    0.000000
 ---------------------------------------------------------------------

 SCF Done:  E(UB3LYP) =  -244.722327486     A.U. after   20 cycles

 The electronic state is 3-A".
 Alpha  occ. eigenvalues --  -14.62796 -10.55312 -10.53755 -10.53031 -10.50842
 Alpha  occ. eigenvalues --  -10.49500  -1.20119  -1.13066  -1.07224  -0.98074
 Alpha  occ. eigenvalues --   -0.91060  -0.69143  -0.69136  -0.64444  -0.63170
 Alpha  occ. eigenvalues --   -0.63166  -0.56967  -0.55215  -0.55178
 Alpha virt. eigenvalues --   -0.36696  -0.36660  -0.21660  -0.21580  -0.17054
 Alpha virt. eigenvalues --   -0.13076  -0.10857  -0.10857  -0.08731  -0.08139
 Alpha virt. eigenvalues --   -0.07900  -0.07249  -0.06284  -0.06240  -0.04323

  Beta  occ. eigenvalues --  -14.61550 -10.54119 -10.53330 -10.52849 -10.50090
  Beta  occ. eigenvalues --  -10.49915  -1.17794  -1.11217  -1.03717  -0.96554
  Beta  occ. eigenvalues --   -0.90021  -0.66486  -0.66479  -0.62633  -0.60128
  Beta  occ. eigenvalues --   -0.60108  -0.55043
  Beta virt. eigenvalues --   -0.45452  -0.45423  -0.32973  -0.32970  -0.18844
  Beta virt. eigenvalues --   -0.18717  -0.16876  -0.12637  -0.10551  -0.10549
  Beta virt. eigenvalues --   -0.07996  -0.06858  -0.06762  -0.06248  -0.05083

 Mulliken charges and spin densities:
               1          2
     1  N   -0.721926   0.638082
     2  C   -0.433874   0.419430
     3  C    1.514058   0.569088
     4  C    0.966261   0.325163
     5  C   -0.222667   0.352070
     6  C   -0.101851  -0.303833
 Sum of Mulliken charges =   1.00000   2.00000

 Dipole moment (field-independent basis, Debye):
    X=             -0.2202    Y=             -1.7563    Z=             -0.0000  Tot=              1.7701
 Quadrupole moment (field-independent basis, Debye-Ang):
   XX=            -29.1540   YY=            -17.7243   ZZ=            -29.1537
   XY=              0.8145   XZ=              0.0000   YZ=             -0.0000

  Exact polarizability:  32.509   5.821 168.669   0.000  -0.000  32.630
 Approx polarizability:  45.009  10.781 410.921   0.000   0.000  44.647

                      1                      2                      3
                     A'                     A"                     A'
 Frequencies --     63.8026               151.9787               161.4386
 Red. masses --     12.2074                12.4359                12.4003
 Frc consts  --      0.0293                 0.1692                 0.1904
 IR Inten    --     16.1860                 0.0474                 4.3968

                      4                      5                      6
                     A"                     A'                     A'
 Frequencies --    393.0341               395.8293               556.7989
 Red. masses --     12.1591                12.1555                12.0294
 Frc consts  --      1.1066                 1.1221                 2.1973
 IR Inten    --     10.4668                12.8906                 1.7578

                      7                      8                      9
                     A"                     A'                     A'
 Frequencies --    557.8833               645.2250              1194.3478
 Red. masses --     12.0280                12.5314                12.2538
 Frc consts  --      2.2056                 3.0738                10.2987
 IR Inten    --      0.5944                23.9878               127.2544

                     10                     11                     12
                     A'                     A'                     A'
 Frequencies --   1765.5619              2025.0934              2092.3428
 Red. masses --     12.1165                12.2638                12.2637
 Frc consts  --     22.2533                29.6324                31.6329
 IR Inten    --    305.3889               241.2277               387.1676

 - Thermochemistry -
 -------------------
 Temperature   298.150 Kelvin.  Pressure   1.00000 Atm.
 Atom     1 has atomic number  7 and mass  14.00307

 Molecular mass:    74.00307 amu.
 Principal axes and moments of inertia in atomic units:
                           1         2         3
     Eigenvalues --     0.295091292.623401292.91849
           X            0.02693   0.99964   0.00000
           Y            0.99964  -0.02693  -0.00000
           Z            0.00000  -0.00000   1.00000
 This molecule is an asymmetric top.
 Rotational symmetry number  1.
 Rotational temperatures (Kelvin)    293.51388     0.06701     0.06699
 Rotational constants (GHZ):        6115.84425     1.39618     1.39587
 Zero-point vibrational energy      59833.2 (Joules/Mol)
                                   14.30049 (Kcal/Mol)
 Warning -- explicit consideration of   7 degrees of freedom as
           vibrations may cause significant error
 Vibrational temperatures:     91.80   218.66   232.27   565.49   569.51
          (Kelvin)            801.11   802.67   928.33  1718.40  2540.25
                             2913.65  3010.41

 Zero-point correction=                           0.022789 (Hartree/Particle)
 Thermal correction to Energy=                    0.028848
 Thermal correction to Enthalpy=                  0.029792
 Thermal correction to Gibbs Free Energy=        -0.005747
 Sum of electronic and zero-point Energies=           -244.699538
 Sum of electronic and thermal Energies=              -244.693480
 Sum of electronic and thermal Enthalpies=            -244.692536
 Sum of electronic and thermal Free Energies=         -244.728075

                     E (Thermal)             CV                S
                      KCal/Mol        Cal/Mol-Kelvin    Cal/Mol-Kelvin
 Total                   18.102             18.129             74.799
 Electronic               0.000              0.000              2.183
 Translational            0.889              2.981             38.821
 Rotational               0.889              2.981             20.828
 Vibrational             16.325             12.167             12.968
 Vibration     1          0.597              1.972              4.336
 Vibration     2          0.619              1.900              2.647
 Vibration     3          0.622              1.890              2.533
 Vibration     4          0.760              1.485              0.989
 Vibration     5          0.763              1.479              0.978
 Vibration     6          0.912              1.125              0.530
 Vibration     7          0.913              1.122              0.528

 Normal termination of Gaussian 09 at Tue Aug 16 18:33:21 2016.
